<event>
 7    1  0.2900470E-011  0.5052887E+02  0.7816164E-02  0.1300439E+00
        -11   -1    0    0    0    0  0.00000000000E+00  0.00000000000E+00  0.45593999997E+02  0.45594000000E+02  0.51100000000E-03 0. -1.
         11   -1    0    0    0    0 -0.00000000000E+00 -0.00000000000E+00 -0.45593999997E+02  0.45594000000E+02  0.51100000000E-03 0.  1.
    9900012    2    1    2    0    0  0.33306609120E+02 -0.17605272599E+02  0.15293438541E+02  0.50528866994E+02  0.30000021716E+02 0.  0.
         12    1    1    2    0    0 -0.33306609120E+02  0.17605272599E+02 -0.15293438541E+02  0.40659133006E+02  0.00000000000E+00 0. -1.
         11    1    3    3    0    0  0.11726146295E+01 -0.11746282172E+02  0.11867186637E+02  0.16738586824E+02  0.51100000000E-03 0. -1.
        -11    1    3    3    0    0  0.18576501674E+02 -0.64119129051E+01  0.45605661805E+01  0.20174186618E+02  0.51100000000E-03 0.  1.
         12    1    3    3    0    0  0.13557492817E+02  0.55292247782E+00 -0.11343142773E+01  0.13616093552E+02  0.00000000000E+00 0. -1.
</event>
<event>
 7    1  0.2900470E-011  0.5052886E+02  0.7816164E-02  0.1300439E+00
        -11   -1    0    0    0    0  0.00000000000E+00  0.00000000000E+00  0.45593999997E+02  0.45594000000E+02  0.51100000000E-03 0. -1.
         11   -1    0    0    0    0 -0.00000000000E+00 -0.00000000000E+00 -0.45593999997E+02  0.45594000000E+02  0.51100000000E-03 0.  1.
    9900012    2    1    2    0    0 -0.36292519851E+02 -0.18254752849E+02 -0.16680486029E+01  0.50528863452E+02  0.30000010948E+02 0.  0.
         12    1    1    2    0    0  0.36292519851E+02  0.18254752849E+02  0.16680486029E+01  0.40659136548E+02  0.00000000000E+00 0. -1.
         11    1    3    3    0    0 -0.23438330340E+02 -0.12899251374E+02  0.56512211696E+01  0.27343780209E+02  0.51100000000E-03 0.  1.
        -11    1    3    3    0    0 -0.49518326396E+00  0.49763419668E+01 -0.47035953540E+01  0.68653474312E+01  0.51100000000E-03 0. -1.
         12    1    3    3    0    0 -0.12359006247E+02 -0.10331843441E+02 -0.26156744185E+01  0.16319735812E+02  0.00000000000E+00 0. -1.
</event>
<event>
 7    1  0.2900470E-011  0.5052881E+02  0.7816164E-02  0.1300439E+00
        -11   -1    0    0    0    0  0.00000000000E+00  0.00000000000E+00  0.45593999997E+02  0.45594000000E+02  0.51100000000E-03 0.  1.
         11   -1    0    0    0    0 -0.00000000000E+00 -0.00000000000E+00 -0.45593999997E+02  0.45594000000E+02  0.51100000000E-03 0. -1.
    9900012    2    1    2    0    0 -0.19738215277E+02  0.33702344158E+02  0.11301544959E+02  0.50528805929E+02  0.29999836100E+02 0.  0.
         12    1    1    2    0    0  0.19738215277E+02 -0.33702344158E+02 -0.11301544959E+02  0.40659194071E+02  0.00000000000E+00 0. -1.
         11    1    3    3    0    0 -0.12153415897E+02  0.94021035921E+01 -0.20009275098E+01  0.15495443881E+02  0.51100000000E-03 0. -1.
        -11    1    3    3    0    0  0.23692669834E+01  0.21935543129E+02  0.76961046031E+01  0.23366889068E+02  0.51100000000E-03 0.  1.
        -12    1    3    3    0    0 -0.99540663633E+01  0.23646974375E+01  0.56063678654E+01  0.11666472979E+02  0.00000000000E+00 0.  1.
</event>
<event>
 7    1  0.2900470E-011  0.5052885E+02  0.7816164E-02  0.1300439E+00
        -11   -1    0    0    0    0  0.00000000000E+00  0.00000000000E+00  0.45593999997E+02  0.45594000000E+02  0.51100000000E-03 0. -1.
         11   -1    0    0    0    0 -0.00000000000E+00 -0.00000000000E+00 -0.45593999997E+02  0.45594000000E+02  0.51100000000E-03 0.  1.
    9900012    2    1    2    0    0 -0.17360864604E+01 -0.40305064208E+02 -0.50649740865E+01  0.50528853925E+02  0.29999981991E+02 0.  0.
         12    1    1    2    0    0  0.17360864604E+01  0.40305064208E+02  0.50649740865E+01  0.40659146075E+02  0.00000000000E+00 0. -1.
         11    1    3    3    0    0 -0.50088948224E+01 -0.28056256067E+02  0.39762184844E+01  0.28775907380E+02  0.51100000000E-03 0. -1.
        -11    1    3    3    0    0  0.68339351940E+01 -0.12034271926E+02 -0.11004140371E+02  0.17680991957E+02  0.51100000000E-03 0.  1.
        -12    1    3    3    0    0 -0.35611268320E+01 -0.21453621514E+00  0.19629478000E+01  0.40719545880E+01  0.00000000000E+00 0.  1.
</event>
<event>
 7    1  0.2900470E-011  0.5052887E+02  0.7816164E-02  0.1300439E+00
        -11   -1    0    0    0    0  0.00000000000E+00  0.00000000000E+00  0.45593999997E+02  0.45594000000E+02  0.51100000000E-03 0.  1.
         11   -1    0    0    0    0 -0.00000000000E+00 -0.00000000000E+00 -0.45593999997E+02  0.45594000000E+02  0.51100000000E-03 0. -1.
    9900012    2    1    2    0    0 -0.20324329380E+01 -0.20993873181E+02  0.34760486485E+02  0.50528869224E+02  0.30000028493E+02 0.  0.
         12    1    1    2    0    0  0.20324329380E+01  0.20993873181E+02 -0.34760486485E+02  0.40659130776E+02  0.00000000000E+00 0. -1.
         11    1    3    3    0    0  0.88597537172E+01 -0.23773279899E+01  0.10897638033E+01  0.92376679800E+01  0.51100000000E-03 0. -1.
        -11    1    3    3    0    0 -0.11872833102E+02 -0.10935216086E+02  0.22045611870E+02  0.27323105968E+02  0.51100000000E-03 0.  1.
        -12    1    3    3    0    0  0.98064644720E+00 -0.76813291044E+01  0.11625110812E+02  0.13968095276E+02  0.00000000000E+00 0.  1.
</event>
<event>
 7    1  0.2900470E-011  0.5052879E+02  0.7816164E-02  0.1300439E+00
        -11   -1    0    0    0    0  0.00000000000E+00  0.00000000000E+00  0.45593999997E+02  0.45594000000E+02  0.51100000000E-03 0.  1.
         11   -1    0    0    0    0 -0.00000000000E+00 -0.00000000000E+00 -0.45593999997E+02  0.45594000000E+02  0.51100000000E-03 0. -1.
    9900012    2    1    2    0    0 -0.32249570991E+02  0.24761234025E+02 -0.13200994179E+00  0.50528794817E+02  0.29999802324E+02 0.  0.
         12    1    1    2    0    0  0.32249570991E+02 -0.24761234025E+02  0.13200994179E+00  0.40659205183E+02  0.00000000000E+00 0. -1.
         11    1    3    3    0    0 -0.32696877590E+01  0.31558765868E-01  0.39781135180E+00  0.32939502319E+01  0.51100000000E-03 0. -1.
        -11    1    3    3    0    0 -0.30269372870E+02  0.21932799606E+02  0.79471792837E+01  0.38215707390E+02  0.51100000000E-03 0.  1.
        -12    1    3    3    0    0  0.12894896381E+01  0.27968756524E+01 -0.84770005773E+01  0.90191371943E+01  0.00000000000E+00 0.  1.
</event>
<event>
 7    1  0.2900470E-011  0.5052886E+02  0.7816164E-02  0.1300439E+00
        -11   -1    0    0    0    0  0.00000000000E+00  0.00000000000E+00  0.45593999997E+02  0.45594000000E+02  0.51100000000E-03 0.  1.
         11   -1    0    0    0    0 -0.00000000000E+00 -0.00000000000E+00 -0.45593999997E+02  0.45594000000E+02  0.51100000000E-03 0. -1.
    9900012    2    1    2    0    0 -0.79841880903E+01  0.19880604119E+02  0.34556906580E+02  0.50528862380E+02  0.30000007692E+02 0.  0.
         12    1    1    2    0    0  0.79841880903E+01 -0.19880604119E+02 -0.34556906580E+02  0.40659137620E+02  0.00000000000E+00 0. -1.
         11    1    3    3    0    0  0.45201550584E+01 -0.47784607847E+01  0.86342032475E+01  0.10854259772E+02  0.51100000000E-03 0. -1.
        -11    1    3    3    0    0 -0.12688231708E+02  0.14488985403E+02  0.20576063049E+02  0.28183262635E+02  0.51100000000E-03 0.  1.
         12    1    3    3    0    0  0.18388855964E+00  0.10170079501E+02  0.53466402827E+01  0.11491339973E+02  0.00000000000E+00 0. -1.
</event>
<event>
 7    1  0.2900470E-011  0.5052886E+02  0.7816164E-02  0.1300439E+00
        -11   -1    0    0    0    0  0.00000000000E+00  0.00000000000E+00  0.45593999997E+02  0.45594000000E+02  0.51100000000E-03 0.  1.
         11   -1    0    0    0    0 -0.00000000000E+00 -0.00000000000E+00 -0.45593999997E+02  0.45594000000E+02  0.51100000000E-03 0. -1.
    9900012    2    1    2    0    0 -0.68723184430E+01  0.17465601653E+02  0.36067853413E+02  0.50528855251E+02  0.29999986021E+02 0.  0.
         12    1    1    2    0    0  0.68723184430E+01 -0.17465601653E+02 -0.36067853413E+02  0.40659144749E+02  0.00000000000E+00 0. -1.
         11    1    3    3    0    0  0.35690942026E+01 -0.58329297885E+01  0.41532113060E+01  0.80006667071E+01  0.51100000000E-03 0. -1.
        -11    1    3    3    0    0 -0.11350461893E+02  0.17846461103E+02  0.29943662073E+02  0.36659951687E+02  0.51100000000E-03 0.  1.
         12    1    3    3    0    0  0.90904924722E+00  0.54520703388E+01  0.19709800339E+01  0.58682368568E+01  0.00000000000E+00 0. -1.
</event>
<event>
 7    1  0.2900470E-011  0.5052885E+02  0.7816164E-02  0.1300439E+00
        -11   -1    0    0    0    0  0.00000000000E+00  0.00000000000E+00  0.45593999997E+02  0.45594000000E+02  0.51100000000E-03 0.  1.
         11   -1    0    0    0    0 -0.00000000000E+00 -0.00000000000E+00 -0.45593999997E+02  0.45594000000E+02  0.51100000000E-03 0. -1.
    9900012    2    1    2    0    0  0.15426544662E+02 -0.27669505717E+02  0.25486989922E+02  0.50528849958E+02  0.29999969934E+02 0.  0.
         12    1    1    2    0    0 -0.15426544662E+02  0.27669505717E+02 -0.25486989922E+02  0.40659150042E+02  0.00000000000E+00 0. -1.
         11    1    3    3    0    0  0.18478440640E+02 -0.22884031763E+02  0.77162818605E+01  0.30408431137E+02  0.51100000000E-03 0. -1.
        -11    1    3    3    0    0  0.22213744477E+01 -0.52915839928E-01  0.57841534874E+01  0.61962679372E+01  0.51100000000E-03 0.  1.
         12    1    3    3    0    0 -0.52732704257E+01 -0.47325581137E+01  0.11986554574E+02  0.13924150884E+02  0.00000000000E+00 0. -1.
</event>
<event>
 7    1  0.2900470E-011  0.5052890E+02  0.7816164E-02  0.1300439E+00
        -11   -1    0    0    0    0  0.00000000000E+00  0.00000000000E+00  0.45593999997E+02  0.45594000000E+02  0.51100000000E-03 0. -1.
         11   -1    0    0    0    0 -0.00000000000E+00 -0.00000000000E+00 -0.45593999997E+02  0.45594000000E+02  0.51100000000E-03 0.  1.
    9900012    2    1    2    0    0  0.19462662352E+02  0.33712741196E+02 -0.11739598692E+02  0.50528901114E+02  0.30000125425E+02 0.  0.
         12    1    1    2    0    0 -0.19462662352E+02 -0.33712741196E+02  0.11739598692E+02  0.40659098886E+02  0.00000000000E+00 0. -1.
         11    1    3    3    0    0  0.30647445543E+01  0.11289206909E+02  0.88896012196E+01  0.14692306216E+02  0.51100000000E-03 0. -1.
        -11    1    3    3    0    0  0.92059427586E+01  0.51063236454E+01 -0.67123998348E+01  0.12485200641E+02  0.51100000000E-03 0.  1.
         12    1    3    3    0    0  0.71919750390E+01  0.17317210641E+02 -0.13916800077E+02  0.23351394257E+02  0.00000000000E+00 0. -1.
</event>
<event>
 7    1  0.2900470E-011  0.5052886E+02  0.7816164E-02  0.1300439E+00
        -11   -1    0    0    0    0  0.00000000000E+00  0.00000000000E+00  0.45593999997E+02  0.45594000000E+02  0.51100000000E-03 0.  1.
         11   -1    0    0    0    0 -0.00000000000E+00 -0.00000000000E+00 -0.45593999997E+02  0.45594000000E+02  0.51100000000E-03 0. -1.
    9900012    2    1    2    0    0  0.23992303679E+02  0.11157518657E+02  0.30871427278E+02  0.50528857356E+02  0.29999992419E+02 0.  0.
         12    1    1    2    0    0 -0.23992303679E+02 -0.11157518657E+02 -0.30871427278E+02  0.40659142644E+02  0.00000000000E+00 0. -1.
         11    1    3    3    0    0 -0.75668330459E+00  0.12467293933E+02  0.33591451062E+01  0.12934057512E+02  0.51100000000E-03 0. -1.
        -11    1    3    3    0    0  0.24056008576E+02 -0.20419466984E+01  0.27490119190E+02  0.36586442138E+02  0.51100000000E-03 0.  1.
        -12    1    3    3    0    0  0.69297840719E+00  0.73217142282E+00  0.22162981333E-01  0.10083577059E+01  0.00000000000E+00 0.  1.
</event>
<event>
 7    1  0.2900470E-011  0.5052881E+02  0.7816164E-02  0.1300439E+00
        -11   -1    0    0    0    0  0.00000000000E+00  0.00000000000E+00  0.45593999997E+02  0.45594000000E+02  0.51100000000E-03 0. -1.
         11   -1    0    0    0    0 -0.00000000000E+00 -0.00000000000E+00 -0.45593999997E+02  0.45594000000E+02  0.51100000000E-03 0.  1.
    9900012    2    1    2    0    0 -0.88105196575E+01 -0.22695327105E+01 -0.39628190021E+02  0.50528813096E+02  0.29999857885E+02 0.  0.
         12    1    1    2    0    0  0.88105196575E+01  0.22695327105E+01  0.39628190021E+02  0.40659186904E+02  0.00000000000E+00 0. -1.
         11    1    3    3    0    0 -0.37435305683E+01 -0.14848554540E+02 -0.18551288748E+02  0.24055018344E+02  0.51100000000E-03 0. -1.
        -11    1    3    3    0    0 -0.25639975315E+01  0.73956502534E+01 -0.18651863483E+02  0.20227746728E+02  0.51100000000E-03 0.  1.
         12    1    3    3    0    0 -0.25029915577E+01  0.51833715765E+01 -0.24250377902E+01  0.62460480243E+01  0.00000000000E+00 0. -1.
</event>
<event>
 7    1  0.2900470E-011  0.5052887E+02  0.7816164E-02  0.1300439E+00
        -11   -1    0    0    0    0  0.00000000000E+00  0.00000000000E+00  0.45593999997E+02  0.45594000000E+02  0.51100000000E-03 0.  1.
         11   -1    0    0    0    0 -0.00000000000E+00 -0.00000000000E+00 -0.45593999997E+02  0.45594000000E+02  0.51100000000E-03 0. -1.
    9900012    2    1    2    0    0 -0.93458444974E+01 -0.46855780943E+01  0.39292055981E+02  0.50528866774E+02  0.30000021047E+02 0.  0.
         12    1    1    2    0    0  0.93458444974E+01  0.46855780943E+01 -0.39292055981E+02  0.40659133226E+02  0.00000000000E+00 0. -1.
         11    1    3    3    0    0  0.49424859605E+01 -0.31281127480E+01  0.41662516862E+01  0.71812888960E+01  0.51100000000E-03 0. -1.
        -11    1    3    3    0    0 -0.12601854052E+02  0.58628117980E+01  0.32415864316E+02  0.35269924119E+02  0.51100000000E-03 0.  1.
        -12    1    3    3    0    0 -0.16864764063E+01 -0.74202771443E+01  0.27099399791E+01  0.80776537595E+01  0.00000000000E+00 0.  1.
</event>
<event>
 7    1  0.2900470E-011  0.5052885E+02  0.7816164E-02  0.1300439E+00
        -11   -1    0    0    0    0  0.00000000000E+00  0.00000000000E+00  0.45593999997E+02  0.45594000000E+02  0.51100000000E-03 0. -1.
         11   -1    0    0    0    0 -0.00000000000E+00 -0.00000000000E+00 -0.45593999997E+02  0.45594000000E+02  0.51100000000E-03 0.  1.
    9900012    2    1    2    0    0  0.22968282592E+02  0.33448574190E+02  0.26110002773E+01  0.50528850439E+02  0.29999971395E+02 0.  0.
         12    1    1    2    0    0 -0.22968282592E+02 -0.33448574190E+02 -0.26110002773E+01  0.40659149561E+02  0.00000000000E+00 0. -1.
         11    1    3    3    0    0 -0.63394512712E+00  0.10026744209E+02 -0.83865501872E+00  0.10081707612E+02  0.51100000000E-03 0. -1.
        -11    1    3    3    0    0  0.25746644599E+02  0.11966913088E+02  0.44989751483E+01  0.28746086597E+02  0.51100000000E-03 0.  1.
        -12    1    3    3    0    0 -0.21444168804E+01  0.11454916892E+02 -0.10493198523E+01  0.11701056231E+02  0.00000000000E+00 0.  1.
</event>
<event>
 7    1  0.2900470E-011  0.5052886E+02  0.7816164E-02  0.1300439E+00
        -11   -1    0    0    0    0  0.00000000000E+00  0.00000000000E+00  0.45593999997E+02  0.45594000000E+02  0.51100000000E-03 0.  1.
         11   -1    0    0    0    0 -0.00000000000E+00 -0.00000000000E+00 -0.45593999997E+02  0.45594000000E+02  0.51100000000E-03 0. -1.
    9900012    2    1    2    0    0 -0.22262636116E+02 -0.29435871890E+02  0.17060789733E+02  0.50528855063E+02  0.29999985448E+02 0.  0.
         12    1    1    2    0    0  0.22262636116E+02  0.29435871890E+02 -0.17060789733E+02  0.40659144937E+02  0.00000000000E+00 0. -1.
         11    1    3    3    0    0 -0.13151726468E+02 -0.96478516023E+01  0.34184984246E+00  0.16314588907E+02  0.51100000000E-03 0. -1.
        -11    1    3    3    0    0  0.50634933463E+01 -0.13087489124E+02  0.62487028980E+01  0.15361237731E+02  0.51100000000E-03 0.  1.
        -12    1    3    3    0    0 -0.14174402994E+02 -0.67005311630E+01  0.10470236993E+02  0.18853028425E+02  0.00000000000E+00 0.  1.
</event>
<event>
 7    1  0.2900470E-011  0.5052886E+02  0.7816164E-02  0.1300439E+00
        -11   -1    0    0    0    0  0.00000000000E+00  0.00000000000E+00  0.45593999997E+02  0.45594000000E+02  0.51100000000E-03 0. -1.
         11   -1    0    0    0    0 -0.00000000000E+00 -0.00000000000E+00 -0.45593999997E+02  0.45594000000E+02  0.51100000000E-03 0.  1.
    9900012    2    1    2    0    0 -0.22915948546E+02  0.17103006031E+02  0.28905230328E+02  0.50528857690E+02  0.29999993434E+02 0.  0.
         12    1    1    2    0    0  0.22915948546E+02 -0.17103006031E+02 -0.28905230328E+02  0.40659142310E+02  0.00000000000E+00 0. -1.
         11    1    3    3    0    0 -0.62086620034E+00 -0.50299515771E+01  0.44127427409E+00  0.50872989840E+01  0.51100000000E-03 0. -1.
        -11    1    3    3    0    0 -0.23699295837E+02  0.18003659393E+02  0.19814792458E+02  0.35754920992E+02  0.51100000000E-03 0.  1.
        -12    1    3    3    0    0  0.14042134920E+01  0.41292982152E+01  0.86491635966E+01  0.96866377140E+01  0.00000000000E+00 0.  1.
</event>
<event>
 7    1  0.2900470E-011  0.5052886E+02  0.7816164E-02  0.1300439E+00
        -11   -1    0    0    0    0  0.00000000000E+00  0.00000000000E+00  0.45593999997E+02  0.45594000000E+02  0.51100000000E-03 0.  1.
         11   -1    0    0    0    0 -0.00000000000E+00 -0.00000000000E+00 -0.45593999997E+02  0.45594000000E+02  0.51100000000E-03 0. -1.
    9900012    2    1    2    0    0  0.16500131094E+02 -0.37156597599E+02  0.54640417020E+00  0.50528860453E+02  0.30000001832E+02 0.  0.
         12    1    1    2    0    0 -0.16500131094E+02  0.37156597599E+02 -0.54640417020E+00  0.40659139547E+02  0.00000000000E+00 0. -1.
         11    1    3    3    0    0  0.45526211094E+01 -0.57296439823E+01 -0.54183216980E+01  0.91056789650E+01  0.51100000000E-03 0. -1.
        -11    1    3    3    0    0 -0.19115757916E+01  0.10782736032E+00  0.67013105077E+01  0.69694556121E+01  0.51100000000E-03 0.  1.
        -12    1    3    3    0    0  0.13859085776E+02 -0.31534780977E+02 -0.73658463956E+00  0.34453725876E+02  0.00000000000E+00 0.  1.
</event>
<event>
 7    1  0.2900470E-011  0.5052890E+02  0.7816164E-02  0.1300439E+00
        -11   -1    0    0    0    0  0.00000000000E+00  0.00000000000E+00  0.45593999997E+02  0.45594000000E+02  0.51100000000E-03 0.  1.
         11   -1    0    0    0    0 -0.00000000000E+00 -0.00000000000E+00 -0.45593999997E+02  0.45594000000E+02  0.51100000000E-03 0. -1.
    9900012    2    1    2    0    0 -0.18711758965E+02 -0.78564111763E+01  0.35232223915E+02  0.50528896197E+02  0.30000110479E+02 0.  0.
         12    1    1    2    0    0  0.18711758965E+02  0.78564111763E+01 -0.35232223915E+02  0.40659103803E+02  0.00000000000E+00 0. -1.
         11    1    3    3    0    0 -0.97215176885E+01  0.91843776662E+01  0.80516052592E+01  0.15610542809E+02  0.51100000000E-03 0. -1.
        -11    1    3    3    0    0  0.17798368502E+01 -0.42156543710E+01  0.96152841821E+01  0.10648626726E+02  0.51100000000E-03 0.  1.
         12    1    3    3    0    0 -0.10770078127E+02 -0.12825134471E+02  0.17565334473E+02  0.24269726661E+02  0.00000000000E+00 0. -1.
</event>
<event>
 7    1  0.2900470E-011  0.5052885E+02  0.7816164E-02  0.1300439E+00
        -11   -1    0    0    0    0  0.00000000000E+00  0.00000000000E+00  0.45593999997E+02  0.45594000000E+02  0.51100000000E-03 0. -1.
         11   -1    0    0    0    0 -0.00000000000E+00 -0.00000000000E+00 -0.45593999997E+02  0.45594000000E+02  0.51100000000E-03 0.  1.
    9900012    2    1    2    0    0 -0.24074421584E+01 -0.39769269416E+02 -0.81102475999E+01  0.50528847478E+02  0.29999962395E+02 0.  0.
         12    1    1    2    0    0  0.24074421584E+01  0.39769269416E+02  0.81102475999E+01  0.40659152522E+02  0.00000000000E+00 0. -1.
         11    1    3    3    0    0 -0.72340860216E+00  0.17716667634E+01 -0.38135347237E+01  0.42667517477E+01  0.51100000000E-03 0. -1.
        -11    1    3    3    0    0 -0.19111761057E+01 -0.37594731774E+02  0.32083497610E+01  0.37779755951E+02  0.51100000000E-03 0.  1.
        -12    1    3    3    0    0  0.22714254954E+00 -0.39462044062E+01 -0.75050626373E+01  0.84823397799E+01  0.00000000000E+00 0.  1.
</event>
<event>
 7    1  0.2900470E-011  0.5052886E+02  0.7816164E-02  0.1300439E+00
        -11   -1    0    0    0    0  0.00000000000E+00  0.00000000000E+00  0.45593999997E+02  0.45594000000E+02  0.51100000000E-03 0.  1.
         11   -1    0    0    0    0 -0.00000000000E+00 -0.00000000000E+00 -0.45593999997E+02  0.45594000000E+02  0.51100000000E-03 0. -1.
    9900012    2    1    2    0    0 -0.38169145245E+02  0.13121956019E+02 -0.49087958520E+01  0.50528860127E+02  0.30000000842E+02 0.  0.
         12    1    1    2    0    0  0.38169145245E+02 -0.13121956019E+02  0.49087958520E+01  0.40659139873E+02  0.00000000000E+00 0. -1.
         11    1    3    3    0    0 -0.29363411125E+01 -0.19363559955E+01  0.22561282681E+00  0.35245531744E+01  0.51100000000E-03 0. -1.
        -11    1    3    3    0    0 -0.24342201983E+02  0.19870950948E+02  0.44278356630E+01  0.31733314007E+02  0.51100000000E-03 0.  1.
        -12    1    3    3    0    0 -0.10890602150E+02 -0.48126389337E+01 -0.95622443418E+01  0.15270992946E+02  0.00000000000E+00 0.  1.
</event>
<event>
 7    1  0.2900470E-011  0.5052887E+02  0.7816164E-02  0.1300439E+00
        -11   -1    0    0    0    0  0.00000000000E+00  0.00000000000E+00  0.45593999997E+02  0.45594000000E+02  0.51100000000E-03 0. -1.
         11   -1    0    0    0    0 -0.00000000000E+00 -0.00000000000E+00 -0.45593999997E+02  0.45594000000E+02  0.51100000000E-03 0.  1.
    9900012    2    1    2    0    0  0.14535895970E+02 -0.57685133818E+01 -0.37531283273E+02  0.50528865203E+02  0.30000016272E+02 0.  0.
         12    1    1    2    0    0 -0.14535895970E+02  0.57685133818E+01  0.37531283273E+02  0.40659134797E+02  0.00000000000E+00 0. -1.
         11    1    3    3    0    0  0.19845897595E+02 -0.99190502322E+01 -0.15502823511E+02  0.27066302775E+02  0.51100000000E-03 0.  1.
        -11    1    3    3    0    0 -0.26064843762E+01  0.65194730143E+00 -0.34915643811E+01  0.44056575191E+01  0.51100000000E-03 0. -1.
         12    1    3    3    0    0 -0.27035172481E+01  0.34985895489E+01 -0.18536895381E+02  0.19056904909E+02  0.00000000000E+00 0. -1.
</event>
<event>
 7    1  0.2900470E-011  0.5052886E+02  0.7816164E-02  0.1300439E+00
        -11   -1    0    0    0    0  0.00000000000E+00  0.00000000000E+00  0.45593999997E+02  0.45594000000E+02  0.51100000000E-03 0. -1.
         11   -1    0    0    0    0 -0.00000000000E+00 -0.00000000000E+00 -0.45593999997E+02  0.45594000000E+02  0.51100000000E-03 0.  1.
    9900012    2    1    2    0    0 -0.34164305643E+02 -0.18791320586E+01 -0.21964390446E+02  0.50528863695E+02  0.30000011688E+02 0.  0.
         12    1    1    2    0    0  0.34164305643E+02  0.18791320586E+01  0.21964390446E+02  0.40659136305E+02  0.00000000000E+00 0. -1.
         11    1    3    3    0    0 -0.15770918875E+02  0.10017965794E+02 -0.72552408243E+01  0.20042954884E+02  0.51100000000E-03 0. -1.
        -11    1    3    3    0    0 -0.20974371699E+02 -0.10988056565E+02 -0.14445434634E+02  0.27736838992E+02  0.51100000000E-03 0.  1.
         12    1    3    3    0    0  0.25809849307E+01 -0.90904128723E+00 -0.26371498752E+00  0.27490698189E+01  0.00000000000E+00 0. -1.
</event>
<event>
 7    1  0.2900470E-011  0.5052885E+02  0.7816164E-02  0.1300439E+00
        -11   -1    0    0    0    0  0.00000000000E+00  0.00000000000E+00  0.45593999997E+02  0.45594000000E+02  0.51100000000E-03 0.  1.
         11   -1    0    0    0    0 -0.00000000000E+00 -0.00000000000E+00 -0.45593999997E+02  0.45594000000E+02  0.51100000000E-03 0. -1.
    9900012    2    1    2    0    0  0.35712111763E+02  0.44095595017E+01  0.18930597860E+02  0.50528847563E+02  0.29999962653E+02 0.  0.
         12    1    1    2    0    0 -0.35712111763E+02 -0.44095595017E+01 -0.18930597860E+02  0.40659152437E+02  0.00000000000E+00 0. -1.
         11    1    3    3    0    0  0.79100832982E+01 -0.39962394934E+01  0.58676595983E+01  0.10628677119E+02  0.51100000000E-03 0. -1.
        -11    1    3    3    0    0  0.13745714825E+02  0.27344900516E+01 -0.62533797554E+01  0.15346884717E+02  0.51100000000E-03 0.  1.
        -12    1    3    3    0    0  0.14056313640E+02  0.56713089436E+01  0.19316318017E+02  0.24553285728E+02  0.00000000000E+00 0.  1.
</event>
<event>
 7    1  0.2900470E-011  0.5052886E+02  0.7816164E-02  0.1300439E+00
        -11   -1    0    0    0    0  0.00000000000E+00  0.00000000000E+00  0.45593999997E+02  0.45594000000E+02  0.51100000000E-03 0.  1.
         11   -1    0    0    0    0 -0.00000000000E+00 -0.00000000000E+00 -0.45593999997E+02  0.45594000000E+02  0.51100000000E-03 0. -1.
    9900012    2    1    2    0    0 -0.28010200398E+02  0.15606411045E+01  0.29430575267E+02  0.50528859729E+02  0.29999999633E+02 0.  0.
         12    1    1    2    0    0  0.28010200398E+02 -0.15606411045E+01 -0.29430575267E+02  0.40659140271E+02  0.00000000000E+00 0. -1.
         11    1    3    3    0    0 -0.20160526287E+00 -0.14753200051E+01  0.30861822019E+00  0.15206772394E+01  0.51100000000E-03 0.  1.
        -11    1    3    3    0    0 -0.68903414715E+00 -0.80025666005E+01  0.13785464710E+02  0.15954776018E+02  0.51100000000E-03 0. -1.
        -12    1    3    3    0    0 -0.27119560988E+02  0.11038527710E+02  0.15336492336E+02  0.33053406472E+02  0.00000000000E+00 0.  1.
</event>
<event>
 7    1  0.2900470E-011  0.5052887E+02  0.7816164E-02  0.1300439E+00
        -11   -1    0    0    0    0  0.00000000000E+00  0.00000000000E+00  0.45593999997E+02  0.45594000000E+02  0.51100000000E-03 0.  1.
         11   -1    0    0    0    0 -0.00000000000E+00 -0.00000000000E+00 -0.45593999997E+02  0.45594000000E+02  0.51100000000E-03 0. -1.
    9900012    2    1    2    0    0 -0.35694289194E+02  0.16112873896E+02  0.10929678737E+02  0.50528869862E+02  0.30000030432E+02 0.  0.
         12    1    1    2    0    0  0.35694289194E+02 -0.16112873896E+02 -0.10929678737E+02  0.40659130138E+02  0.00000000000E+00 0. -1.
         11    1    3    3    0    0 -0.25372509625E+01  0.96421585972E+01  0.29350040320E+01  0.10393416849E+02  0.51100000000E-03 0. -1.
        -11    1    3    3    0    0 -0.35245308109E+02  0.85309218182E+01  0.64923009068E+01  0.36839630049E+02  0.51100000000E-03 0.  1.
        -12    1    3    3    0    0  0.20882698776E+01 -0.20602065192E+01  0.15023737985E+01  0.32958229646E+01  0.00000000000E+00 0.  1.
</event>
<event>
 7    1  0.2900470E-011  0.5052886E+02  0.7816164E-02  0.1300439E+00
        -11   -1    0    0    0    0  0.00000000000E+00  0.00000000000E+00  0.45593999997E+02  0.45594000000E+02  0.51100000000E-03 0. -1.
         11   -1    0    0    0    0 -0.00000000000E+00 -0.00000000000E+00 -0.45593999997E+02  0.45594000000E+02  0.51100000000E-03 0.  1.
    9900012    2    1    2    0    0  0.62326773603E+01  0.39797470567E+02 -0.55209620446E+01  0.50528856471E+02  0.29999989728E+02 0.  0.
         12    1    1    2    0    0 -0.62326773603E+01 -0.39797470567E+02  0.55209620446E+01  0.40659143529E+02  0.00000000000E+00 0. -1.
         11    1    3    3    0    0 -0.93947372821E+01  0.93820791673E+01  0.23456970961E+01  0.13482833279E+02  0.51100000000E-03 0. -1.
        -11    1    3    3    0    0  0.58277467432E+01  0.20113001372E+02 -0.30691768762E+00  0.20942532201E+02  0.51100000000E-03 0.  1.
         12    1    3    3    0    0  0.97996678992E+01  0.10302390029E+02 -0.75597414531E+01  0.16103490990E+02  0.00000000000E+00 0. -1.
</event>
<event>
 7    1  0.2900470E-011  0.5052886E+02  0.7816164E-02  0.1300439E+00
        -11   -1    0    0    0    0  0.00000000000E+00  0.00000000000E+00  0.45593999997E+02  0.45594000000E+02  0.51100000000E-03 0.  1.
         11   -1    0    0    0    0 -0.00000000000E+00 -0.00000000000E+00 -0.45593999997E+02  0.45594000000E+02  0.51100000000E-03 0. -1.
    9900012    2    1    2    0    0  0.25915359371E+02 -0.23394786357E+02  0.20838514306E+02  0.50528861316E+02  0.30000004457E+02 0.  0.
         12    1    1    2    0    0 -0.25915359371E+02  0.23394786357E+02 -0.20838514306E+02  0.40659138684E+02  0.00000000000E+00 0. -1.
         11    1    3    3    0    0 -0.74114687417E+00 -0.65198257638E+00 -0.56543712454E+01  0.57398862716E+01  0.51100000000E-03 0. -1.
        -11    1    3    3    0    0  0.54692067972E+01 -0.65063699580E+01  0.11083232357E+02  0.13967215641E+02  0.51100000000E-03 0.  1.
         12    1    3    3    0    0  0.21187299448E+02 -0.16236433822E+02  0.15409653195E+02  0.30821759404E+02  0.00000000000E+00 0. -1.
</event>
<event>
 7    1  0.2900470E-011  0.5052890E+02  0.7816164E-02  0.1300439E+00
        -11   -1    0    0    0    0  0.00000000000E+00  0.00000000000E+00  0.45593999997E+02  0.45594000000E+02  0.51100000000E-03 0. -1.
         11   -1    0    0    0    0 -0.00000000000E+00 -0.00000000000E+00 -0.45593999997E+02  0.45594000000E+02  0.51100000000E-03 0.  1.
    9900012    2    1    2    0    0  0.32735816704E+02 -0.20548431507E+01 -0.24027202919E+02  0.50528898242E+02  0.30000116697E+02 0.  0.
         12    1    1    2    0    0 -0.32735816704E+02  0.20548431507E+01  0.24027202919E+02  0.40659101758E+02  0.00000000000E+00 0. -1.
         11    1    3    3    0    0  0.18248795744E+01  0.29555973074E+01  0.31743023605E+01  0.47055219308E+01  0.51100000000E-03 0. -1.
        -11    1    3    3    0    0  0.13678759767E+02 -0.12065233487E+02 -0.12776285683E+02  0.22269077304E+02  0.51100000000E-03 0.  1.
        -12    1    3    3    0    0  0.17232177362E+02  0.70547930289E+01 -0.14425219596E+02  0.23554299008E+02  0.00000000000E+00 0.  1.
</event>
<event>
 7    1  0.2900470E-011  0.5052884E+02  0.7816164E-02  0.1300439E+00
        -11   -1    0    0    0    0  0.00000000000E+00  0.00000000000E+00  0.45593999997E+02  0.45594000000E+02  0.51100000000E-03 0.  1.
         11   -1    0    0    0    0 -0.00000000000E+00 -0.00000000000E+00 -0.45593999997E+02  0.45594000000E+02  0.51100000000E-03 0. -1.
    9900012    2    1    2    0    0 -0.13175129966E+02  0.19670608683E+02  0.33055260509E+02  0.50528841832E+02  0.29999945232E+02 0.  0.
         12    1    1    2    0    0  0.13175129966E+02 -0.19670608683E+02 -0.33055260509E+02  0.40659158168E+02  0.00000000000E+00 0. -1.
         11    1    3    3    0    0 -0.43355837402E+01  0.11478607795E+02 -0.46187818579E-01  0.12270201989E+02  0.51100000000E-03 0.  1.
        -11    1    3    3    0    0  0.33378970197E+01  0.63753167102E+00  0.13839860108E+02  0.14250955449E+02  0.51100000000E-03 0. -1.
         12    1    3    3    0    0 -0.12177443246E+02  0.75544692172E+01  0.19261588220E+02  0.24007684393E+02  0.00000000000E+00 0. -1.
</event>
<event>
 7    1  0.2900470E-011  0.5052886E+02  0.7816164E-02  0.1300439E+00
        -11   -1    0    0    0    0  0.00000000000E+00  0.00000000000E+00  0.45593999997E+02  0.45594000000E+02  0.51100000000E-03 0.  1.
         11   -1    0    0    0    0 -0.00000000000E+00 -0.00000000000E+00 -0.45593999997E+02  0.45594000000E+02  0.51100000000E-03 0. -1.
    9900012    2    1    2    0    0  0.40607171036E+02  0.20467869738E+00  0.20448873285E+01  0.50528858383E+02  0.29999995540E+02 0.  0.
         12    1    1    2    0    0 -0.40607171036E+02 -0.20467869738E+00 -0.20448873285E+01  0.40659141617E+02  0.00000000000E+00 0. -1.
         11    1    3    3    0    0  0.31338747519E+02  0.72811990657E+01 -0.43974967764E+01  0.32472618220E+02  0.51100000000E-03 0. -1.
        -11    1    3    3    0    0  0.82278367392E+01 -0.35582737387E+01  0.96583745393E+01  0.13177359690E+02  0.51100000000E-03 0.  1.
         12    1    3    3    0    0  0.10405867771E+01 -0.35182466296E+01 -0.32159904343E+01  0.48788804721E+01  0.00000000000E+00 0. -1.
</event>
<event>
 7    1  0.2900470E-011  0.5052891E+02  0.7816164E-02  0.1300439E+00
        -11   -1    0    0    0    0  0.00000000000E+00  0.00000000000E+00  0.45593999997E+02  0.45594000000E+02  0.51100000000E-03 0. -1.
         11   -1    0    0    0    0 -0.00000000000E+00 -0.00000000000E+00 -0.45593999997E+02  0.45594000000E+02  0.51100000000E-03 0.  1.
    9900012    2    1    2    0    0 -0.31522155763E+02  0.94039284499E+01 -0.23897303193E+02  0.50528914002E+02  0.30000164601E+02 0.  0.
         12    1    1    2    0    0  0.31522155763E+02 -0.94039284499E+01  0.23897303193E+02  0.40659085998E+02  0.00000000000E+00 0. -1.
         11    1    3    3    0    0 -0.14283322912E+01 -0.26308557990E+01 -0.55005417824E+01  0.62623873666E+01  0.51100000000E-03 0. -1.
        -11    1    3    3    0    0 -0.33004780626E+02  0.66503593009E+01 -0.12949081933E+02  0.36072448575E+02  0.51100000000E-03 0.  1.
        -12    1    3    3    0    0  0.29109571542E+01  0.53844249480E+01 -0.54476794777E+01  0.81940780608E+01  0.00000000000E+00 0.  1.
</event>
<event>
 7    1  0.2900470E-011  0.5052886E+02  0.7816164E-02  0.1300439E+00
        -11   -1    0    0    0    0  0.00000000000E+00  0.00000000000E+00  0.45593999997E+02  0.45594000000E+02  0.51100000000E-03 0.  1.
         11   -1    0    0    0    0 -0.00000000000E+00 -0.00000000000E+00 -0.45593999997E+02  0.45594000000E+02  0.51100000000E-03 0. -1.
    9900012    2    1    2    0    0 -0.13992273677E+02  0.36252014541E+02  0.11965519091E+02  0.50528856772E+02  0.29999990643E+02 0.  0.
         12    1    1    2    0    0  0.13992273677E+02 -0.36252014541E+02 -0.11965519091E+02  0.40659143228E+02  0.00000000000E+00 0. -1.
         11    1    3    3    0    0  0.53842706781E+01  0.72440155690E+01  0.82128511005E+01  0.12203157614E+02  0.51100000000E-03 0. -1.
        -11    1    3    3    0    0 -0.21721702450E+02  0.27852537923E+02  0.24537787927E+01  0.35406457839E+02  0.51100000000E-03 0.  1.
        -12    1    3    3    0    0  0.23451580949E+01  0.11554610489E+01  0.12988891981E+01  0.29192413183E+01  0.00000000000E+00 0.  1.
</event>
<event>
 7    1  0.2900470E-011  0.5052881E+02  0.7816164E-02  0.1300439E+00
        -11   -1    0    0    0    0  0.00000000000E+00  0.00000000000E+00  0.45593999997E+02  0.45594000000E+02  0.51100000000E-03 0.  1.
         11   -1    0    0    0    0 -0.00000000000E+00 -0.00000000000E+00 -0.45593999997E+02  0.45594000000E+02  0.51100000000E-03 0. -1.
    9900012    2    1    2    0    0  0.85653893911E+01 -0.26642104383E+02  0.29495803236E+02  0.50528806330E+02  0.29999837319E+02 0.  0.
         12    1    1    2    0    0 -0.85653893911E+01  0.26642104383E+02 -0.29495803236E+02  0.40659193670E+02  0.00000000000E+00 0. -1.
         11    1    3    3    0    0  0.47931223708E+01  0.11185665897E+01 -0.25301493201E+01  0.55341547792E+01  0.51100000000E-03 0. -1.
        -11    1    3    3    0    0  0.30231949363E+01 -0.22597926683E+02  0.15257659940E+02  0.27433595920E+02  0.51100000000E-03 0.  1.
        -12    1    3    3    0    0  0.74907208402E+00 -0.51627442897E+01  0.16768292616E+02  0.17561055630E+02  0.00000000000E+00 0.  1.
</event>
<event>
 7    1  0.2900470E-011  0.5052886E+02  0.7816164E-02  0.1300439E+00
        -11   -1    0    0    0    0  0.00000000000E+00  0.00000000000E+00  0.45593999997E+02  0.45594000000E+02  0.51100000000E-03 0. -1.
         11   -1    0    0    0    0 -0.00000000000E+00 -0.00000000000E+00 -0.45593999997E+02  0.45594000000E+02  0.51100000000E-03 0.  1.
    9900012    2    1    2    0    0 -0.28014464652E+02 -0.28818329751E+02 -0.61529747229E+01  0.50528862560E+02  0.30000008239E+02 0.  0.
         12    1    1    2    0    0  0.28014464652E+02  0.28818329751E+02  0.61529747229E+01  0.40659137440E+02  0.00000000000E+00 0. -1.
         11    1    3    3    0    0  0.33161073687E+01 -0.63036945981E+01  0.74066985114E+00  0.71611260117E+01  0.51100000000E-03 0. -1.
        -11    1    3    3    0    0 -0.12427018807E+02 -0.95314908545E+01 -0.12172250198E+02  0.19835417553E+02  0.51100000000E-03 0.  1.
        -12    1    3    3    0    0 -0.18903553214E+02 -0.12983144298E+02  0.52786056243E+01  0.23532318996E+02  0.00000000000E+00 0.  1.
</event>
<event>
 7    1  0.2900470E-011  0.5052879E+02  0.7816164E-02  0.1300439E+00
        -11   -1    0    0    0    0  0.00000000000E+00  0.00000000000E+00  0.45593999997E+02  0.45594000000E+02  0.51100000000E-03 0.  1.
         11   -1    0    0    0    0 -0.00000000000E+00 -0.00000000000E+00 -0.45593999997E+02  0.45594000000E+02  0.51100000000E-03 0. -1.
    9900012    2    1    2    0    0 -0.25044346299E+02  0.28389629256E+02  0.14831764096E+02  0.50528787550E+02  0.29999780236E+02 0.  0.
         12    1    1    2    0    0  0.25044346299E+02 -0.28389629256E+02 -0.14831764096E+02  0.40659212450E+02  0.00000000000E+00 0. -1.
         11    1    3    3    0    0 -0.15017568292E+02 -0.10773219045E+01 -0.11998717588E+01  0.15103895934E+02  0.51100000000E-03 0. -1.
        -11    1    3    3    0    0 -0.45968730432E+01  0.63585746859E+01  0.42764917011E+01  0.89359440096E+01  0.51100000000E-03 0.  1.
         12    1    3    3    0    0 -0.54299049642E+01  0.23108376475E+02  0.11755144154E+02  0.26488947607E+02  0.00000000000E+00 0. -1.
</event>
<event>
 7    1  0.2900470E-011  0.5052886E+02  0.7816164E-02  0.1300439E+00
        -11   -1    0    0    0    0  0.00000000000E+00  0.00000000000E+00  0.45593999997E+02  0.45594000000E+02  0.51100000000E-03 0.  1.
         11   -1    0    0    0    0 -0.00000000000E+00 -0.00000000000E+00 -0.45593999997E+02  0.45594000000E+02  0.51100000000E-03 0. -1.
    9900012    2    1    2    0    0 -0.15494821363E+02 -0.20311801601E+02  0.31630786093E+02  0.50528863238E+02  0.30000010299E+02 0.  0.
         12    1    1    2    0    0  0.15494821363E+02  0.20311801601E+02 -0.31630786093E+02  0.40659136762E+02  0.00000000000E+00 0. -1.
         11    1    3    3    0    0  0.38825397121E+01 -0.10384193848E+02  0.43332539723E+01  0.11903053672E+02  0.51100000000E-03 0. -1.
        -11    1    3    3    0    0 -0.14218312927E+02 -0.14363469131E+02  0.17727851191E+02  0.26883942718E+02  0.51100000000E-03 0.  1.
         12    1    3    3    0    0 -0.51590481478E+01  0.44358613780E+01  0.95696809300E+01  0.11741866847E+02  0.00000000000E+00 0. -1.
</event>
<event>
 7    1  0.2900470E-011  0.5052886E+02  0.7816164E-02  0.1300439E+00
        -11   -1    0    0    0    0  0.00000000000E+00  0.00000000000E+00  0.45593999997E+02  0.45594000000E+02  0.51100000000E-03 0. -1.
         11   -1    0    0    0    0 -0.00000000000E+00 -0.00000000000E+00 -0.45593999997E+02  0.45594000000E+02  0.51100000000E-03 0.  1.
    9900012    2    1    2    0    0  0.14710164433E+01  0.12485846523E+02 -0.38666593036E+02  0.50528859948E+02  0.30000000297E+02 0.  0.
         12    1    1    2    0    0 -0.14710164433E+01 -0.12485846523E+02  0.38666593036E+02  0.40659140052E+02  0.00000000000E+00 0. -1.
         11    1    3    3    0    0 -0.10305994014E+02  0.76127537569E+01 -0.27780898172E+02  0.30593231864E+02  0.51100000000E-03 0. -1.
        -11    1    3    3    0    0  0.12146909507E+02  0.68756825957E+01 -0.11173005361E+02  0.17878995240E+02  0.51100000000E-03 0.  1.
         12    1    3    3    0    0 -0.36989904976E+00 -0.20025898294E+01  0.28731049754E+00  0.20566328437E+01  0.00000000000E+00 0. -1.
</event>
<event>
 7    1  0.2900470E-011  0.5052886E+02  0.7816164E-02  0.1300439E+00
        -11   -1    0    0    0    0  0.00000000000E+00  0.00000000000E+00  0.45593999997E+02  0.45594000000E+02  0.51100000000E-03 0.  1.
         11   -1    0    0    0    0 -0.00000000000E+00 -0.00000000000E+00 -0.45593999997E+02  0.45594000000E+02  0.51100000000E-03 0. -1.
    9900012    2    1    2    0    0  0.12459610157E+02 -0.29486817302E+02  0.25068935122E+02  0.50528858494E+02  0.29999995877E+02 0.  0.
         12    1    1    2    0    0 -0.12459610157E+02  0.29486817302E+02 -0.25068935122E+02  0.40659141506E+02  0.00000000000E+00 0. -1.
         11    1    3    3    0    0  0.53631762929E+01  0.72967926798E+00  0.30075537899E+01  0.61920490828E+01  0.51100000000E-03 0. -1.
        -11    1    3    3    0    0 -0.19695644129E+01 -0.29252566261E+02  0.16176414608E+02  0.33485343162E+02  0.51100000000E-03 0.  1.
        -12    1    3    3    0    0  0.90659982772E+01 -0.96393030900E+00  0.58849667241E+01  0.10851466249E+02  0.00000000000E+00 0.  1.
</event>
<event>
 7    1  0.2900470E-011  0.5052887E+02  0.7816164E-02  0.1300439E+00
        -11   -1    0    0    0    0  0.00000000000E+00  0.00000000000E+00  0.45593999997E+02  0.45594000000E+02  0.51100000000E-03 0. -1.
         11   -1    0    0    0    0 -0.00000000000E+00 -0.00000000000E+00 -0.45593999997E+02  0.45594000000E+02  0.51100000000E-03 0.  1.
    9900012    2    1    2    0    0  0.58504488973E+01  0.11836046912E+02 -0.38455760212E+02  0.50528865082E+02  0.30000015902E+02 0.  0.
         12    1    1    2    0    0 -0.58504488973E+01 -0.11836046912E+02  0.38455760212E+02  0.40659134918E+02  0.00000000000E+00 0. -1.
         11    1    3    3    0    0 -0.49936299675E+01 -0.47924530746E+00 -0.11085954624E+01  0.51376064931E+01  0.51100000000E-03 0. -1.
        -11    1    3    3    0    0  0.15285515326E+02  0.12475006648E+02 -0.35425657281E+02  0.40549352198E+02  0.51100000000E-03 0.  1.
        -12    1    3    3    0    0 -0.44414364614E+01 -0.15971442859E+00 -0.19215074691E+01  0.48419063904E+01  0.00000000000E+00 0.  1.
</event>
<event>
 7    1  0.2900470E-011  0.5052885E+02  0.7816164E-02  0.1300439E+00
        -11   -1    0    0    0    0  0.00000000000E+00  0.00000000000E+00  0.45593999997E+02  0.45594000000E+02  0.51100000000E-03 0.  1.
         11   -1    0    0    0    0 -0.00000000000E+00 -0.00000000000E+00 -0.45593999997E+02  0.45594000000E+02  0.51100000000E-03 0. -1.
    9900012    2    1    2    0    0 -0.26290610244E+02 -0.11465269547E+02  0.28818700488E+02  0.50528854773E+02  0.29999984568E+02 0.  0.
         12    1    1    2    0    0  0.26290610244E+02  0.11465269547E+02 -0.28818700488E+02  0.40659145227E+02  0.00000000000E+00 0. -1.
         11    1    3    3    0    0 -0.26409259417E+02 -0.22116945879E+01  0.14689593886E+02  0.30300573340E+02  0.51100000000E-03 0. -1.
        -11    1    3    3    0    0  0.29085781556E+01 -0.11953552047E+00  0.88484545394E+01  0.93150020732E+01  0.51100000000E-03 0.  1.
         12    1    3    3    0    0 -0.27899289822E+01 -0.91340394383E+01  0.52806520623E+01  0.10913279360E+02  0.00000000000E+00 0. -1.
</event>
<event>
 7    1  0.2900470E-011  0.5052885E+02  0.7816164E-02  0.1300439E+00
        -11   -1    0    0    0    0  0.00000000000E+00  0.00000000000E+00  0.45593999997E+02  0.45594000000E+02  0.51100000000E-03 0.  1.
         11   -1    0    0    0    0 -0.00000000000E+00 -0.00000000000E+00 -0.45593999997E+02  0.45594000000E+02  0.51100000000E-03 0. -1.
    9900012    2    1    2    0    0 -0.38304985536E+01 -0.35309721470E+02  0.19791841115E+02  0.50528854360E+02  0.29999983313E+02 0.  0.
         12    1    1    2    0    0  0.38304985536E+01  0.35309721470E+02 -0.19791841115E+02  0.40659145640E+02  0.00000000000E+00 0. -1.
         11    1    3    3    0    0 -0.51532716330E+01 -0.37791035047E+01  0.39198282613E+01  0.74968583875E+01  0.51100000000E-03 0. -1.
        -11    1    3    3    0    0  0.90703650791E+01 -0.25625142418E+02  0.36876840016E+01  0.27432069922E+02  0.51100000000E-03 0.  1.
        -12    1    3    3    0    0 -0.77475919997E+01 -0.59054755466E+01  0.12184328852E+02  0.15599926051E+02  0.00000000000E+00 0.  1.
</event>
<event>
 7    1  0.2900470E-011  0.5052886E+02  0.7816164E-02  0.1300439E+00
        -11   -1    0    0    0    0  0.00000000000E+00  0.00000000000E+00  0.45593999997E+02  0.45594000000E+02  0.51100000000E-03 0.  1.
         11   -1    0    0    0    0 -0.00000000000E+00 -0.00000000000E+00 -0.45593999997E+02  0.45594000000E+02  0.51100000000E-03 0. -1.
    9900012    2    1    2    0    0 -0.37690726534E+01 -0.14467533805E+02  0.37810716222E+02  0.50528859523E+02  0.29999999007E+02 0.  0.
         12    1    1    2    0    0  0.37690726534E+01  0.14467533805E+02 -0.37810716222E+02  0.40659140477E+02  0.00000000000E+00 0. -1.
         11    1    3    3    0    0  0.30614707011E+01  0.35300558564E+01  0.11083668844E+02  0.12028366992E+02  0.51100000000E-03 0.  1.
        -11    1    3    3    0    0 -0.13540631257E+02 -0.15002559760E+02  0.21327790677E+02  0.29381969805E+02  0.51100000000E-03 0. -1.
         12    1    3    3    0    0  0.67100879028E+01 -0.29950299018E+01  0.53992567016E+01  0.91185227261E+01  0.00000000000E+00 0. -1.
</event>
<event>
 7    1  0.2900470E-011  0.5052887E+02  0.7816164E-02  0.1300439E+00
        -11   -1    0    0    0    0  0.00000000000E+00  0.00000000000E+00  0.45593999997E+02  0.45594000000E+02  0.51100000000E-03 0. -1.
         11   -1    0    0    0    0 -0.00000000000E+00 -0.00000000000E+00 -0.45593999997E+02  0.45594000000E+02  0.51100000000E-03 0.  1.
    9900012    2    1    2    0    0 -0.76160335450E+01 -0.19297041355E+02 -0.34968344858E+02  0.50528869241E+02  0.30000028545E+02 0.  0.
         12    1    1    2    0    0  0.76160335450E+01  0.19297041355E+02  0.34968344858E+02  0.40659130759E+02  0.00000000000E+00 0. -1.
         11    1    3    3    0    0  0.52772225537E+01 -0.13838578811E+01 -0.12950718399E+02  0.14052944454E+02  0.51100000000E-03 0. -1.
        -11    1    3    3    0    0 -0.76888139125E+01 -0.10645921808E+02 -0.46180753776E+00  0.13140273094E+02  0.51100000000E-03 0.  1.
         12    1    3    3    0    0 -0.52044421862E+01 -0.72672616657E+01 -0.21555818921E+02  0.23335651693E+02  0.00000000000E+00 0. -1.
</event>
<event>
 7    1  0.2900470E-011  0.5052886E+02  0.7816164E-02  0.1300439E+00
        -11   -1    0    0    0    0  0.00000000000E+00  0.00000000000E+00  0.45593999997E+02  0.45594000000E+02  0.51100000000E-03 0. -1.
         11   -1    0    0    0    0 -0.00000000000E+00 -0.00000000000E+00 -0.45593999997E+02  0.45594000000E+02  0.51100000000E-03 0.  1.
    9900012    2    1    2    0    0 -0.26623518724E+02 -0.27672142860E+02 -0.13364368007E+02  0.50528861151E+02  0.30000003954E+02 0.  0.
         12    1    1    2    0    0  0.26623518724E+02  0.27672142860E+02  0.13364368007E+02  0.40659138849E+02  0.00000000000E+00 0. -1.
         11    1    3    3    0    0 -0.97998439755E+01  0.14674558555E+00 -0.12533711110E+02  0.15910763359E+02  0.51100000000E-03 0. -1.
        -11    1    3    3    0    0 -0.12888750742E+02 -0.11888633625E+02  0.29454108969E+01  0.17780184217E+02  0.51100000000E-03 0.  1.
         12    1    3    3    0    0 -0.39349240064E+01 -0.15930254820E+02 -0.37760677934E+01  0.16837913575E+02  0.00000000000E+00 0. -1.
</event>
<event>
 7    1  0.2900470E-011  0.5052886E+02  0.7816164E-02  0.1300439E+00
        -11   -1    0    0    0    0  0.00000000000E+00  0.00000000000E+00  0.45593999997E+02  0.45594000000E+02  0.51100000000E-03 0.  1.
         11   -1    0    0    0    0 -0.00000000000E+00 -0.00000000000E+00 -0.45593999997E+02  0.45594000000E+02  0.51100000000E-03 0. -1.
    9900012    2    1    2    0    0  0.36822914956E+02 -0.12066336359E+02 -0.12314305592E+02  0.50528860053E+02  0.30000000618E+02 0.  0.
         12    1    1    2    0    0 -0.36822914956E+02  0.12066336359E+02  0.12314305592E+02  0.40659139947E+02  0.00000000000E+00 0. -1.
         11    1    3    3    0    0  0.11279033046E+02  0.88295521905E+01 -0.89631141616E+01  0.16897188940E+02  0.51100000000E-03 0. -1.
        -11    1    3    3    0    0  0.69166430470E+01 -0.90406926028E+01 -0.12848552436E+01  0.11455344911E+02  0.51100000000E-03 0.  1.
         12    1    3    3    0    0  0.18627238863E+02 -0.11855195947E+02 -0.20663361869E+01  0.22176326202E+02  0.00000000000E+00 0. -1.
</event>
<event>
 7    1  0.2900470E-011  0.5052883E+02  0.7816164E-02  0.1300439E+00
        -11   -1    0    0    0    0  0.00000000000E+00  0.00000000000E+00  0.45593999997E+02  0.45594000000E+02  0.51100000000E-03 0.  1.
         11   -1    0    0    0    0 -0.00000000000E+00 -0.00000000000E+00 -0.45593999997E+02  0.45594000000E+02  0.51100000000E-03 0. -1.
    9900012    2    1    2    0    0 -0.29612541870E+00  0.11628552749E+02  0.38959681417E+02  0.50528834915E+02  0.29999924206E+02 0.  0.
         12    1    1    2    0    0  0.29612541870E+00 -0.11628552749E+02 -0.38959681417E+02  0.40659165085E+02  0.00000000000E+00 0. -1.
         11    1    3    3    0    0  0.68760632749E+01  0.11643428009E+02  0.30869504243E+02  0.33701275264E+02  0.51100000000E-03 0.  1.
        -11    1    3    3    0    0 -0.92423078878E+01 -0.25898330808E+01  0.92460462032E+01  0.13327297593E+02  0.51100000000E-03 0. -1.
         12    1    3    3    0    0  0.20701191942E+01  0.25749578207E+01 -0.11558690292E+01  0.35002620572E+01  0.00000000000E+00 0. -1.
</event>
<event>
 7    1  0.2900470E-011  0.5052887E+02  0.7816164E-02  0.1300439E+00
        -11   -1    0    0    0    0  0.00000000000E+00  0.00000000000E+00  0.45593999997E+02  0.45594000000E+02  0.51100000000E-03 0. -1.
         11   -1    0    0    0    0 -0.00000000000E+00 -0.00000000000E+00 -0.45593999997E+02  0.45594000000E+02  0.51100000000E-03 0.  1.
    9900012    2    1    2    0    0  0.30367615667E+02 -0.17694670475E+02 -0.20441912810E+02  0.50528865185E+02  0.30000016217E+02 0.  0.
         12    1    1    2    0    0 -0.30367615667E+02  0.17694670475E+02  0.20441912810E+02  0.40659134815E+02  0.00000000000E+00 0. -1.
         11    1    3    3    0    0  0.20591670043E+02  0.39211790894E+01 -0.81317394741E+01  0.22483720950E+02  0.51100000000E-03 0. -1.
        -11    1    3    3    0    0  0.94642391531E+00  0.42683623361E+00 -0.17996073145E+01  0.20776174203E+01  0.51100000000E-03 0.  1.
         12    1    3    3    0    0  0.88295217090E+01 -0.22042685798E+02 -0.10510566022E+02  0.25967526815E+02  0.00000000000E+00 0. -1.
</event>
<event>
 7    1  0.2900470E-011  0.5052887E+02  0.7816164E-02  0.1300439E+00
        -11   -1    0    0    0    0  0.00000000000E+00  0.00000000000E+00  0.45593999997E+02  0.45594000000E+02  0.51100000000E-03 0. -1.
         11   -1    0    0    0    0 -0.00000000000E+00 -0.00000000000E+00 -0.45593999997E+02  0.45594000000E+02  0.51100000000E-03 0.  1.
    9900012    2    1    2    0    0  0.13385221991E+02  0.36151869437E+02 -0.12924522770E+02  0.50528866704E+02  0.30000020835E+02 0.  0.
         12    1    1    2    0    0 -0.13385221991E+02 -0.36151869437E+02  0.12924522770E+02  0.40659133296E+02  0.00000000000E+00 0. -1.
         11    1    3    3    0    0  0.56317516411E+01  0.25848921087E+02  0.56901194588E+01  0.27060317952E+02  0.51100000000E-03 0. -1.
        -11    1    3    3    0    0  0.23896499945E+01 -0.80540186816E-01 -0.48814896398E+01  0.54356099182E+01  0.51100000000E-03 0.  1.
         12    1    3    3    0    0  0.53638203556E+01  0.10383488536E+02 -0.13733152589E+02  0.18032938835E+02  0.00000000000E+00 0. -1.
</event>
<event>
 7    1  0.2900470E-011  0.5052887E+02  0.7816164E-02  0.1300439E+00
        -11   -1    0    0    0    0  0.00000000000E+00  0.00000000000E+00  0.45593999997E+02  0.45594000000E+02  0.51100000000E-03 0. -1.
         11   -1    0    0    0    0 -0.00000000000E+00 -0.00000000000E+00 -0.45593999997E+02  0.45594000000E+02  0.51100000000E-03 0.  1.
    9900012    2    1    2    0    0 -0.82660706363E+01  0.39705943651E+02 -0.28766455881E+01  0.50528868494E+02  0.30000026274E+02 0.  0.
         12    1    1    2    0    0  0.82660706363E+01 -0.39705943651E+02  0.28766455881E+01  0.40659131506E+02  0.00000000000E+00 0. -1.
         11    1    3    3    0    0 -0.85967086556E+01  0.13092099007E+02  0.10370386003E+02  0.18784338216E+02  0.51100000000E-03 0. -1.
        -11    1    3    3    0    0  0.44808646949E+01  0.88442349487E+01 -0.14615660840E+01  0.10021717214E+02  0.51100000000E-03 0.  1.
         12    1    3    3    0    0 -0.41502266756E+01  0.17769609696E+02 -0.11785465507E+02  0.21722813064E+02  0.00000000000E+00 0. -1.
</event>
<event>
 7    1  0.2900470E-011  0.5052886E+02  0.7816164E-02  0.1300439E+00
        -11   -1    0    0    0    0  0.00000000000E+00  0.00000000000E+00  0.45593999997E+02  0.45594000000E+02  0.51100000000E-03 0.  1.
         11   -1    0    0    0    0 -0.00000000000E+00 -0.00000000000E+00 -0.45593999997E+02  0.45594000000E+02  0.51100000000E-03 0. -1.
    9900012    2    1    2    0    0  0.21169620789E+02 -0.20447897885E+02  0.28051671822E+02  0.50528860016E+02  0.30000000504E+02 0.  0.
         12    1    1    2    0    0 -0.21169620789E+02  0.20447897885E+02 -0.28051671822E+02  0.40659139984E+02  0.00000000000E+00 0. -1.
         11    1    3    3    0    0 -0.34291960606E+01  0.23684392701E+01  0.73465110477E+01  0.84463077752E+01  0.51100000000E-03 0. -1.
        -11    1    3    3    0    0  0.24068275132E+02 -0.24170626708E+02  0.17019753748E+02  0.38120507357E+02  0.51100000000E-03 0.  1.
        -12    1    3    3    0    0  0.53054171787E+00  0.13542895530E+01  0.36854070261E+01  0.39620448831E+01  0.00000000000E+00 0.  1.
</event>
<event>
 7    1  0.2900470E-011  0.5052889E+02  0.7816164E-02  0.1300439E+00
        -11   -1    0    0    0    0  0.00000000000E+00  0.00000000000E+00  0.45593999997E+02  0.45594000000E+02  0.51100000000E-03 0. -1.
         11   -1    0    0    0    0 -0.00000000000E+00 -0.00000000000E+00 -0.45593999997E+02  0.45594000000E+02  0.51100000000E-03 0.  1.
    9900012    2    1    2    0    0 -0.31087765114E+01 -0.28710859056E+02 -0.28621410438E+02  0.50528892108E+02  0.30000098051E+02 0.  0.
         12    1    1    2    0    0  0.31087765114E+01  0.28710859056E+02  0.28621410438E+02  0.40659107892E+02  0.00000000000E+00 0. -1.
         11    1    3    3    0    0  0.51158592447E+01 -0.81397098645E+01 -0.74955937456E+01  0.12190603691E+02  0.51100000000E-03 0. -1.
        -11    1    3    3    0    0 -0.13454536845E+02 -0.17224216586E+02 -0.70687739628E+01  0.22970976565E+02  0.51100000000E-03 0.  1.
        -12    1    3    3    0    0  0.52299010892E+01 -0.33469326054E+01 -0.14057042729E+02  0.15367311852E+02  0.00000000000E+00 0.  1.
</event>
<event>
 7    1  0.2900470E-011  0.5052888E+02  0.7816164E-02  0.1300439E+00
        -11   -1    0    0    0    0  0.00000000000E+00  0.00000000000E+00  0.45593999997E+02  0.45594000000E+02  0.51100000000E-03 0.  1.
         11   -1    0    0    0    0 -0.00000000000E+00 -0.00000000000E+00 -0.45593999997E+02  0.45594000000E+02  0.51100000000E-03 0. -1.
    9900012    2    1    2    0    0  0.19303673480E+02 -0.90859527854E+01  0.34611811143E+02  0.50528882714E+02  0.30000069498E+02 0.  0.
         12    1    1    2    0    0 -0.19303673480E+02  0.90859527854E+01 -0.34611811143E+02  0.40659117286E+02  0.00000000000E+00 0. -1.
         11    1    3    3    0    0 -0.20700100415E+01 -0.96056578962E+01  0.14210415316E+02  0.17276848928E+02  0.51100000000E-03 0. -1.
        -11    1    3    3    0    0  0.14768260518E+02 -0.68549340471E+01  0.11446514977E+02  0.19902621558E+02  0.51100000000E-03 0.  1.
         12    1    3    3    0    0  0.66054230039E+01  0.73746391580E+01  0.89548808506E+01  0.13349412227E+02  0.00000000000E+00 0. -1.
</event>
<event>
 7    1  0.2900470E-011  0.5052886E+02  0.7816164E-02  0.1300439E+00
        -11   -1    0    0    0    0  0.00000000000E+00  0.00000000000E+00  0.45593999997E+02  0.45594000000E+02  0.51100000000E-03 0. -1.
         11   -1    0    0    0    0 -0.00000000000E+00 -0.00000000000E+00 -0.45593999997E+02  0.45594000000E+02  0.51100000000E-03 0.  1.
    9900012    2    1    2    0    0  0.22565882260E+02 -0.12399735827E+02 -0.31467334480E+02  0.50528860437E+02  0.30000001783E+02 0.  0.
         12    1    1    2    0    0 -0.22565882260E+02  0.12399735827E+02  0.31467334480E+02  0.40659139563E+02  0.00000000000E+00 0. -1.
         11    1    3    3    0    0 -0.14677017314E+01  0.59627835225E+01  0.19363058483E+00  0.61438122345E+01  0.51100000000E-03 0. -1.
        -11    1    3    3    0    0  0.12063646254E+02 -0.49829496462E+01 -0.11573560542E+02  0.17444444732E+02  0.51100000000E-03 0.  1.
         12    1    3    3    0    0  0.11969937737E+02 -0.13379569703E+02 -0.20087404523E+02  0.26940603470E+02  0.00000000000E+00 0. -1.
</event>
<event>
 7    1  0.2900470E-011  0.5052885E+02  0.7816164E-02  0.1300439E+00
        -11   -1    0    0    0    0  0.00000000000E+00  0.00000000000E+00  0.45593999997E+02  0.45594000000E+02  0.51100000000E-03 0.  1.
         11   -1    0    0    0    0 -0.00000000000E+00 -0.00000000000E+00 -0.45593999997E+02  0.45594000000E+02  0.51100000000E-03 0. -1.
    9900012    2    1    2    0    0 -0.91881444243E+01 -0.39042403864E+02 -0.66659512072E+01  0.50528853392E+02  0.29999980370E+02 0.  0.
         12    1    1    2    0    0  0.91881444243E+01  0.39042403864E+02  0.66659512072E+01  0.40659146608E+02  0.00000000000E+00 0. -1.
         11    1    3    3    0    0 -0.15658071968E+02 -0.14595451253E+02 -0.12177349534E+02  0.24627022901E+02  0.51100000000E-03 0. -1.
        -11    1    3    3    0    0  0.33886369494E+01 -0.13644824386E+02  0.26003836056E+01  0.14297765142E+02  0.51100000000E-03 0.  1.
         12    1    3    3    0    0  0.30812905945E+01 -0.10802128225E+02  0.29110147212E+01  0.11604065349E+02  0.00000000000E+00 0. -1.
</event>
<event>
 7    1  0.2900470E-011  0.5052885E+02  0.7816164E-02  0.1300439E+00
        -11   -1    0    0    0    0  0.00000000000E+00  0.00000000000E+00  0.45593999997E+02  0.45594000000E+02  0.51100000000E-03 0.  1.
         11   -1    0    0    0    0 -0.00000000000E+00 -0.00000000000E+00 -0.45593999997E+02  0.45594000000E+02  0.51100000000E-03 0. -1.
    9900012    2    1    2    0    0  0.11047179656E+02  0.97601830684E+01  0.37892809520E+02  0.50528851396E+02  0.29999974305E+02 0.  0.
         12    1    1    2    0    0 -0.11047179656E+02 -0.97601830684E+01 -0.37892809520E+02  0.40659148604E+02  0.00000000000E+00 0. -1.
         11    1    3    3    0    0  0.40354334531E+01  0.10325678910E+02  0.92906487032E+01  0.14464457186E+02  0.51100000000E-03 0. -1.
        -11    1    3    3    0    0 -0.99989875749E+00 -0.84555706080E+01  0.20520728016E+02  0.22217037391E+02  0.51100000000E-03 0.  1.
        -12    1    3    3    0    0  0.80116449599E+01  0.78900747663E+01  0.80814328001E+01  0.13847356819E+02  0.00000000000E+00 0.  1.
</event>
<event>
 7    1  0.2900470E-011  0.5052886E+02  0.7816164E-02  0.1300439E+00
        -11   -1    0    0    0    0  0.00000000000E+00  0.00000000000E+00  0.45593999997E+02  0.45594000000E+02  0.51100000000E-03 0.  1.
         11   -1    0    0    0    0 -0.00000000000E+00 -0.00000000000E+00 -0.45593999997E+02  0.45594000000E+02  0.51100000000E-03 0. -1.
    9900012    2    1    2    0    0 -0.64718725921E+01 -0.39004880348E+02 -0.94815517671E+01  0.50528860195E+02  0.30000001048E+02 0.  0.
         12    1    1    2    0    0  0.64718725921E+01  0.39004880348E+02  0.94815517671E+01  0.40659139805E+02  0.00000000000E+00 0. -1.
         11    1    3    3    0    0 -0.13467782272E+02 -0.27810737884E+02 -0.78728886507E+01  0.31887312162E+02  0.51100000000E-03 0. -1.
        -11    1    3    3    0    0  0.85963953676E+01 -0.16190796190E+01 -0.18042664400E+01  0.89316745225E+01  0.51100000000E-03 0.  1.
        -12    1    3    3    0    0 -0.16004856874E+01 -0.95750628449E+01  0.19560332357E+00  0.97098735100E+01  0.00000000000E+00 0.  1.
</event>
<event>
 7    1  0.2900470E-011  0.5052886E+02  0.7816164E-02  0.1300439E+00
        -11   -1    0    0    0    0  0.00000000000E+00  0.00000000000E+00  0.45593999997E+02  0.45594000000E+02  0.51100000000E-03 0. -1.
         11   -1    0    0    0    0 -0.00000000000E+00 -0.00000000000E+00 -0.45593999997E+02  0.45594000000E+02  0.51100000000E-03 0.  1.
    9900012    2    1    2    0    0  0.29390251045E+02 -0.26916160841E+02  0.80560213833E+01  0.50528855254E+02  0.29999986030E+02 0.  0.
         12    1    1    2    0    0 -0.29390251045E+02  0.26916160841E+02 -0.80560213833E+01  0.40659144746E+02  0.00000000000E+00 0. -1.
         11    1    3    3    0    0  0.95271003239E+01  0.31658000545E+01  0.21794142524E+01  0.10273158098E+02  0.51100000000E-03 0. -1.
        -11    1    3    3    0    0  0.21966680549E+02 -0.24009137876E+02  0.16904373132E+01  0.32585753550E+02  0.51100000000E-03 0.  1.
        -12    1    3    3    0    0 -0.21035298274E+01 -0.60728230199E+01  0.41861698177E+01  0.76699436053E+01  0.00000000000E+00 0.  1.
</event>
<event>
 7    1  0.2900470E-011  0.5052886E+02  0.7816164E-02  0.1300439E+00
        -11   -1    0    0    0    0  0.00000000000E+00  0.00000000000E+00  0.45593999997E+02  0.45594000000E+02  0.51100000000E-03 0.  1.
         11   -1    0    0    0    0 -0.00000000000E+00 -0.00000000000E+00 -0.45593999997E+02  0.45594000000E+02  0.51100000000E-03 0. -1.
    9900012    2    1    2    0    0 -0.31088642280E+02 -0.12388149130E+02  0.23091037706E+02  0.50528856625E+02  0.29999990197E+02 0.  0.
         12    1    1    2    0    0  0.31088642280E+02  0.12388149130E+02 -0.23091037706E+02  0.40659143375E+02  0.00000000000E+00 0. -1.
         11    1    3    3    0    0 -0.18348294873E+02 -0.18920922200E+02  0.92413756407E+01  0.27929630245E+02  0.51100000000E-03 0. -1.
        -11    1    3    3    0    0 -0.35237000852E-01  0.25548225041E+01  0.73551462907E+01  0.77863044438E+01  0.51100000000E-03 0.  1.
         12    1    3    3    0    0 -0.12705110406E+02  0.39779505660E+01  0.64945157750E+01  0.14812921936E+02  0.00000000000E+00 0. -1.
</event>
<event>
 7    1  0.2900470E-011  0.5052885E+02  0.7816164E-02  0.1300439E+00
        -11   -1    0    0    0    0  0.00000000000E+00  0.00000000000E+00  0.45593999997E+02  0.45594000000E+02  0.51100000000E-03 0. -1.
         11   -1    0    0    0    0 -0.00000000000E+00 -0.00000000000E+00 -0.45593999997E+02  0.45594000000E+02  0.51100000000E-03 0.  1.
    9900012    2    1    2    0    0 -0.27458421593E+02 -0.10508991810E+02 -0.28084925243E+02  0.50528845420E+02  0.29999956139E+02 0.  0.
         12    1    1    2    0    0  0.27458421593E+02  0.10508991810E+02  0.28084925243E+02  0.40659154580E+02  0.00000000000E+00 0. -1.
         11    1    3    3    0    0  0.82906390561E+00 -0.11015109962E+02 -0.14165052924E+02  0.17962981908E+02  0.51100000000E-03 0. -1.
        -11    1    3    3    0    0 -0.22784399683E+02  0.11178965825E+01 -0.14450322770E+02  0.27003525513E+02  0.51100000000E-03 0.  1.
         12    1    3    3    0    0 -0.55030858154E+01 -0.61177843084E+00  0.53045045103E+00  0.55623379996E+01  0.00000000000E+00 0. -1.
</event>
<event>
 7    1  0.2900470E-011  0.5052886E+02  0.7816164E-02  0.1300439E+00
        -11   -1    0    0    0    0  0.00000000000E+00  0.00000000000E+00  0.45593999997E+02  0.45594000000E+02  0.51100000000E-03 0.  1.
         11   -1    0    0    0    0 -0.00000000000E+00 -0.00000000000E+00 -0.45593999997E+02  0.45594000000E+02  0.51100000000E-03 0. -1.
    9900012    2    1    2    0    0  0.16109246014E+02  0.20730294966E+02  0.31046948346E+02  0.50528856648E+02  0.29999990267E+02 0.  0.
         12    1    1    2    0    0 -0.16109246014E+02 -0.20730294966E+02 -0.31046948346E+02  0.40659143352E+02  0.00000000000E+00 0. -1.
         11    1    3    3    0    0 -0.20676626095E+01  0.85027050917E+01  0.53837457114E+01  0.10274042081E+02  0.51100000000E-03 0. -1.
        -11    1    3    3    0    0  0.96799986611E+01  0.41140377370E+01  0.26465508081E+02  0.28478953612E+02  0.51100000000E-03 0.  1.
        -12    1    3    3    0    0  0.84969099619E+01  0.81135521373E+01 -0.80230544643E+00  0.11775860954E+02  0.00000000000E+00 0.  1.
</event>
<event>
 7    1  0.2900470E-011  0.5052887E+02  0.7816164E-02  0.1300439E+00
        -11   -1    0    0    0    0  0.00000000000E+00  0.00000000000E+00  0.45593999997E+02  0.45594000000E+02  0.51100000000E-03 0.  1.
         11   -1    0    0    0    0 -0.00000000000E+00 -0.00000000000E+00 -0.45593999997E+02  0.45594000000E+02  0.51100000000E-03 0. -1.
    9900012    2    1    2    0    0 -0.38240397412E+02  0.87081013960E+01  0.10724059555E+02  0.50528874610E+02  0.30000044864E+02 0.  0.
         12    1    1    2    0    0  0.38240397412E+02 -0.87081013960E+01 -0.10724059555E+02  0.40659125390E+02  0.00000000000E+00 0. -1.
         11    1    3    3    0    0 -0.49964518945E+01  0.64480265328E+01 -0.32916384682E+00  0.81639406417E+01  0.51100000000E-03 0. -1.
        -11    1    3    3    0    0 -0.25596407394E+02 -0.81636624721E+01  0.11952416197E+02  0.29405470744E+02  0.51100000000E-03 0.  1.
        -12    1    3    3    0    0 -0.76475381233E+01  0.10423737335E+02 -0.89919279480E+00  0.12959463224E+02  0.00000000000E+00 0.  1.
</event>
<event>
 7    1  0.2900470E-011  0.5052886E+02  0.7816164E-02  0.1300439E+00
        -11   -1    0    0    0    0  0.00000000000E+00  0.00000000000E+00  0.45593999997E+02  0.45594000000E+02  0.51100000000E-03 0. -1.
         11   -1    0    0    0    0 -0.00000000000E+00 -0.00000000000E+00 -0.45593999997E+02  0.45594000000E+02  0.51100000000E-03 0.  1.
    9900012    2    1    2    0    0  0.37994599359E-01 -0.97737974238E+00 -0.40647373749E+02  0.50528859485E+02  0.29999998891E+02 0.  0.
         12    1    1    2    0    0 -0.37994599359E-01  0.97737974238E+00  0.40647373749E+02  0.40659140515E+02  0.00000000000E+00 0. -1.
         11    1    3    3    0    0 -0.18007582309E+01 -0.96418466331E+01 -0.16513705692E+01  0.99466055375E+01  0.51100000000E-03 0. -1.
        -11    1    3    3    0    0 -0.24009523897E+01  0.51885407323E+01 -0.18288209195E+02  0.19161005275E+02  0.51100000000E-03 0.  1.
         12    1    3    3    0    0  0.42397052199E+01  0.34759261583E+01 -0.20707793984E+02  0.21421248673E+02  0.00000000000E+00 0. -1.
</event>
<event>
 7    1  0.2900470E-011  0.5052887E+02  0.7816164E-02  0.1300439E+00
        -11   -1    0    0    0    0  0.00000000000E+00  0.00000000000E+00  0.45593999997E+02  0.45594000000E+02  0.51100000000E-03 0.  1.
         11   -1    0    0    0    0 -0.00000000000E+00 -0.00000000000E+00 -0.45593999997E+02  0.45594000000E+02  0.51100000000E-03 0. -1.
    9900012    2    1    2    0    0  0.24349960336E+01 -0.14396199635E+02  0.37947140359E+02  0.50528865344E+02  0.30000016698E+02 0.  0.
         12    1    1    2    0    0 -0.24349960336E+01  0.14396199635E+02 -0.37947140359E+02  0.40659134656E+02  0.00000000000E+00 0. -1.
         11    1    3    3    0    0  0.81923216163E+01  0.41310236016E+01  0.31462891948E+01  0.96994136637E+01  0.51100000000E-03 0. -1.
        -11    1    3    3    0    0 -0.74394169547E+01 -0.10660720043E+02  0.18015983044E+02  0.22216469606E+02  0.51100000000E-03 0.  1.
         12    1    3    3    0    0  0.16820913720E+01 -0.78665031938E+01  0.16784868120E+02  0.18612982074E+02  0.00000000000E+00 0. -1.
</event>
<event>
 7    1  0.2900470E-011  0.5052887E+02  0.7816164E-02  0.1300439E+00
        -11   -1    0    0    0    0  0.00000000000E+00  0.00000000000E+00  0.45593999997E+02  0.45594000000E+02  0.51100000000E-03 0. -1.
         11   -1    0    0    0    0 -0.00000000000E+00 -0.00000000000E+00 -0.45593999997E+02  0.45594000000E+02  0.51100000000E-03 0.  1.
    9900012    2    1    2    0    0 -0.32224308382E+02  0.19260415522E+02 -0.15613933362E+02  0.50528873450E+02  0.30000041338E+02 0.  0.
         12    1    1    2    0    0  0.32224308382E+02 -0.19260415522E+02  0.15613933362E+02  0.40659126550E+02  0.00000000000E+00 0. -1.
         11    1    3    3    0    0  0.47819565672E+01  0.48065052532E+01  0.43347663176E+00  0.67939313811E+01  0.51100000000E-03 0. -1.
        -11    1    3    3    0    0 -0.28003123336E+02  0.13626531512E+02 -0.15200785932E+02  0.34654309556E+02  0.51100000000E-03 0.  1.
         12    1    3    3    0    0 -0.90031416137E+01  0.82737875739E+00 -0.84662406116E+00  0.90806325124E+01  0.00000000000E+00 0. -1.
</event>
<event>
 7    1  0.2900470E-011  0.5052890E+02  0.7816164E-02  0.1300439E+00
        -11   -1    0    0    0    0  0.00000000000E+00  0.00000000000E+00  0.45593999997E+02  0.45594000000E+02  0.51100000000E-03 0. -1.
         11   -1    0    0    0    0 -0.00000000000E+00 -0.00000000000E+00 -0.45593999997E+02  0.45594000000E+02  0.51100000000E-03 0.  1.
    9900012    2    1    2    0    0  0.38357033467E+02  0.20169658286E+01 -0.13335384124E+02  0.50528897240E+02  0.30000113649E+02 0.  0.
         12    1    1    2    0    0 -0.38357033467E+02 -0.20169658286E+01  0.13335384124E+02  0.40659102760E+02  0.00000000000E+00 0. -1.
         11    1    3    3    0    0  0.75932576886E+01 -0.33402989432E+01 -0.45037373530E+01  0.94392165862E+01  0.51100000000E-03 0. -1.
        -11    1    3    3    0    0  0.92191794147E+01  0.13834813048E+02 -0.10259580426E+01  0.16656767733E+02  0.51100000000E-03 0.  1.
        -12    1    3    3    0    0  0.21544596364E+02 -0.84775482758E+01 -0.78056887287E+01  0.24432912920E+02  0.00000000000E+00 0.  1.
</event>
<event>
 7    1  0.2900470E-011  0.5052886E+02  0.7816164E-02  0.1300439E+00
        -11   -1    0    0    0    0  0.00000000000E+00  0.00000000000E+00  0.45593999997E+02  0.45594000000E+02  0.51100000000E-03 0. -1.
         11   -1    0    0    0    0 -0.00000000000E+00 -0.00000000000E+00 -0.45593999997E+02  0.45594000000E+02  0.51100000000E-03 0.  1.
    9900012    2    1    2    0    0  0.34829285962E+02  0.20900317472E+02  0.18063440589E+01  0.50528864373E+02  0.30000013749E+02 0.  0.
         12    1    1    2    0    0 -0.34829285962E+02 -0.20900317472E+02 -0.18063440589E+01  0.40659135627E+02  0.00000000000E+00 0. -1.
         11    1    3    3    0    0  0.10108929652E+02  0.14535051910E+02  0.13589139751E+01  0.17756825172E+02  0.51100000000E-03 0. -1.
        -11    1    3    3    0    0  0.27229420854E+02  0.24718519991E+01 -0.22124945517E+01  0.27430759100E+02  0.51100000000E-03 0.  1.
        -12    1    3    3    0    0 -0.25090645447E+01  0.38934135630E+01  0.26599246355E+01  0.53412801021E+01  0.00000000000E+00 0.  1.
</event>
<event>
 7    1  0.2900470E-011  0.5052887E+02  0.7816164E-02  0.1300439E+00
        -11   -1    0    0    0    0  0.00000000000E+00  0.00000000000E+00  0.45593999997E+02  0.45594000000E+02  0.51100000000E-03 0.  1.
         11   -1    0    0    0    0 -0.00000000000E+00 -0.00000000000E+00 -0.45593999997E+02  0.45594000000E+02  0.51100000000E-03 0. -1.
    9900012    2    1    2    0    0 -0.16986742093E+01  0.19323720437E+02  0.35733363011E+02  0.50528869443E+02  0.30000029159E+02 0.  0.
         12    1    1    2    0    0  0.16986742093E+01 -0.19323720437E+02 -0.35733363011E+02  0.40659130557E+02  0.00000000000E+00 0. -1.
         11    1    3    3    0    0 -0.77033687061E+01  0.13385830148E+02  0.41543996433E+01  0.15993166504E+02  0.51100000000E-03 0. -1.
        -11    1    3    3    0    0  0.89773637389E+01  0.57389963162E+01  0.21045802567E+02  0.23589297242E+02  0.51100000000E-03 0.  1.
        -12    1    3    3    0    0 -0.29726692420E+01  0.19889397289E+00  0.10533160800E+02  0.10946405697E+02  0.00000000000E+00 0.  1.
</event>
<event>
 7    1  0.2900470E-011  0.5052887E+02  0.7816164E-02  0.1300439E+00
        -11   -1    0    0    0    0  0.00000000000E+00  0.00000000000E+00  0.45593999997E+02  0.45594000000E+02  0.51100000000E-03 0.  1.
         11   -1    0    0    0    0 -0.00000000000E+00 -0.00000000000E+00 -0.45593999997E+02  0.45594000000E+02  0.51100000000E-03 0. -1.
    9900012    2    1    2    0    0 -0.31383945661E+02 -0.24588025200E+02 -0.79775718050E+01  0.50528872115E+02  0.30000037280E+02 0.  0.
         12    1    1    2    0    0  0.31383945661E+02  0.24588025200E+02  0.79775718050E+01  0.40659127885E+02  0.00000000000E+00 0. -1.
         11    1    3    3    0    0  0.20206297841E+01 -0.48375259991E+00  0.21189279664E+01  0.29676282264E+01  0.51100000000E-03 0. -1.
        -11    1    3    3    0    0 -0.33144956095E+02 -0.20430765926E+02 -0.23770979092E+01  0.39008395322E+02  0.51100000000E-03 0.  1.
        -12    1    3    3    0    0 -0.25961934972E+00 -0.36735066734E+01 -0.77194018621E+01  0.85528485661E+01  0.00000000000E+00 0.  1.
</event>
<event>
 7    1  0.2900470E-011  0.5052886E+02  0.7816164E-02  0.1300439E+00
        -11   -1    0    0    0    0  0.00000000000E+00  0.00000000000E+00  0.45593999997E+02  0.45594000000E+02  0.51100000000E-03 0.  1.
         11   -1    0    0    0    0 -0.00000000000E+00 -0.00000000000E+00 -0.45593999997E+02  0.45594000000E+02  0.51100000000E-03 0. -1.
    9900012    2    1    2    0    0  0.84295198204E+01 -0.39494896780E+02  0.47182788584E+01  0.50528857960E+02  0.29999994255E+02 0.  0.
         12    1    1    2    0    0 -0.84295198204E+01  0.39494896780E+02 -0.47182788584E+01  0.40659142040E+02  0.00000000000E+00 0. -1.
         11    1    3    3    0    0  0.14351237965E+02 -0.24312316225E+02 -0.35574497926E+01  0.28455266659E+02  0.51100000000E-03 0.  1.
        -11    1    3    3    0    0 -0.51209852322E+01  0.65191044697E-01  0.29040567432E+01  0.58874685095E+01  0.51100000000E-03 0. -1.
        -12    1    3    3    0    0 -0.80073291206E+00 -0.15247771600E+02  0.53716719077E+01  0.16186122792E+02  0.00000000000E+00 0.  1.
</event>
<event>
 7    1  0.2900470E-011  0.5052885E+02  0.7816164E-02  0.1300439E+00
        -11   -1    0    0    0    0  0.00000000000E+00  0.00000000000E+00  0.45593999997E+02  0.45594000000E+02  0.51100000000E-03 0.  1.
         11   -1    0    0    0    0 -0.00000000000E+00 -0.00000000000E+00 -0.45593999997E+02  0.45594000000E+02  0.51100000000E-03 0. -1.
    9900012    2    1    2    0    0 -0.22933150123E+02 -0.74792940179E+01  0.32730673113E+02  0.50528853722E+02  0.29999981375E+02 0.  0.
         12    1    1    2    0    0  0.22933150123E+02  0.74792940179E+01 -0.32730673113E+02  0.40659146278E+02  0.00000000000E+00 0. -1.
         11    1    3    3    0    0 -0.73885769166E+01  0.11145231374E+02  0.80363175068E+01  0.15600950309E+02  0.51100000000E-03 0. -1.
        -11    1    3    3    0    0 -0.77850275249E+01 -0.82937673374E+01  0.14733496845E+02  0.18613682058E+02  0.51100000000E-03 0.  1.
         12    1    3    3    0    0 -0.77595456819E+01 -0.10330758054E+02  0.99608587608E+01  0.16314221355E+02  0.00000000000E+00 0. -1.
</event>
<event>
 7    1  0.2900470E-011  0.5052886E+02  0.7816164E-02  0.1300439E+00
        -11   -1    0    0    0    0  0.00000000000E+00  0.00000000000E+00  0.45593999997E+02  0.45594000000E+02  0.51100000000E-03 0.  1.
         11   -1    0    0    0    0 -0.00000000000E+00 -0.00000000000E+00 -0.45593999997E+02  0.45594000000E+02  0.51100000000E-03 0. -1.
    9900012    2    1    2    0    0  0.11162890430E+02 -0.12158121666E+02  0.37158255575E+02  0.50528855855E+02  0.29999987858E+02 0.  0.
         12    1    1    2    0    0 -0.11162890430E+02  0.12158121666E+02 -0.37158255575E+02  0.40659144145E+02  0.00000000000E+00 0. -1.
         11    1    3    3    0    0  0.87163240416E+01 -0.13511053874E+01  0.36380834389E+02  0.37434808690E+02  0.51100000000E-03 0. -1.
        -11    1    3    3    0    0  0.35487971779E+01 -0.54875617192E+01  0.30421044938E+01  0.72084460908E+01  0.51100000000E-03 0.  1.
         12    1    3    3    0    0 -0.11022307894E+01 -0.53194545590E+01 -0.22646833082E+01  0.58856010742E+01  0.00000000000E+00 0. -1.
</event>
<event>
 7    1  0.2900470E-011  0.5052891E+02  0.7816164E-02  0.1300439E+00
        -11   -1    0    0    0    0  0.00000000000E+00  0.00000000000E+00  0.45593999997E+02  0.45594000000E+02  0.51100000000E-03 0.  1.
         11   -1    0    0    0    0 -0.00000000000E+00 -0.00000000000E+00 -0.45593999997E+02  0.45594000000E+02  0.51100000000E-03 0. -1.
    9900012    2    1    2    0    0 -0.12461414628E+02  0.30685291774E+02  0.23585751746E+02  0.50528909119E+02  0.30000149759E+02 0.  0.
         12    1    1    2    0    0  0.12461414628E+02 -0.30685291774E+02 -0.23585751746E+02  0.40659090881E+02  0.00000000000E+00 0. -1.
         11    1    3    3    0    0  0.41760833604E+01  0.17300042128E+02  0.69633384420E+01  0.19110709364E+02  0.51100000000E-03 0. -1.
        -11    1    3    3    0    0 -0.14803144220E+02  0.16953755394E+02  0.15210228120E+02  0.27164571421E+02  0.51100000000E-03 0.  1.
        -12    1    3    3    0    0 -0.18343537684E+01 -0.35685057475E+01  0.14121851841E+01  0.42536283350E+01  0.00000000000E+00 0.  1.
</event>
<event>
 7    1  0.2900470E-011  0.5052888E+02  0.7816164E-02  0.1300439E+00
        -11   -1    0    0    0    0  0.00000000000E+00  0.00000000000E+00  0.45593999997E+02  0.45594000000E+02  0.51100000000E-03 0. -1.
         11   -1    0    0    0    0 -0.00000000000E+00 -0.00000000000E+00 -0.45593999997E+02  0.45594000000E+02  0.51100000000E-03 0.  1.
    9900012    2    1    2    0    0 -0.12205843503E+02  0.61797734743E+01 -0.38288276108E+02  0.50528876754E+02  0.30000051381E+02 0.  0.
         12    1    1    2    0    0  0.12205843503E+02 -0.61797734743E+01  0.38288276108E+02  0.40659123246E+02  0.00000000000E+00 0. -1.
         11    1    3    3    0    0  0.77584127459E+01  0.28810266336E+01 -0.93620236996E+01  0.12495630069E+02  0.51100000000E-03 0. -1.
        -11    1    3    3    0    0 -0.16234449738E+02  0.84623149634E+01 -0.22063527132E+02  0.28669973188E+02  0.51100000000E-03 0.  1.
        -12    1    3    3    0    0 -0.37298065111E+01 -0.51635681228E+01 -0.68627252764E+01  0.93632734974E+01  0.00000000000E+00 0.  1.
</event>
<event>
 7    1  0.2900470E-011  0.5052886E+02  0.7816164E-02  0.1300439E+00
        -11   -1    0    0    0    0  0.00000000000E+00  0.00000000000E+00  0.45593999997E+02  0.45594000000E+02  0.51100000000E-03 0.  1.
         11   -1    0    0    0    0 -0.00000000000E+00 -0.00000000000E+00 -0.45593999997E+02  0.45594000000E+02  0.51100000000E-03 0. -1.
    9900012    2    1    2    0    0 -0.12004675322E+02 -0.38108662306E+02  0.75354548589E+01  0.50528862623E+02  0.30000008428E+02 0.  0.
         12    1    1    2    0    0  0.12004675322E+02  0.38108662306E+02 -0.75354548589E+01  0.40659137377E+02  0.00000000000E+00 0. -1.
         11    1    3    3    0    0 -0.38149457278E+01  0.28913209930E+01  0.69916729923E-01  0.47873203988E+01  0.51100000000E-03 0. -1.
        -11    1    3    3    0    0 -0.35611244626E+01 -0.37708075412E+02  0.21093735933E+01  0.37934549106E+02  0.51100000000E-03 0.  1.
        -12    1    3    3    0    0 -0.46286051314E+01 -0.32919078876E+01  0.53561645357E+01  0.78069931174E+01  0.00000000000E+00 0.  1.
</event>
<event>
 7    1  0.2900470E-011  0.5052883E+02  0.7816164E-02  0.1300439E+00
        -11   -1    0    0    0    0  0.00000000000E+00  0.00000000000E+00  0.45593999997E+02  0.45594000000E+02  0.51100000000E-03 0.  1.
         11   -1    0    0    0    0 -0.00000000000E+00 -0.00000000000E+00 -0.45593999997E+02  0.45594000000E+02  0.51100000000E-03 0. -1.
    9900012    2    1    2    0    0 -0.23652738127E+02  0.25616948634E+02  0.20916218970E+02  0.50528827674E+02  0.29999902197E+02 0.  0.
         12    1    1    2    0    0  0.23652738127E+02 -0.25616948634E+02 -0.20916218970E+02  0.40659172326E+02  0.00000000000E+00 0. -1.
         11    1    3    3    0    0 -0.15066429224E+02  0.21632867514E+02  0.67703064032E+00  0.26371132270E+02  0.51100000000E-03 0. -1.
        -11    1    3    3    0    0 -0.94757334191E+00  0.18584651254E+01  0.13762558459E+02  0.13919763053E+02  0.51100000000E-03 0.  1.
         12    1    3    3    0    0 -0.76387355610E+01  0.21256159951E+01  0.64766298712E+01  0.10237932351E+02  0.00000000000E+00 0. -1.
</event>
<event>
 7    1  0.2900470E-011  0.5052885E+02  0.7816164E-02  0.1300439E+00
        -11   -1    0    0    0    0  0.00000000000E+00  0.00000000000E+00  0.45593999997E+02  0.45594000000E+02  0.51100000000E-03 0. -1.
         11   -1    0    0    0    0 -0.00000000000E+00 -0.00000000000E+00 -0.45593999997E+02  0.45594000000E+02  0.51100000000E-03 0.  1.
    9900012    2    1    2    0    0 -0.19796486075E+01  0.37033451891E+02 -0.16666451884E+02  0.50528853600E+02  0.29999981002E+02 0.  0.
         12    1    1    2    0    0  0.19796486075E+01 -0.37033451891E+02  0.16666451884E+02  0.40659146400E+02  0.00000000000E+00 0. -1.
         11    1    3    3    0    0 -0.58049980791E+01 -0.14507322015E+01  0.23755898041E+01  0.64378609645E+01  0.51100000000E-03 0. -1.
        -11    1    3    3    0    0  0.35994972298E+01  0.18769603360E+02 -0.14142939835E+02  0.23775557576E+02  0.51100000000E-03 0.  1.
         12    1    3    3    0    0  0.22585224186E+00  0.19714580733E+02 -0.48991018527E+01  0.20315435060E+02  0.00000000000E+00 0. -1.
</event>
<event>
 7    1  0.2900470E-011  0.5052886E+02  0.7816164E-02  0.1300439E+00
        -11   -1    0    0    0    0  0.00000000000E+00  0.00000000000E+00  0.45593999997E+02  0.45594000000E+02  0.51100000000E-03 0.  1.
         11   -1    0    0    0    0 -0.00000000000E+00 -0.00000000000E+00 -0.45593999997E+02  0.45594000000E+02  0.51100000000E-03 0. -1.
    9900012    2    1    2    0    0  0.30184334154E+02 -0.16872462942E+02  0.21386714958E+02  0.50528860674E+02  0.30000002505E+02 0.  0.
         12    1    1    2    0    0 -0.30184334154E+02  0.16872462942E+02 -0.21386714958E+02  0.40659139326E+02  0.00000000000E+00 0. -1.
         11    1    3    3    0    0  0.78633986304E+01 -0.11158063257E+01  0.17707280296E+01  0.81371702571E+01  0.51100000000E-03 0. -1.
        -11    1    3    3    0    0  0.61897140393E+01 -0.14225995529E+02  0.21022228612E+02  0.26127104791E+02  0.51100000000E-03 0.  1.
        -12    1    3    3    0    0  0.16131221484E+02 -0.15306610876E+01 -0.14062416834E+01  0.16264585626E+02  0.00000000000E+00 0.  1.
</event>
<event>
 7    1  0.2900470E-011  0.5052886E+02  0.7816164E-02  0.1300439E+00
        -11   -1    0    0    0    0  0.00000000000E+00  0.00000000000E+00  0.45593999997E+02  0.45594000000E+02  0.51100000000E-03 0.  1.
         11   -1    0    0    0    0 -0.00000000000E+00 -0.00000000000E+00 -0.45593999997E+02  0.45594000000E+02  0.51100000000E-03 0. -1.
    9900012    2    1    2    0    0  0.15793102661E+02 -0.11547960639E+02  0.35642501992E+02  0.50528862837E+02  0.30000009079E+02 0.  0.
         12    1    1    2    0    0 -0.15793102661E+02  0.11547960639E+02 -0.35642501992E+02  0.40659137163E+02  0.00000000000E+00 0. -1.
         11    1    3    3    0    0 -0.16021994636E+00  0.44076844814E+00 -0.36733735593E+01  0.37031906275E+01  0.51100000000E-03 0. -1.
        -11    1    3    3    0    0  0.12811650590E+02  0.11700182888E+00  0.17665321763E+02  0.21822366359E+02  0.51100000000E-03 0.  1.
         12    1    3    3    0    0  0.31416720174E+01 -0.12105730916E+02  0.21650553789E+02  0.25003305850E+02  0.00000000000E+00 0. -1.
</event>
<event>
 7    1  0.2900470E-011  0.5052884E+02  0.7816164E-02  0.1300439E+00
        -11   -1    0    0    0    0  0.00000000000E+00  0.00000000000E+00  0.45593999997E+02  0.45594000000E+02  0.51100000000E-03 0.  1.
         11   -1    0    0    0    0 -0.00000000000E+00 -0.00000000000E+00 -0.45593999997E+02  0.45594000000E+02  0.51100000000E-03 0. -1.
    9900012    2    1    2    0    0 -0.35708280607E+02 -0.18494956091E+02  0.60018752110E+01  0.50528840998E+02  0.29999942697E+02 0.  0.
         12    1    1    2    0    0  0.35708280607E+02  0.18494956091E+02 -0.60018752110E+01  0.40659159002E+02  0.00000000000E+00 0. -1.
         11    1    3    3    0    0 -0.27445448227E+02 -0.20134482467E+02  0.61625792440E+01  0.34592302551E+02  0.51100000000E-03 0. -1.
        -11    1    3    3    0    0  0.16174590216E+01  0.51552446654E+01  0.51575015953E+00  0.54275887588E+01  0.51100000000E-03 0.  1.
        -12    1    3    3    0    0 -0.98802914018E+01 -0.35157182894E+01 -0.67645419259E+00  0.10508949688E+02  0.00000000000E+00 0.  1.
</event>
<event>
 7    1  0.2900470E-011  0.5052888E+02  0.7816164E-02  0.1300439E+00
        -11   -1    0    0    0    0  0.00000000000E+00  0.00000000000E+00  0.45593999997E+02  0.45594000000E+02  0.51100000000E-03 0. -1.
         11   -1    0    0    0    0 -0.00000000000E+00 -0.00000000000E+00 -0.45593999997E+02  0.45594000000E+02  0.51100000000E-03 0.  1.
    9900012    2    1    2    0    0 -0.13797852007E+02 -0.15559988656E+02 -0.34938093850E+02  0.50528875946E+02  0.30000048925E+02 0.  0.
         12    1    1    2    0    0  0.13797852007E+02  0.15559988656E+02  0.34938093850E+02  0.40659124054E+02  0.00000000000E+00 0. -1.
         11    1    3    3    0    0 -0.17435841337E+01  0.28598955318E+01 -0.95574882885E+01  0.10127421722E+02  0.51100000000E-03 0. -1.
        -11    1    3    3    0    0 -0.13504886209E+02 -0.20940685996E+02 -0.13846856058E+02  0.28506660703E+02  0.51100000000E-03 0.  1.
        -12    1    3    3    0    0  0.14506183353E+01  0.25208018082E+01 -0.11533749503E+02  0.11894793521E+02  0.00000000000E+00 0.  1.
</event>
<event>
 7    1  0.2900470E-011  0.5052887E+02  0.7816164E-02  0.1300439E+00
        -11   -1    0    0    0    0  0.00000000000E+00  0.00000000000E+00  0.45593999997E+02  0.45594000000E+02  0.51100000000E-03 0.  1.
         11   -1    0    0    0    0 -0.00000000000E+00 -0.00000000000E+00 -0.45593999997E+02  0.45594000000E+02  0.51100000000E-03 0. -1.
    9900012    2    1    2    0    0 -0.33020005897E+02 -0.14419850774E+02  0.18839099853E+02  0.50528873484E+02  0.30000041441E+02 0.  0.
         12    1    1    2    0    0  0.33020005897E+02  0.14419850774E+02 -0.18839099853E+02  0.40659126516E+02  0.00000000000E+00 0. -1.
         11    1    3    3    0    0 -0.42692475440E+01 -0.53246165658E+01 -0.47247156573E+01  0.83006598814E+01  0.51100000000E-03 0. -1.
        -11    1    3    3    0    0 -0.27634525285E+02 -0.57018355444E+01  0.12982181908E+02  0.31059860973E+02  0.51100000000E-03 0.  1.
         12    1    3    3    0    0 -0.11162330677E+01 -0.33933986642E+01  0.10581633603E+02  0.11168352629E+02  0.00000000000E+00 0. -1.
</event>
<event>
 7    1  0.2900470E-011  0.5052886E+02  0.7816164E-02  0.1300439E+00
        -11   -1    0    0    0    0  0.00000000000E+00  0.00000000000E+00  0.45593999997E+02  0.45594000000E+02  0.51100000000E-03 0. -1.
         11   -1    0    0    0    0 -0.00000000000E+00 -0.00000000000E+00 -0.45593999997E+02  0.45594000000E+02  0.51100000000E-03 0.  1.
    9900012    2    1    2    0    0 -0.12308673182E+02  0.30107842359E+02 -0.24396311424E+02  0.50528860584E+02  0.30000002230E+02 0.  0.
         12    1    1    2    0    0  0.12308673182E+02 -0.30107842359E+02  0.24396311424E+02  0.40659139416E+02  0.00000000000E+00 0. -1.
         11    1    3    3    0    0 -0.40312338633E+00  0.96680314645E+00 -0.14015009123E+02  0.14054098967E+02  0.51100000000E-03 0. -1.
        -11    1    3    3    0    0 -0.53944153561E+01  0.21091436102E+02 -0.13555662261E+02  0.25645747668E+02  0.51100000000E-03 0.  1.
         12    1    3    3    0    0 -0.65111344395E+01  0.80496031107E+01  0.31743599611E+01  0.10829013948E+02  0.00000000000E+00 0. -1.
</event>
<event>
 7    1  0.2900470E-011  0.5052884E+02  0.7816164E-02  0.1300439E+00
        -11   -1    0    0    0    0  0.00000000000E+00  0.00000000000E+00  0.45593999997E+02  0.45594000000E+02  0.51100000000E-03 0. -1.
         11   -1    0    0    0    0 -0.00000000000E+00 -0.00000000000E+00 -0.45593999997E+02  0.45594000000E+02  0.51100000000E-03 0.  1.
    9900012    2    1    2    0    0  0.25725125057E+01  0.40555960548E+02  0.13278723796E+01  0.50528843570E+02  0.29999950515E+02 0.  0.
         12    1    1    2    0    0 -0.25725125057E+01 -0.40555960548E+02 -0.13278723796E+01  0.40659156430E+02  0.00000000000E+00 0. -1.
         11    1    3    3    0    0 -0.13274803317E+01  0.13351085757E+02  0.10935382256E+02  0.17308849767E+02  0.51100000000E-03 0. -1.
        -11    1    3    3    0    0  0.58162676269E+01  0.24316423911E+02 -0.13161968698E+02  0.28255174061E+02  0.51100000000E-03 0.  1.
        -12    1    3    3    0    0 -0.19162747895E+01  0.28884508795E+01  0.35544588213E+01  0.49648197414E+01  0.00000000000E+00 0.  1.
</event>
<event>
 7    1  0.2900470E-011  0.5052886E+02  0.7816164E-02  0.1300439E+00
        -11   -1    0    0    0    0  0.00000000000E+00  0.00000000000E+00  0.45593999997E+02  0.45594000000E+02  0.51100000000E-03 0.  1.
         11   -1    0    0    0    0 -0.00000000000E+00 -0.00000000000E+00 -0.45593999997E+02  0.45594000000E+02  0.51100000000E-03 0. -1.
    9900012    2    1    2    0    0  0.27605451701E+02  0.65682133146E+01  0.29119811273E+02  0.50528858367E+02  0.29999995492E+02 0.  0.
         12    1    1    2    0    0 -0.27605451701E+02 -0.65682133146E+01 -0.29119811273E+02  0.40659141633E+02  0.00000000000E+00 0. -1.
         11    1    3    3    0    0  0.74416663362E+01 -0.62554711638E+01  0.24442856572E+01  0.10024163306E+02  0.51100000000E-03 0. -1.
        -11    1    3    3    0    0  0.50737358714E+00  0.84412448370E+01  0.15017469821E+02  0.17234745210E+02  0.51100000000E-03 0.  1.
        -12    1    3    3    0    0  0.19656411777E+02  0.43824396414E+01  0.11658055795E+02  0.23269949852E+02  0.00000000000E+00 0.  1.
</event>
<event>
 7    1  0.2900470E-011  0.5052886E+02  0.7816164E-02  0.1300439E+00
        -11   -1    0    0    0    0  0.00000000000E+00  0.00000000000E+00  0.45593999997E+02  0.45594000000E+02  0.51100000000E-03 0. -1.
         11   -1    0    0    0    0 -0.00000000000E+00 -0.00000000000E+00 -0.45593999997E+02  0.45594000000E+02  0.51100000000E-03 0.  1.
    9900012    2    1    2    0    0  0.98561065610E+01 -0.39035403782E+02 -0.56798074164E+01  0.50528858380E+02  0.29999995533E+02 0.  0.
         12    1    1    2    0    0 -0.98561065610E+01  0.39035403782E+02  0.56798074164E+01  0.40659141620E+02  0.00000000000E+00 0. -1.
         11    1    3    3    0    0  0.14441642232E+02 -0.62025116902E+01 -0.48469098457E+01  0.16447635603E+02  0.51100000000E-03 0. -1.
        -11    1    3    3    0    0 -0.28794251974E+01 -0.46055409063E+01  0.16941795663E+01  0.56896696891E+01  0.51100000000E-03 0.  1.
         12    1    3    3    0    0 -0.17061104734E+01 -0.28227351186E+02 -0.25270771370E+01  0.28391553088E+02  0.00000000000E+00 0. -1.
</event>
<event>
 7    1  0.2900470E-011  0.5052887E+02  0.7816164E-02  0.1300439E+00
        -11   -1    0    0    0    0  0.00000000000E+00  0.00000000000E+00  0.45593999997E+02  0.45594000000E+02  0.51100000000E-03 0. -1.
         11   -1    0    0    0    0 -0.00000000000E+00 -0.00000000000E+00 -0.45593999997E+02  0.45594000000E+02  0.51100000000E-03 0.  1.
    9900012    2    1    2    0    0 -0.27677381285E+02 -0.25767552238E+02 -0.14938553578E+02  0.50528873520E+02  0.30000041550E+02 0.  0.
         12    1    1    2    0    0  0.27677381285E+02  0.25767552238E+02  0.14938553578E+02  0.40659126480E+02  0.00000000000E+00 0. -1.
         11    1    3    3    0    0 -0.13165756601E+01  0.21645902189E+01 -0.31742968820E+01  0.40614016350E+01  0.51100000000E-03 0. -1.
        -11    1    3    3    0    0 -0.68822467974E+01 -0.22870992908E+02 -0.16432587118E+01  0.23940508287E+02  0.51100000000E-03 0.  1.
        -12    1    3    3    0    0 -0.19478558827E+02 -0.50611495494E+01 -0.10120997985E+02  0.22526963598E+02  0.00000000000E+00 0.  1.
</event>
<event>
 7    1  0.2900470E-011  0.5052886E+02  0.7816164E-02  0.1300439E+00
        -11   -1    0    0    0    0  0.00000000000E+00  0.00000000000E+00  0.45593999997E+02  0.45594000000E+02  0.51100000000E-03 0. -1.
         11   -1    0    0    0    0 -0.00000000000E+00 -0.00000000000E+00 -0.45593999997E+02  0.45594000000E+02  0.51100000000E-03 0.  1.
    9900012    2    1    2    0    0 -0.24971508333E+02 -0.35139710436E+01 -0.31894224240E+02  0.50528858829E+02  0.29999996896E+02 0.  0.
         12    1    1    2    0    0  0.24971508333E+02  0.35139710436E+01  0.31894224240E+02  0.40659141171E+02  0.00000000000E+00 0. -1.
         11    1    3    3    0    0  0.17305490672E+01 -0.32152969977E+01 -0.12872231856E+02  0.13380107925E+02  0.51100000000E-03 0. -1.
        -11    1    3    3    0    0 -0.18644559800E+02  0.74664159297E+01 -0.85682426472E+01  0.21835332818E+02  0.51100000000E-03 0.  1.
        -12    1    3    3    0    0 -0.80574976004E+01 -0.77650899756E+01 -0.10453749737E+02  0.15313418086E+02  0.00000000000E+00 0.  1.
</event>
<event>
 7    1  0.2900470E-011  0.5052885E+02  0.7816164E-02  0.1300439E+00
        -11   -1    0    0    0    0  0.00000000000E+00  0.00000000000E+00  0.45593999997E+02  0.45594000000E+02  0.51100000000E-03 0. -1.
         11   -1    0    0    0    0 -0.00000000000E+00 -0.00000000000E+00 -0.45593999997E+02  0.45594000000E+02  0.51100000000E-03 0.  1.
    9900012    2    1    2    0    0  0.25749970809E+02  0.90056611157E+01 -0.30149679039E+02  0.50528854965E+02  0.29999985152E+02 0.  0.
         12    1    1    2    0    0 -0.25749970809E+02 -0.90056611157E+01  0.30149679039E+02  0.40659145035E+02  0.00000000000E+00 0. -1.
         11    1    3    3    0    0  0.12867444394E+02 -0.60246583703E+01 -0.70494323755E+01  0.15860710286E+02  0.51100000000E-03 0. -1.
        -11    1    3    3    0    0  0.11924031966E+02  0.14980954563E+02 -0.25612788971E+02  0.31978531816E+02  0.51100000000E-03 0.  1.
         12    1    3    3    0    0  0.95849444933E+00  0.49364923229E-01  0.25125423078E+01  0.26896128631E+01  0.00000000000E+00 0. -1.
</event>
<event>
 7    1  0.2900470E-011  0.5052886E+02  0.7816164E-02  0.1300439E+00
        -11   -1    0    0    0    0  0.00000000000E+00  0.00000000000E+00  0.45593999997E+02  0.45594000000E+02  0.51100000000E-03 0. -1.
         11   -1    0    0    0    0 -0.00000000000E+00 -0.00000000000E+00 -0.45593999997E+02  0.45594000000E+02  0.51100000000E-03 0.  1.
    9900012    2    1    2    0    0 -0.39275822547E+02 -0.89381839057E+01 -0.55393504827E+01  0.50528858690E+02  0.29999996475E+02 0.  0.
         12    1    1    2    0    0  0.39275822547E+02  0.89381839057E+01  0.55393504827E+01  0.40659141310E+02  0.00000000000E+00 0. -1.
         11    1    3    3    0    0 -0.76675733207E+01 -0.46639728631E+01  0.62484241210E-01  0.89748664635E+01  0.51100000000E-03 0. -1.
        -11    1    3    3    0    0 -0.82401791990E+01  0.95197355944E+01 -0.69564013217E+01  0.14384625078E+02  0.51100000000E-03 0.  1.
        -12    1    3    3    0    0 -0.23368070027E+02 -0.13793946637E+02  0.13545665978E+01  0.27169367149E+02  0.00000000000E+00 0.  1.
</event>
<event>
 7    1  0.2900470E-011  0.5052886E+02  0.7816164E-02  0.1300439E+00
        -11   -1    0    0    0    0  0.00000000000E+00  0.00000000000E+00  0.45593999997E+02  0.45594000000E+02  0.51100000000E-03 0. -1.
         11   -1    0    0    0    0 -0.00000000000E+00 -0.00000000000E+00 -0.45593999997E+02  0.45594000000E+02  0.51100000000E-03 0.  1.
    9900012    2    1    2    0    0 -0.27795356631E+02  0.63072152695E+01 -0.28996596139E+02  0.50528863237E+02  0.30000010294E+02 0.  0.
         12    1    1    2    0    0  0.27795356631E+02 -0.63072152695E+01  0.28996596139E+02  0.40659136763E+02  0.00000000000E+00 0. -1.
         11    1    3    3    0    0 -0.13976897932E+02  0.75155917552E+01 -0.21786856560E+01  0.16018254171E+02  0.51100000000E-03 0. -1.
        -11    1    3    3    0    0 -0.16988678306E+02 -0.27695993522E+01 -0.25443361709E+02  0.30718895268E+02  0.51100000000E-03 0.  1.
         12    1    3    3    0    0  0.31702196069E+01  0.15612228666E+01 -0.13745487743E+01  0.37917137983E+01  0.00000000000E+00 0. -1.
</event>
<event>
 7    1  0.2900470E-011  0.5052885E+02  0.7816164E-02  0.1300439E+00
        -11   -1    0    0    0    0  0.00000000000E+00  0.00000000000E+00  0.45593999997E+02  0.45594000000E+02  0.51100000000E-03 0. -1.
         11   -1    0    0    0    0 -0.00000000000E+00 -0.00000000000E+00 -0.45593999997E+02  0.45594000000E+02  0.51100000000E-03 0.  1.
    9900012    2    1    2    0    0 -0.17513630920E+02  0.26336718418E+01 -0.36599217053E+02  0.50528853621E+02  0.29999981066E+02 0.  0.
         12    1    1    2    0    0  0.17513630920E+02 -0.26336718418E+01  0.36599217053E+02  0.40659146379E+02  0.00000000000E+00 0. -1.
         11    1    3    3    0    0  0.49666018506E+00 -0.37113991129E+00 -0.75055522663E+01  0.75311175303E+01  0.51100000000E-03 0. -1.
        -11    1    3    3    0    0 -0.18819683401E+02  0.12162914703E+02 -0.21792866765E+02  0.31257735354E+02  0.51100000000E-03 0.  1.
        -12    1    3    3    0    0  0.80939229629E+00 -0.91581029498E+01 -0.73007980222E+01  0.11740000736E+02  0.00000000000E+00 0.  1.
</event>
<event>
 7    1  0.2900470E-011  0.5052881E+02  0.7816164E-02  0.1300439E+00
        -11   -1    0    0    0    0  0.00000000000E+00  0.00000000000E+00  0.45593999997E+02  0.45594000000E+02  0.51100000000E-03 0. -1.
         11   -1    0    0    0    0 -0.00000000000E+00 -0.00000000000E+00 -0.45593999997E+02  0.45594000000E+02  0.51100000000E-03 0.  1.
    9900012    2    1    2    0    0 -0.27377417779E+02  0.23951409300E+02 -0.18165263115E+02  0.50528809209E+02  0.29999846073E+02 0.  0.
         12    1    1    2    0    0  0.27377417779E+02 -0.23951409300E+02  0.18165263115E+02  0.40659190791E+02  0.00000000000E+00 0. -1.
         11    1    3    3    0    0  0.45216758210E+01 -0.10577724269E+01 -0.31858136779E+01  0.56315045759E+01  0.51100000000E-03 0. -1.
        -11    1    3    3    0    0 -0.22022769640E+02  0.11493253713E+02 -0.13009855943E+02  0.28041997352E+02  0.51100000000E-03 0.  1.
         12    1    3    3    0    0 -0.98763239600E+01  0.13515928014E+02 -0.19695934936E+01  0.16855307282E+02  0.00000000000E+00 0. -1.
</event>
<event>
 7    1  0.2900470E-011  0.5052886E+02  0.7816164E-02  0.1300439E+00
        -11   -1    0    0    0    0  0.00000000000E+00  0.00000000000E+00  0.45593999997E+02  0.45594000000E+02  0.51100000000E-03 0. -1.
         11   -1    0    0    0    0 -0.00000000000E+00 -0.00000000000E+00 -0.45593999997E+02  0.45594000000E+02  0.51100000000E-03 0.  1.
    9900012    2    1    2    0    0  0.21762631807E+02  0.34341519411E+02  0.46246172963E+00  0.50528856262E+02  0.29999989095E+02 0.  0.
         12    1    1    2    0    0 -0.21762631807E+02 -0.34341519411E+02 -0.46246172963E+00  0.40659143738E+02  0.00000000000E+00 0. -1.
         11    1    3    3    0    0  0.46331216669E+00  0.15812811786E+02  0.14510420050E+01  0.15886006354E+02  0.51100000000E-03 0. -1.
        -11    1    3    3    0    0  0.24775492542E+02  0.18859219932E+02 -0.92194098632E+00  0.31150364084E+02  0.51100000000E-03 0.  1.
        -12    1    3    3    0    0 -0.34761729024E+01 -0.33051230599E+00 -0.66639289056E-01  0.34924858234E+01  0.00000000000E+00 0.  1.
</event>
<event>
 7    1  0.2900470E-011  0.5052886E+02  0.7816164E-02  0.1300439E+00
        -11   -1    0    0    0    0  0.00000000000E+00  0.00000000000E+00  0.45593999997E+02  0.45594000000E+02  0.51100000000E-03 0.  1.
         11   -1    0    0    0    0 -0.00000000000E+00 -0.00000000000E+00 -0.45593999997E+02  0.45594000000E+02  0.51100000000E-03 0. -1.
    9900012    2    1    2    0    0  0.28541095812E+01 -0.13853906169E+02  0.38119402057E+02  0.50528862395E+02  0.30000007734E+02 0.  0.
         12    1    1    2    0    0 -0.28541095812E+01  0.13853906169E+02 -0.38119402057E+02  0.40659137605E+02  0.00000000000E+00 0. -1.
         11    1    3    3    0    0  0.75315225865E+01 -0.14193288382E+02  0.27584446962E+02  0.31922953842E+02  0.51100000000E-03 0. -1.
        -11    1    3    3    0    0 -0.81719871544E+01 -0.42581802376E+01  0.45066315165E+01  0.10257836072E+02  0.51100000000E-03 0.  1.
        -12    1    3    3    0    0  0.34945741491E+01  0.45975624506E+01  0.60283235788E+01  0.83480724806E+01  0.00000000000E+00 0.  1.
</event>
<event>
 7    1  0.2900470E-011  0.5052886E+02  0.7816164E-02  0.1300439E+00
        -11   -1    0    0    0    0  0.00000000000E+00  0.00000000000E+00  0.45593999997E+02  0.45594000000E+02  0.51100000000E-03 0. -1.
         11   -1    0    0    0    0 -0.00000000000E+00 -0.00000000000E+00 -0.45593999997E+02  0.45594000000E+02  0.51100000000E-03 0.  1.
    9900012    2    1    2    0    0 -0.34110255888E+02 -0.18503448674E+02 -0.12135824571E+02  0.50528863172E+02  0.30000010099E+02 0.  0.
         12    1    1    2    0    0  0.34110255888E+02  0.18503448674E+02  0.12135824571E+02  0.40659136828E+02  0.00000000000E+00 0. -1.
         11    1    3    3    0    0  0.16511505149E+00  0.24112169331E+01 -0.80387826466E+01  0.83942394998E+01  0.51100000000E-03 0. -1.
        -11    1    3    3    0    0 -0.26432742509E+02 -0.20612144421E+02 -0.60159510557E+01  0.34054985561E+02  0.51100000000E-03 0.  1.
         12    1    3    3    0    0 -0.78426284304E+01 -0.30252118564E+00  0.19189091313E+01  0.80796381119E+01  0.00000000000E+00 0. -1.
</event>
<event>
 7    1  0.2900470E-011  0.5052885E+02  0.7816164E-02  0.1300439E+00
        -11   -1    0    0    0    0  0.00000000000E+00  0.00000000000E+00  0.45593999997E+02  0.45594000000E+02  0.51100000000E-03 0. -1.
         11   -1    0    0    0    0 -0.00000000000E+00 -0.00000000000E+00 -0.45593999997E+02  0.45594000000E+02  0.51100000000E-03 0.  1.
    9900012    2    1    2    0    0  0.76464533161E+00 -0.37483033489E+02 -0.15735445418E+02  0.50528846977E+02  0.29999960872E+02 0.  0.
         12    1    1    2    0    0 -0.76464533161E+00  0.37483033489E+02  0.15735445418E+02  0.40659153023E+02  0.00000000000E+00 0. -1.
         11    1    3    3    0    0  0.11616332168E+02 -0.13268313980E+02  0.24909666886E+01  0.17809891752E+02  0.51100000000E-03 0. -1.
        -11    1    3    3    0    0 -0.55834509895E+01 -0.11150139123E+02 -0.12039155583E+02  0.17333256902E+02  0.51100000000E-03 0.  1.
         12    1    3    3    0    0 -0.52682358467E+01 -0.13064580386E+02 -0.61872565234E+01  0.15385698323E+02  0.00000000000E+00 0. -1.
</event>
<event>
 7    1  0.2911388E-011  0.5052886E+02  0.7816164E-02  0.1300439E+00
        -11   -1    0    0    0    0  0.00000000000E+00  0.00000000000E+00  0.45593999997E+02  0.45594000000E+02  0.51100000000E-03 0. -1.
         11   -1    0    0    0    0 -0.00000000000E+00 -0.00000000000E+00 -0.45593999997E+02  0.45594000000E+02  0.51100000000E-03 0.  1.
    9900012    2    1    2    0    0  0.10303498868E+02  0.30694401890E+01 -0.39212012645E+02  0.50528862187E+02  0.30000007104E+02 0.  0.
         12    1    1    2    0    0 -0.10303498868E+02 -0.30694401890E+01  0.39212012645E+02  0.40659137813E+02  0.00000000000E+00 0. -1.
         11    1    3    3    0    0  0.32357780932E+01 -0.13974540097E+01  0.13255771412E+01  0.37656729274E+01  0.51100000000E-03 0. -1.
        -11    1    3    3    0    0  0.27240312419E+01  0.13081045991E+02 -0.27171938843E+02  0.30279504144E+02  0.51100000000E-03 0.  1.
        -12    1    3    3    0    0  0.43436895329E+01 -0.86141517927E+01 -0.13365650943E+02  0.16483685116E+02  0.00000000000E+00 0.  1.
</event>
<event>
 7    1  0.2900470E-011  0.5052888E+02  0.7816164E-02  0.1300439E+00
        -11   -1    0    0    0    0  0.00000000000E+00  0.00000000000E+00  0.45593999997E+02  0.45594000000E+02  0.51100000000E-03 0. -1.
         11   -1    0    0    0    0 -0.00000000000E+00 -0.00000000000E+00 -0.45593999997E+02  0.45594000000E+02  0.51100000000E-03 0.  1.
    9900012    2    1    2    0    0  0.14680347376E+01  0.30200042291E+02 -0.27183942783E+02  0.50528875248E+02  0.30000046803E+02 0.  0.
         12    1    1    2    0    0 -0.14680347376E+01 -0.30200042291E+02  0.27183942783E+02  0.40659124752E+02  0.00000000000E+00 0. -1.
         11    1    3    3    0    0 -0.60623113700E+01  0.20874864946E+01 -0.16500211353E+02  0.17702152241E+02  0.51100000000E-03 0. -1.
        -11    1    3    3    0    0  0.27784473226E+01  0.24263983611E+02 -0.10815927151E+02  0.26710390312E+02  0.51100000000E-03 0.  1.
         12    1    3    3    0    0  0.47518987850E+01  0.38485721853E+01  0.13219572080E+00  0.61163326951E+01  0.00000000000E+00 0. -1.
</event>
<event>
 7    1  0.2900470E-011  0.5052886E+02  0.7816164E-02  0.1300439E+00
        -11   -1    0    0    0    0  0.00000000000E+00  0.00000000000E+00  0.45593999997E+02  0.45594000000E+02  0.51100000000E-03 0.  1.
         11   -1    0    0    0    0 -0.00000000000E+00 -0.00000000000E+00 -0.45593999997E+02  0.45594000000E+02  0.51100000000E-03 0. -1.
    9900012    2    1    2    0    0  0.26424050115E+02 -0.74218004402E+01  0.29997534516E+02  0.50528860519E+02  0.30000002034E+02 0.  0.
         12    1    1    2    0    0 -0.26424050115E+02  0.74218004402E+01 -0.29997534516E+02  0.40659139481E+02  0.00000000000E+00 0. -1.
         11    1    3    3    0    0 -0.14312675587E+00 -0.12549203323E+02  0.54743007265E+01  0.13692003433E+02  0.51100000000E-03 0. -1.
        -11    1    3    3    0    0  0.11594228907E+02  0.80194744047E+00  0.13108403421E+02  0.17518547433E+02  0.51100000000E-03 0.  1.
         12    1    3    3    0    0  0.14972947964E+02  0.43254554422E+01  0.11414830368E+02  0.19318309653E+02  0.00000000000E+00 0. -1.
</event>
<event>
 7    1  0.2900470E-011  0.5052886E+02  0.7816164E-02  0.1300439E+00
        -11   -1    0    0    0    0  0.00000000000E+00  0.00000000000E+00  0.45593999997E+02  0.45594000000E+02  0.51100000000E-03 0.  1.
         11   -1    0    0    0    0 -0.00000000000E+00 -0.00000000000E+00 -0.45593999997E+02  0.45594000000E+02  0.51100000000E-03 0. -1.
    9900012    2    1    2    0    0 -0.57464536175E+01 -0.36199446862E+02 -0.17599536524E+02  0.50528863657E+02  0.30000011573E+02 0.  0.
         12    1    1    2    0    0  0.57464536175E+01  0.36199446862E+02  0.17599536524E+02  0.40659136343E+02  0.00000000000E+00 0. -1.
         11    1    3    3    0    0 -0.84208033124E+01 -0.27402090891E+02 -0.18312462466E+02  0.34016625280E+02  0.51100000000E-03 0. -1.
        -11    1    3    3    0    0  0.94499838710E+00  0.37295813613E+01  0.19344269324E-01  0.38474892519E+01  0.51100000000E-03 0.  1.
         12    1    3    3    0    0  0.17293513078E+01 -0.12526937332E+02  0.69358167257E+00  0.12664749125E+02  0.00000000000E+00 0. -1.
</event>
<event>
 7    1  0.2900470E-011  0.5052886E+02  0.7816164E-02  0.1300439E+00
        -11   -1    0    0    0    0  0.00000000000E+00  0.00000000000E+00  0.45593999997E+02  0.45594000000E+02  0.51100000000E-03 0. -1.
         11   -1    0    0    0    0 -0.00000000000E+00 -0.00000000000E+00 -0.45593999997E+02  0.45594000000E+02  0.51100000000E-03 0.  1.
    9900012    2    1    2    0    0 -0.26098524608E+02 -0.15422323937E+02 -0.27095837904E+02  0.50528862109E+02  0.30000006865E+02 0.  0.
         12    1    1    2    0    0  0.26098524608E+02  0.15422323937E+02  0.27095837904E+02  0.40659137891E+02  0.00000000000E+00 0. -1.
         11    1    3    3    0    0  0.31029861731E+01 -0.50692317034E+00 -0.91927223056E+01  0.97155359059E+01  0.51100000000E-03 0. -1.
        -11    1    3    3    0    0 -0.18371337607E+02 -0.14797743691E+01 -0.45255614012E+01  0.18978316150E+02  0.51100000000E-03 0.  1.
         12    1    3    3    0    0 -0.10830173174E+02 -0.13435626398E+02 -0.13377554198E+02  0.21835010053E+02  0.00000000000E+00 0. -1.
</event>
<event>
 7    1  0.2900470E-011  0.5052887E+02  0.7816164E-02  0.1300439E+00
        -11   -1    0    0    0    0  0.00000000000E+00  0.00000000000E+00  0.45593999997E+02  0.45594000000E+02  0.51100000000E-03 0. -1.
         11   -1    0    0    0    0 -0.00000000000E+00 -0.00000000000E+00 -0.45593999997E+02  0.45594000000E+02  0.51100000000E-03 0.  1.
    9900012    2    1    2    0    0  0.21880235319E+02 -0.18336549876E+02 -0.28951533062E+02  0.50528867869E+02  0.30000024375E+02 0.  0.
         12    1    1    2    0    0 -0.21880235319E+02  0.18336549876E+02  0.28951533062E+02  0.40659132131E+02  0.00000000000E+00 0. -1.
         11    1    3    3    0    0 -0.42176250448E+01 -0.17617075287E+01 -0.89025413084E+01  0.10007358115E+02  0.51100000000E-03 0. -1.
        -11    1    3    3    0    0  0.26617002680E+02 -0.12118953356E+02 -0.20911795664E+02  0.35953262165E+02  0.51100000000E-03 0.  1.
         12    1    3    3    0    0 -0.51914231632E+00 -0.44558889917E+01  0.86280391041E+00  0.45682475895E+01  0.00000000000E+00 0. -1.
</event>
<event>
 7    1  0.2900470E-011  0.5052886E+02  0.7816164E-02  0.1300439E+00
        -11   -1    0    0    0    0  0.00000000000E+00  0.00000000000E+00  0.45593999997E+02  0.45594000000E+02  0.51100000000E-03 0.  1.
         11   -1    0    0    0    0 -0.00000000000E+00 -0.00000000000E+00 -0.45593999997E+02  0.45594000000E+02  0.51100000000E-03 0. -1.
    9900012    2    1    2    0    0  0.58770762265E+01 -0.74820432253E+01  0.39530297355E+02  0.50528863207E+02  0.30000010204E+02 0.  0.
         12    1    1    2    0    0 -0.58770762265E+01  0.74820432253E+01 -0.39530297355E+02  0.40659136793E+02  0.00000000000E+00 0. -1.
         11    1    3    3    0    0  0.15438197326E+01 -0.51476346074E+01 -0.18856376121E+01  0.56953622258E+01  0.51100000000E-03 0. -1.
        -11    1    3    3    0    0 -0.39413894336E+01  0.35915024046E+01  0.24650165266E+02  0.25220311023E+02  0.51100000000E-03 0.  1.
        -12    1    3    3    0    0  0.82746459274E+01 -0.59259110225E+01  0.16765769701E+02  0.19613189958E+02  0.00000000000E+00 0.  1.
</event>
<event>
 7    1  0.2900470E-011  0.5052886E+02  0.7816164E-02  0.1300439E+00
        -11   -1    0    0    0    0  0.00000000000E+00  0.00000000000E+00  0.45593999997E+02  0.45594000000E+02  0.51100000000E-03 0.  1.
         11   -1    0    0    0    0 -0.00000000000E+00 -0.00000000000E+00 -0.45593999997E+02  0.45594000000E+02  0.51100000000E-03 0. -1.
    9900012    2    1    2    0    0 -0.18917116978E+02 -0.24010856484E+02  0.26810206178E+02  0.50528859587E+02  0.29999999199E+02 0.  0.
         12    1    1    2    0    0  0.18917116978E+02  0.24010856484E+02 -0.26810206178E+02  0.40659140413E+02  0.00000000000E+00 0. -1.
         11    1    3    3    0    0 -0.16640764302E+02 -0.27195463994E+02  0.18837488255E+02  0.37031868201E+02  0.51100000000E-03 0. -1.
        -11    1    3    3    0    0 -0.21812322587E+01 -0.33868707242E+01  0.45840564299E+01  0.61026421395E+01  0.51100000000E-03 0.  1.
         12    1    3    3    0    0 -0.95120417572E-01  0.65714782338E+01  0.33886614922E+01  0.73943492465E+01  0.00000000000E+00 0. -1.
</event>
<event>
 7    1  0.2900470E-011  0.5052885E+02  0.7816164E-02  0.1300439E+00
        -11   -1    0    0    0    0  0.00000000000E+00  0.00000000000E+00  0.45593999997E+02  0.45594000000E+02  0.51100000000E-03 0.  1.
         11   -1    0    0    0    0 -0.00000000000E+00 -0.00000000000E+00 -0.45593999997E+02  0.45594000000E+02  0.51100000000E-03 0. -1.
    9900012    2    1    2    0    0 -0.94507814589E+01 -0.34935479862E+02  0.18530017374E+02  0.50528848911E+02  0.29999966751E+02 0.  0.
         12    1    1    2    0    0  0.94507814589E+01  0.34935479862E+02 -0.18530017374E+02  0.40659151089E+02  0.00000000000E+00 0. -1.
         11    1    3    3    0    0 -0.84295473658E+01 -0.33644566111E+01 -0.21932678733E+00  0.90788182921E+01  0.51100000000E-03 0. -1.
        -11    1    3    3    0    0 -0.95338473319E+00 -0.17795275523E+02  0.20944787385E+02  0.27500270767E+02  0.51100000000E-03 0.  1.
        -12    1    3    3    0    0 -0.67849359926E-01 -0.13775747727E+02 -0.21954432234E+01  0.13949759852E+02  0.00000000000E+00 0.  1.
</event>
<event>
 7    1  0.2900470E-011  0.5052887E+02  0.7816164E-02  0.1300439E+00
        -11   -1    0    0    0    0  0.00000000000E+00  0.00000000000E+00  0.45593999997E+02  0.45594000000E+02  0.51100000000E-03 0.  1.
         11   -1    0    0    0    0 -0.00000000000E+00 -0.00000000000E+00 -0.45593999997E+02  0.45594000000E+02  0.51100000000E-03 0. -1.
    9900012    2    1    2    0    0  0.35149134468E+02 -0.17448514133E+02  0.10642032579E+02  0.50528866257E+02  0.30000019474E+02 0.  0.
         12    1    1    2    0    0 -0.35149134468E+02  0.17448514133E+02 -0.10642032579E+02  0.40659133743E+02  0.00000000000E+00 0. -1.
         11    1    3    3    0    0  0.55163573224E+01 -0.90740579253E+01 -0.78985335273E+01  0.13234634770E+02  0.51100000000E-03 0. -1.
        -11    1    3    3    0    0  0.98980413208E+01 -0.66533360510E+01  0.10587144073E+02  0.15947593000E+02  0.51100000000E-03 0.  1.
         12    1    3    3    0    0  0.19734735825E+02 -0.17211201571E+01  0.79534220336E+01  0.21346638488E+02  0.00000000000E+00 0. -1.
</event>
<event>
 7    1  0.2900470E-011  0.5052887E+02  0.7816164E-02  0.1300439E+00
        -11   -1    0    0    0    0  0.00000000000E+00  0.00000000000E+00  0.45593999997E+02  0.45594000000E+02  0.51100000000E-03 0.  1.
         11   -1    0    0    0    0 -0.00000000000E+00 -0.00000000000E+00 -0.45593999997E+02  0.45594000000E+02  0.51100000000E-03 0. -1.
    9900012    2    1    2    0    0 -0.14244814429E+01  0.38628748425E+02  0.12607762621E+02  0.50528867808E+02  0.30000024190E+02 0.  0.
         12    1    1    2    0    0  0.14244814429E+01 -0.38628748425E+02 -0.12607762621E+02  0.40659132192E+02  0.00000000000E+00 0. -1.
         11    1    3    3    0    0  0.72382752047E+01  0.13836499732E+02 -0.38990287311E+01  0.16094837001E+02  0.51100000000E-03 0. -1.
        -11    1    3    3    0    0 -0.78709810640E+01  0.21883105108E+02  0.19377774317E+02  0.30270790704E+02  0.51100000000E-03 0.  1.
         12    1    3    3    0    0 -0.79177558360E+00  0.29091435849E+01 -0.28709829655E+01  0.41632401036E+01  0.00000000000E+00 0. -1.
</event>
<event>
 7    1  0.2900470E-011  0.5052877E+02  0.7816164E-02  0.1300439E+00
        -11   -1    0    0    0    0  0.00000000000E+00  0.00000000000E+00  0.45593999997E+02  0.45594000000E+02  0.51100000000E-03 0.  1.
         11   -1    0    0    0    0 -0.00000000000E+00 -0.00000000000E+00 -0.45593999997E+02  0.45594000000E+02  0.51100000000E-03 0. -1.
    9900012    2    1    2    0    0 -0.13079453655E+02 -0.32548148027E+02  0.20560129738E+02  0.50528770018E+02  0.29999726945E+02 0.  0.
         12    1    1    2    0    0  0.13079453655E+02  0.32548148027E+02 -0.20560129738E+02  0.40659229982E+02  0.00000000000E+00 0. -1.
         11    1    3    3    0    0 -0.92306551160E+01 -0.49898845038E+01  0.12524980129E+01  0.10567530117E+02  0.51100000000E-03 0. -1.
        -11    1    3    3    0    0  0.73126904278E+01 -0.19004456227E+02  0.14873843160E+02  0.25216582012E+02  0.51100000000E-03 0.  1.
        -12    1    3    3    0    0 -0.11161488967E+02 -0.85538072964E+01  0.44337885651E+01  0.14744657889E+02  0.00000000000E+00 0.  1.
</event>
<event>
 7    1  0.2900470E-011  0.5052886E+02  0.7816164E-02  0.1300439E+00
        -11   -1    0    0    0    0  0.00000000000E+00  0.00000000000E+00  0.45593999997E+02  0.45594000000E+02  0.51100000000E-03 0. -1.
         11   -1    0    0    0    0 -0.00000000000E+00 -0.00000000000E+00 -0.45593999997E+02  0.45594000000E+02  0.51100000000E-03 0.  1.
    9900012    2    1    2    0    0 -0.63698807616E+01  0.15701259703E+02 -0.36960262377E+02  0.50528856721E+02  0.29999990489E+02 0.  0.
         12    1    1    2    0    0  0.63698807616E+01 -0.15701259703E+02  0.36960262377E+02  0.40659143279E+02  0.00000000000E+00 0. -1.
         11    1    3    3    0    0 -0.26856606290E+01 -0.55329224508E+01 -0.82795598943E+00  0.62057646782E+01  0.51100000000E-03 0. -1.
        -11    1    3    3    0    0 -0.81120309559E+01  0.16143308587E+02 -0.30863111921E+02  0.35762314468E+02  0.51100000000E-03 0.  1.
         12    1    3    3    0    0  0.44278108232E+01  0.50908735667E+01 -0.52691944669E+01  0.85607775750E+01  0.00000000000E+00 0. -1.
</event>
<event>
 7    1  0.2900470E-011  0.5052886E+02  0.7816164E-02  0.1300439E+00
        -11   -1    0    0    0    0  0.00000000000E+00  0.00000000000E+00  0.45593999997E+02  0.45594000000E+02  0.51100000000E-03 0. -1.
         11   -1    0    0    0    0 -0.00000000000E+00 -0.00000000000E+00 -0.45593999997E+02  0.45594000000E+02  0.51100000000E-03 0.  1.
    9900012    2    1    2    0    0 -0.23123308483E+01 -0.32621460749E+02 -0.24159030431E+02  0.50528864167E+02  0.30000013121E+02 0.  0.
         12    1    1    2    0    0  0.23123308483E+01  0.32621460749E+02  0.24159030431E+02  0.40659135833E+02  0.00000000000E+00 0. -1.
         11    1    3    3    0    0  0.54866757307E+01 -0.57185642137E+01  0.18999637909E+01  0.81495674675E+01  0.51100000000E-03 0. -1.
        -11    1    3    3    0    0 -0.13261481710E+02 -0.22167423762E+02 -0.17627496137E+02  0.31272834756E+02  0.51100000000E-03 0.  1.
         12    1    3    3    0    0  0.54624751306E+01 -0.47354727738E+01 -0.84314980842E+01  0.11106461943E+02  0.00000000000E+00 0. -1.
</event>
<event>
 7    1  0.2900470E-011  0.5052886E+02  0.7816164E-02  0.1300439E+00
        -11   -1    0    0    0    0  0.00000000000E+00  0.00000000000E+00  0.45593999997E+02  0.45594000000E+02  0.51100000000E-03 0. -1.
         11   -1    0    0    0    0 -0.00000000000E+00 -0.00000000000E+00 -0.45593999997E+02  0.45594000000E+02  0.51100000000E-03 0.  1.
    9900012    2    1    2    0    0 -0.60595573500E+01  0.48358527765E+01 -0.39913179707E+02  0.50528860539E+02  0.30000002095E+02 0.  0.
         12    1    1    2    0    0  0.60595573500E+01 -0.48358527765E+01  0.39913179707E+02  0.40659139461E+02  0.00000000000E+00 0. -1.
         11    1    3    3    0    0 -0.14657876608E+02  0.55390358357E+01 -0.22481823221E+02  0.27403770548E+02  0.51100000000E-03 0. -1.
        -11    1    3    3    0    0  0.10823407214E+02 -0.29549760716E+01 -0.99286481760E+01  0.14981858435E+02  0.51100000000E-03 0.  1.
        -12    1    3    3    0    0 -0.22250879567E+01  0.22517930124E+01 -0.75027083104E+01  0.81432315562E+01  0.00000000000E+00 0.  1.
</event>
<event>
 7    1  0.2900470E-011  0.5052884E+02  0.7816164E-02  0.1300439E+00
        -11   -1    0    0    0    0  0.00000000000E+00  0.00000000000E+00  0.45593999997E+02  0.45594000000E+02  0.51100000000E-03 0.  1.
         11   -1    0    0    0    0 -0.00000000000E+00 -0.00000000000E+00 -0.45593999997E+02  0.45594000000E+02  0.51100000000E-03 0. -1.
    9900012    2    1    2    0    0 -0.39476694376E+02  0.75710406896E+00 -0.97048635394E+01  0.50528843815E+02  0.29999951259E+02 0.  0.
         12    1    1    2    0    0  0.39476694376E+02 -0.75710406896E+00  0.97048635394E+01  0.40659156185E+02  0.00000000000E+00 0. -1.
         11    1    3    3    0    0  0.46712837138E+01  0.20467210627E+01 -0.14357476960E+01  0.52982384196E+01  0.51100000000E-03 0. -1.
        -11    1    3    3    0    0 -0.25487711230E+02 -0.29888579741E+01 -0.60165586817E+01  0.26358218346E+02  0.51100000000E-03 0.  1.
         12    1    3    3    0    0 -0.18660266860E+02  0.16992409803E+01 -0.22525571617E+01  0.18872387049E+02  0.00000000000E+00 0. -1.
</event>
<event>
 7    1  0.2900470E-011  0.5052883E+02  0.7816164E-02  0.1300439E+00
        -11   -1    0    0    0    0  0.00000000000E+00  0.00000000000E+00  0.45593999997E+02  0.45594000000E+02  0.51100000000E-03 0.  1.
         11   -1    0    0    0    0 -0.00000000000E+00 -0.00000000000E+00 -0.45593999997E+02  0.45594000000E+02  0.51100000000E-03 0. -1.
    9900012    2    1    2    0    0  0.23923961391E+02 -0.25791761387E+02  0.20386202097E+02  0.50528829816E+02  0.29999908710E+02 0.  0.
         12    1    1    2    0    0 -0.23923961391E+02  0.25791761387E+02 -0.20386202097E+02  0.40659170184E+02  0.00000000000E+00 0. -1.
         11    1    3    3    0    0 -0.16411217437E+01 -0.34745527073E-01 -0.47799881239E+01  0.50539860066E+01  0.51100000000E-03 0. -1.
        -11    1    3    3    0    0  0.21121376542E+02 -0.22931939327E+02  0.16344917863E+02  0.35201459182E+02  0.51100000000E-03 0.  1.
         12    1    3    3    0    0  0.44437065926E+01 -0.28250765328E+01  0.88212723580E+01  0.10273384628E+02  0.00000000000E+00 0. -1.
</event>
<event>
 7    1  0.2900470E-011  0.5052886E+02  0.7816164E-02  0.1300439E+00
        -11   -1    0    0    0    0  0.00000000000E+00  0.00000000000E+00  0.45593999997E+02  0.45594000000E+02  0.51100000000E-03 0.  1.
         11   -1    0    0    0    0 -0.00000000000E+00 -0.00000000000E+00 -0.45593999997E+02  0.45594000000E+02  0.51100000000E-03 0. -1.
    9900012    2    1    2    0    0 -0.31941650676E+02  0.79376362304E+00  0.25144918434E+02  0.50528855498E+02  0.29999986772E+02 0.  0.
         12    1    1    2    0    0  0.31941650676E+02 -0.79376362304E+00 -0.25144918434E+02  0.40659144502E+02  0.00000000000E+00 0. -1.
         11    1    3    3    0    0 -0.10038376420E+02  0.36916451300E+00 -0.31948233221E+01  0.10540976232E+02  0.51100000000E-03 0. -1.
        -11    1    3    3    0    0 -0.12421443510E+02  0.80106409977E+01  0.21380291955E+02  0.25991912442E+02  0.51100000000E-03 0.  1.
        -12    1    3    3    0    0 -0.94818307452E+01 -0.75860418877E+01  0.69594498017E+01  0.13995966824E+02  0.00000000000E+00 0.  1.
</event>
<event>
 7    1  0.2900470E-011  0.5052886E+02  0.7816164E-02  0.1300439E+00
        -11   -1    0    0    0    0  0.00000000000E+00  0.00000000000E+00  0.45593999997E+02  0.45594000000E+02  0.51100000000E-03 0. -1.
         11   -1    0    0    0    0 -0.00000000000E+00 -0.00000000000E+00 -0.45593999997E+02  0.45594000000E+02  0.51100000000E-03 0.  1.
    9900012    2    1    2    0    0 -0.29408482587E+02 -0.21245243064E+01 -0.27996306978E+02  0.50528860117E+02  0.30000000811E+02 0.  0.
         12    1    1    2    0    0  0.29408482587E+02  0.21245243064E+01  0.27996306978E+02  0.40659139883E+02  0.00000000000E+00 0. -1.
         11    1    3    3    0    0 -0.60451006221E+01 -0.80380691646E+01 -0.68453188845E+01  0.12166025987E+02  0.51100000000E-03 0. -1.
        -11    1    3    3    0    0 -0.11799977508E+02  0.13290037285E+02 -0.84885367031E+01  0.19695680132E+02  0.51100000000E-03 0.  1.
        -12    1    3    3    0    0 -0.11563404457E+02 -0.73764924271E+01 -0.12662451391E+02  0.18667153998E+02  0.00000000000E+00 0.  1.
</event>
<event>
 7    1  0.2900470E-011  0.5052889E+02  0.7816164E-02  0.1300439E+00
        -11   -1    0    0    0    0  0.00000000000E+00  0.00000000000E+00  0.45593999997E+02  0.45594000000E+02  0.51100000000E-03 0. -1.
         11   -1    0    0    0    0 -0.00000000000E+00 -0.00000000000E+00 -0.45593999997E+02  0.45594000000E+02  0.51100000000E-03 0.  1.
    9900012    2    1    2    0    0 -0.24968348114E+02  0.17609286191E+01 -0.32041284074E+02  0.50528890784E+02  0.30000094027E+02 0.  0.
         12    1    1    2    0    0  0.24968348114E+02 -0.17609286191E+01  0.32041284074E+02  0.40659109216E+02  0.00000000000E+00 0. -1.
         11    1    3    3    0    0 -0.92723458898E+00  0.44157819905E+01 -0.33495985212E+01  0.56194933121E+01  0.51100000000E-03 0. -1.
        -11    1    3    3    0    0 -0.22796872784E+02 -0.11557222802E+02 -0.21066842436E+02  0.33122177738E+02  0.51100000000E-03 0.  1.
        -12    1    3    3    0    0 -0.12442407409E+01  0.89023694310E+01 -0.76248431170E+01  0.11787219734E+02  0.00000000000E+00 0.  1.
</event>
<event>
 7    1  0.2900470E-011  0.5052887E+02  0.7816164E-02  0.1300439E+00
        -11   -1    0    0    0    0  0.00000000000E+00  0.00000000000E+00  0.45593999997E+02  0.45594000000E+02  0.51100000000E-03 0.  1.
         11   -1    0    0    0    0 -0.00000000000E+00 -0.00000000000E+00 -0.45593999997E+02  0.45594000000E+02  0.51100000000E-03 0. -1.
    9900012    2    1    2    0    0  0.13289428018E+02  0.16814320250E+01  0.38389175590E+02  0.50528869252E+02  0.30000028578E+02 0.  0.
         12    1    1    2    0    0 -0.13289428018E+02 -0.16814320250E+01 -0.38389175590E+02  0.40659130748E+02  0.00000000000E+00 0. -1.
         11    1    3    3    0    0 -0.31418664804E-02  0.24973743177E+01 -0.64554534427E+00  0.25794606814E+01  0.51100000000E-03 0. -1.
        -11    1    3    3    0    0  0.44572554804E+01 -0.12390814186E+02  0.20736787221E+02  0.24564481413E+02  0.51100000000E-03 0.  1.
        -12    1    3    3    0    0  0.88353144038E+01  0.11574871893E+02  0.18297933714E+02  0.23384927157E+02  0.00000000000E+00 0.  1.
</event>
<event>
 7    1  0.2900470E-011  0.5052881E+02  0.7816164E-02  0.1300439E+00
        -11   -1    0    0    0    0  0.00000000000E+00  0.00000000000E+00  0.45593999997E+02  0.45594000000E+02  0.51100000000E-03 0.  1.
         11   -1    0    0    0    0 -0.00000000000E+00 -0.00000000000E+00 -0.45593999997E+02  0.45594000000E+02  0.51100000000E-03 0. -1.
    9900012    2    1    2    0    0 -0.40443240385E+02 -0.14327974988E+01 -0.39320163290E+01  0.50528814643E+02  0.29999862588E+02 0.  0.
         12    1    1    2    0    0  0.40443240385E+02  0.14327974988E+01  0.39320163290E+01  0.40659185357E+02  0.00000000000E+00 0. -1.
         11    1    3    3    0    0  0.32489147280E+01  0.19926170479E+01 -0.38818654880E+01  0.54401148460E+01  0.51100000000E-03 0. -1.
        -11    1    3    3    0    0 -0.23380899896E+02  0.92503303872E+00 -0.45437383033E+01  0.23836269090E+02  0.51100000000E-03 0.  1.
        -12    1    3    3    0    0 -0.20311255217E+02 -0.43504475854E+01  0.44935874624E+01  0.21252430707E+02  0.00000000000E+00 0.  1.
</event>
<event>
 7    1  0.2900470E-011  0.5052892E+02  0.7816164E-02  0.1300439E+00
        -11   -1    0    0    0    0  0.00000000000E+00  0.00000000000E+00  0.45593999997E+02  0.45594000000E+02  0.51100000000E-03 0.  1.
         11   -1    0    0    0    0 -0.00000000000E+00 -0.00000000000E+00 -0.45593999997E+02  0.45594000000E+02  0.51100000000E-03 0. -1.
    9900012    2    1    2    0    0 -0.13225897464E+02 -0.47412933111E+01  0.38154379192E+02  0.50528918880E+02  0.30000179428E+02 0.  0.
         12    1    1    2    0    0  0.13225897464E+02  0.47412933111E+01 -0.38154379192E+02  0.40659081120E+02  0.00000000000E+00 0. -1.
         11    1    3    3    0    0 -0.73626598923E+01 -0.33217687899E+01  0.70115641076E+01  0.10696024499E+02  0.51100000000E-03 0. -1.
        -11    1    3    3    0    0 -0.58234610574E+01  0.10895805591E+02  0.13301294565E+02  0.18153669479E+02  0.51100000000E-03 0.  1.
        -12    1    3    3    0    0 -0.39776513900E-01 -0.12315330113E+02  0.17841520519E+02  0.21679224903E+02  0.00000000000E+00 0.  1.
</event>
<event>
 7    1  0.2900470E-011  0.5052886E+02  0.7816164E-02  0.1300439E+00
        -11   -1    0    0    0    0  0.00000000000E+00  0.00000000000E+00  0.45593999997E+02  0.45594000000E+02  0.51100000000E-03 0.  1.
         11   -1    0    0    0    0 -0.00000000000E+00 -0.00000000000E+00 -0.45593999997E+02  0.45594000000E+02  0.51100000000E-03 0. -1.
    9900012    2    1    2    0    0  0.39156650085E+02 -0.98595168395E+01  0.47657210226E+01  0.50528863080E+02  0.30000009818E+02 0.  0.
         12    1    1    2    0    0 -0.39156650085E+02  0.98595168395E+01 -0.47657210226E+01  0.40659136920E+02  0.00000000000E+00 0. -1.
         11    1    3    3    0    0 -0.18765660744E+01 -0.10734087356E+01 -0.19764337802E+01  0.29291632412E+01  0.51100000000E-03 0. -1.
        -11    1    3    3    0    0  0.21649473713E+02  0.20939235823E+01  0.11882486439E+02  0.24784626530E+02  0.51100000000E-03 0.  1.
        -12    1    3    3    0    0  0.19383742447E+02 -0.10880031686E+02 -0.51403316365E+01  0.22815073309E+02  0.00000000000E+00 0.  1.
</event>
<event>
 7    1  0.2900470E-011  0.5052884E+02  0.7816164E-02  0.1300439E+00
        -11   -1    0    0    0    0  0.00000000000E+00  0.00000000000E+00  0.45593999997E+02  0.45594000000E+02  0.51100000000E-03 0. -1.
         11   -1    0    0    0    0 -0.00000000000E+00 -0.00000000000E+00 -0.45593999997E+02  0.45594000000E+02  0.51100000000E-03 0.  1.
    9900012    2    1    2    0    0  0.17510935597E+02 -0.30330822989E+01 -0.36569585088E+02  0.50528843501E+02  0.29999950305E+02 0.  0.
         12    1    1    2    0    0 -0.17510935597E+02  0.30330822989E+01  0.36569585088E+02  0.40659156499E+02  0.00000000000E+00 0. -1.
         11    1    3    3    0    0  0.15920514626E+02 -0.67811713179E+01 -0.64052499807E+01  0.18451945642E+02  0.51100000000E-03 0. -1.
        -11    1    3    3    0    0  0.85869288810E+00 -0.25753290323E+00 -0.26744181430E+02  0.26759202479E+02  0.51100000000E-03 0.  1.
        -12    1    3    3    0    0  0.73172808235E+00  0.40056219223E+01 -0.34201536774E+01  0.53176953793E+01  0.00000000000E+00 0.  1.
</event>
<event>
 7    1  0.2900470E-011  0.5052886E+02  0.7816164E-02  0.1300439E+00
        -11   -1    0    0    0    0  0.00000000000E+00  0.00000000000E+00  0.45593999997E+02  0.45594000000E+02  0.51100000000E-03 0. -1.
         11   -1    0    0    0    0 -0.00000000000E+00 -0.00000000000E+00 -0.45593999997E+02  0.45594000000E+02  0.51100000000E-03 0.  1.
    9900012    2    1    2    0    0  0.15030398783E+02  0.25521731275E+02 -0.27854873590E+02  0.50528860344E+02  0.30000001502E+02 0.  0.
         12    1    1    2    0    0 -0.15030398783E+02 -0.25521731275E+02  0.27854873590E+02  0.40659139656E+02  0.00000000000E+00 0. -1.
         11    1    3    3    0    0  0.49318345560E+00 -0.25719911120E+01  0.24955163679E+01  0.36174535801E+01  0.51100000000E-03 0. -1.
        -11    1    3    3    0    0  0.12647772753E+02  0.28971062619E+02 -0.22530946197E+02  0.38819224125E+02  0.51100000000E-03 0.  1.
        -12    1    3    3    0    0  0.18894425746E+01 -0.87734023210E+00 -0.78194437616E+01  0.80921826392E+01  0.00000000000E+00 0.  1.
</event>
<event>
 7    1  0.2900470E-011  0.5052887E+02  0.7816164E-02  0.1300439E+00
        -11   -1    0    0    0    0  0.00000000000E+00  0.00000000000E+00  0.45593999997E+02  0.45594000000E+02  0.51100000000E-03 0. -1.
         11   -1    0    0    0    0 -0.00000000000E+00 -0.00000000000E+00 -0.45593999997E+02  0.45594000000E+02  0.51100000000E-03 0.  1.
    9900012    2    1    2    0    0  0.54821111793E+01  0.38317421382E+02 -0.12445352884E+02  0.50528866552E+02  0.30000020370E+02 0.  0.
         12    1    1    2    0    0 -0.54821111793E+01 -0.38317421382E+02  0.12445352884E+02  0.40659133448E+02  0.00000000000E+00 0. -1.
         11    1    3    3    0    0  0.87413127910E+01  0.14774821984E+02 -0.40594304833E+01  0.17640433387E+02  0.51100000000E-03 0. -1.
        -11    1    3    3    0    0 -0.36971744395E+01  0.10836123877E+00  0.47498802680E+01  0.60201498167E+01  0.51100000000E-03 0.  1.
        -12    1    3    3    0    0  0.43797282779E+00  0.23434238160E+02 -0.13135802669E+02  0.26868283348E+02  0.00000000000E+00 0.  1.
</event>
<event>
 7    1  0.2900470E-011  0.5052887E+02  0.7816164E-02  0.1300439E+00
        -11   -1    0    0    0    0  0.00000000000E+00  0.00000000000E+00  0.45593999997E+02  0.45594000000E+02  0.51100000000E-03 0. -1.
         11   -1    0    0    0    0 -0.00000000000E+00 -0.00000000000E+00 -0.45593999997E+02  0.45594000000E+02  0.51100000000E-03 0.  1.
    9900012    2    1    2    0    0 -0.32345058248E+02  0.16330691120E+02 -0.18446429498E+02  0.50528867856E+02  0.30000024334E+02 0.  0.
         12    1    1    2    0    0  0.32345058248E+02 -0.16330691120E+02  0.18446429498E+02  0.40659132144E+02  0.00000000000E+00 0. -1.
         11    1    3    3    0    0 -0.25852446046E+02  0.17595822511E+01 -0.12108345298E+02  0.28601697893E+02  0.51100000000E-03 0. -1.
        -11    1    3    3    0    0 -0.19118451519E+01  0.66038373096E+01 -0.99150007697E+01  0.12065366120E+02  0.51100000000E-03 0.  1.
         12    1    3    3    0    0 -0.45807670506E+01  0.79672715588E+01  0.35769165706E+01  0.98618038419E+01  0.00000000000E+00 0. -1.
</event>
<event>
 7    1  0.2900470E-011  0.5052886E+02  0.7816164E-02  0.1300439E+00
        -11   -1    0    0    0    0  0.00000000000E+00  0.00000000000E+00  0.45593999997E+02  0.45594000000E+02  0.51100000000E-03 0.  1.
         11   -1    0    0    0    0 -0.00000000000E+00 -0.00000000000E+00 -0.45593999997E+02  0.45594000000E+02  0.51100000000E-03 0. -1.
    9900012    2    1    2    0    0 -0.38168618843E+02 -0.14005370772E+02 -0.41449514656E+00  0.50528859809E+02  0.29999999876E+02 0.  0.
         12    1    1    2    0    0  0.38168618843E+02  0.14005370772E+02  0.41449514656E+00  0.40659140191E+02  0.00000000000E+00 0. -1.
         11    1    3    3    0    0 -0.10857292286E+02  0.59112597204E+00 -0.86614302556E+01  0.13901460356E+02  0.51100000000E-03 0. -1.
        -11    1    3    3    0    0 -0.11026183135E+02 -0.15172291763E+02  0.78363269247E+01  0.20326907581E+02  0.51100000000E-03 0.  1.
        -12    1    3    3    0    0 -0.16285143423E+02  0.57579501941E+00  0.41060818430E+00  0.16300491872E+02  0.00000000000E+00 0.  1.
</event>
<event>
 7    1  0.2900470E-011  0.5052886E+02  0.7816164E-02  0.1300439E+00
        -11   -1    0    0    0    0  0.00000000000E+00  0.00000000000E+00  0.45593999997E+02  0.45594000000E+02  0.51100000000E-03 0.  1.
         11   -1    0    0    0    0 -0.00000000000E+00 -0.00000000000E+00 -0.45593999997E+02  0.45594000000E+02  0.51100000000E-03 0. -1.
    9900012    2    1    2    0    0  0.19779682043E+02 -0.59134879611E+00  0.35518733485E+02  0.50528856582E+02  0.29999990065E+02 0.  0.
         12    1    1    2    0    0 -0.19779682043E+02  0.59134879611E+00 -0.35518733485E+02  0.40659143418E+02  0.00000000000E+00 0. -1.
         11    1    3    3    0    0  0.41857247879E+01  0.11344729487E+02  0.90071746620E+01  0.15078208607E+02  0.51100000000E-03 0. -1.
        -11    1    3    3    0    0  0.30618359587E+01 -0.51874781751E+01  0.81940884971E+00  0.60791611575E+01  0.51100000000E-03 0.  1.
        -12    1    3    3    0    0  0.12532121297E+02 -0.67486001079E+01  0.25692149973E+02  0.29371486817E+02  0.00000000000E+00 0.  1.
</event>
<event>
 7    1  0.2900470E-011  0.5052883E+02  0.7816164E-02  0.1300439E+00
        -11   -1    0    0    0    0  0.00000000000E+00  0.00000000000E+00  0.45593999997E+02  0.45594000000E+02  0.51100000000E-03 0. -1.
         11   -1    0    0    0    0 -0.00000000000E+00 -0.00000000000E+00 -0.45593999997E+02  0.45594000000E+02  0.51100000000E-03 0.  1.
    9900012    2    1    2    0    0  0.16190123336E+02  0.24752875185E+02 -0.27898805444E+02  0.50528827987E+02  0.29999903150E+02 0.  0.
         12    1    1    2    0    0 -0.16190123336E+02 -0.24752875185E+02  0.27898805444E+02  0.40659172013E+02  0.00000000000E+00 0. -1.
         11    1    3    3    0    0 -0.34639968448E+01  0.72582605113E+00 -0.75714955159E+01  0.83578491376E+01  0.51100000000E-03 0. -1.
        -11    1    3    3    0    0  0.22812909382E+02  0.14856464126E+02 -0.15666378298E+02  0.31409851480E+02  0.51100000000E-03 0.  1.
        -12    1    3    3    0    0 -0.31587892004E+01  0.91705850079E+01 -0.46609316302E+01  0.10761127369E+02  0.00000000000E+00 0.  1.
</event>
<event>
 7    1  0.2900470E-011  0.5052887E+02  0.7816164E-02  0.1300439E+00
        -11   -1    0    0    0    0  0.00000000000E+00  0.00000000000E+00  0.45593999997E+02  0.45594000000E+02  0.51100000000E-03 0. -1.
         11   -1    0    0    0    0 -0.00000000000E+00 -0.00000000000E+00 -0.45593999997E+02  0.45594000000E+02  0.51100000000E-03 0.  1.
    9900012    2    1    2    0    0  0.40557196254E+02  0.12745434535E+01 -0.25796494670E+01  0.50528865474E+02  0.30000017096E+02 0.  0.
         12    1    1    2    0    0 -0.40557196254E+02 -0.12745434535E+01  0.25796494670E+01  0.40659134526E+02  0.00000000000E+00 0. -1.
         11    1    3    3    0    0  0.18502231305E+02 -0.99861102435E+01  0.38925630559E+01  0.21382399502E+02  0.51100000000E-03 0. -1.
        -11    1    3    3    0    0  0.12982058713E+02  0.12499077379E+02 -0.82478270778E+01  0.19818865647E+02  0.51100000000E-03 0.  1.
        -12    1    3    3    0    0  0.90729062362E+01 -0.12384236820E+01  0.17756145549E+01  0.93276003256E+01  0.00000000000E+00 0.  1.
</event>
<event>
 7    1  0.2900470E-011  0.5052876E+02  0.7816164E-02  0.1300439E+00
        -11   -1    0    0    0    0  0.00000000000E+00  0.00000000000E+00  0.45593999997E+02  0.45594000000E+02  0.51100000000E-03 0. -1.
         11   -1    0    0    0    0 -0.00000000000E+00 -0.00000000000E+00 -0.45593999997E+02  0.45594000000E+02  0.51100000000E-03 0.  1.
    9900012    2    1    2    0    0  0.18018209582E+02  0.26026066495E+01 -0.36355797461E+02  0.50528764310E+02  0.29999709594E+02 0.  0.
         12    1    1    2    0    0 -0.18018209582E+02 -0.26026066495E+01  0.36355797461E+02  0.40659235690E+02  0.00000000000E+00 0. -1.
         11    1    3    3    0    0  0.64531220998E-01  0.53742514100E+01 -0.15359960746E+02  0.16273141580E+02  0.51100000000E-03 0. -1.
        -11    1    3    3    0    0  0.19004700846E+02 -0.64923019497E+01 -0.22452736259E+02  0.30123977238E+02  0.51100000000E-03 0.  1.
        -12    1    3    3    0    0 -0.10510224855E+01  0.37206571892E+01  0.14568995442E+01  0.41316454914E+01  0.00000000000E+00 0.  1.
</event>
<event>
 7    1  0.2900470E-011  0.5052887E+02  0.7816164E-02  0.1300439E+00
        -11   -1    0    0    0    0  0.00000000000E+00  0.00000000000E+00  0.45593999997E+02  0.45594000000E+02  0.51100000000E-03 0. -1.
         11   -1    0    0    0    0 -0.00000000000E+00 -0.00000000000E+00 -0.45593999997E+02  0.45594000000E+02  0.51100000000E-03 0.  1.
    9900012    2    1    2    0    0 -0.19588506925E+01  0.19434462266E+02 -0.35659917766E+02  0.50528866282E+02  0.30000019551E+02 0.  0.
         12    1    1    2    0    0  0.19588506925E+01 -0.19434462266E+02  0.35659917766E+02  0.40659133718E+02  0.00000000000E+00 0. -1.
         11    1    3    3    0    0 -0.68021485180E+01  0.13601986598E+02 -0.52659988170E+01  0.16093912131E+02  0.51100000000E-03 0. -1.
        -11    1    3    3    0    0  0.50818008523E+01  0.88383612137E+01 -0.29614839289E+02  0.31320600812E+02  0.51100000000E-03 0.  1.
        -12    1    3    3    0    0 -0.23850302676E+00 -0.30058855458E+01 -0.77907966067E+00  0.31143533399E+01  0.00000000000E+00 0.  1.
</event>
<event>
 7    1  0.2900470E-011  0.5052887E+02  0.7816164E-02  0.1300439E+00
        -11   -1    0    0    0    0  0.00000000000E+00  0.00000000000E+00  0.45593999997E+02  0.45594000000E+02  0.51100000000E-03 0.  1.
         11   -1    0    0    0    0 -0.00000000000E+00 -0.00000000000E+00 -0.45593999997E+02  0.45594000000E+02  0.51100000000E-03 0. -1.
    9900012    2    1    2    0    0  0.39870499295E+02 -0.35427182457E+01 -0.71384467389E+01  0.50528868327E+02  0.30000025766E+02 0.  0.
         12    1    1    2    0    0 -0.39870499295E+02  0.35427182457E+01  0.71384467389E+01  0.40659131673E+02  0.00000000000E+00 0. -1.
         11    1    3    3    0    0  0.24635284047E+02 -0.13060875406E+01 -0.14244604258E+02  0.28487046801E+02  0.51100000000E-03 0. -1.
        -11    1    3    3    0    0  0.30884301816E+00  0.20996229833E+01  0.61081695954E+01  0.64663387437E+01  0.51100000000E-03 0.  1.
        -12    1    3    3    0    0  0.14926372230E+02 -0.43362536884E+01  0.99798792366E+00  0.15575482782E+02  0.00000000000E+00 0.  1.
</event>
<event>
 7    1  0.2900470E-011  0.5052887E+02  0.7816164E-02  0.1300439E+00
        -11   -1    0    0    0    0  0.00000000000E+00  0.00000000000E+00  0.45593999997E+02  0.45594000000E+02  0.51100000000E-03 0.  1.
         11   -1    0    0    0    0 -0.00000000000E+00 -0.00000000000E+00 -0.45593999997E+02  0.45594000000E+02  0.51100000000E-03 0. -1.
    9900012    2    1    2    0    0 -0.75602292832E+00 -0.31177021036E+02  0.26088057452E+02  0.50528868763E+02  0.30000027091E+02 0.  0.
         12    1    1    2    0    0  0.75602292832E+00  0.31177021036E+02 -0.26088057452E+02  0.40659131237E+02  0.00000000000E+00 0. -1.
         11    1    3    3    0    0  0.10739529666E+02 -0.12306610982E+02  0.20528453563E+02  0.26233710703E+02  0.51100000000E-03 0. -1.
        -11    1    3    3    0    0 -0.75491305228E+01 -0.67141609893E+01 -0.57307846431E+00  0.10119177270E+02  0.51100000000E-03 0.  1.
         12    1    3    3    0    0 -0.39464220712E+01 -0.12156249065E+02  0.61326823527E+01  0.14175980789E+02  0.00000000000E+00 0. -1.
</event>
<event>
 7    1  0.2900470E-011  0.5052886E+02  0.7816164E-02  0.1300439E+00
        -11   -1    0    0    0    0  0.00000000000E+00  0.00000000000E+00  0.45593999997E+02  0.45594000000E+02  0.51100000000E-03 0.  1.
         11   -1    0    0    0    0 -0.00000000000E+00 -0.00000000000E+00 -0.45593999997E+02  0.45594000000E+02  0.51100000000E-03 0. -1.
    9900012    2    1    2    0    0  0.11918494503E+02 -0.22771335373E+02  0.31505256082E+02  0.50528863429E+02  0.30000010879E+02 0.  0.
         12    1    1    2    0    0 -0.11918494503E+02  0.22771335373E+02 -0.31505256082E+02  0.40659136571E+02  0.00000000000E+00 0. -1.
         11    1    3    3    0    0  0.14320007829E+02 -0.21312232063E+02  0.15055980833E+02  0.29765020054E+02  0.51100000000E-03 0. -1.
        -11    1    3    3    0    0 -0.83913160136E+00  0.31387004133E+01 -0.35848601897E+00  0.32686533337E+01  0.51100000000E-03 0.  1.
         12    1    3    3    0    0 -0.15623817247E+01 -0.45978037235E+01  0.16807761268E+02  0.17495190042E+02  0.00000000000E+00 0. -1.
</event>
<event>
 7    1  0.2900470E-011  0.5052886E+02  0.7816164E-02  0.1300439E+00
        -11   -1    0    0    0    0  0.00000000000E+00  0.00000000000E+00  0.45593999997E+02  0.45594000000E+02  0.51100000000E-03 0. -1.
         11   -1    0    0    0    0 -0.00000000000E+00 -0.00000000000E+00 -0.45593999997E+02  0.45594000000E+02  0.51100000000E-03 0.  1.
    9900012    2    1    2    0    0 -0.82752261861E+01 -0.30955184605E+02 -0.25029247559E+02  0.50528855202E+02  0.29999985871E+02 0.  0.
         12    1    1    2    0    0  0.82752261861E+01  0.30955184605E+02  0.25029247559E+02  0.40659144798E+02  0.00000000000E+00 0. -1.
         11    1    3    3    0    0 -0.18208791967E+02 -0.19861728228E+02 -0.16043809120E+02  0.31360040887E+02  0.51100000000E-03 0. -1.
        -11    1    3    3    0    0  0.24793243773E+01 -0.76432507915E+01 -0.17525625428E+01  0.82242207994E+01  0.51100000000E-03 0.  1.
         12    1    3    3    0    0  0.74542414035E+01 -0.34502055860E+01 -0.72328758958E+01  0.10944593515E+02  0.00000000000E+00 0. -1.
</event>
<event>
 7    1  0.2900470E-011  0.5052887E+02  0.7816164E-02  0.1300439E+00
        -11   -1    0    0    0    0  0.00000000000E+00  0.00000000000E+00  0.45593999997E+02  0.45594000000E+02  0.51100000000E-03 0.  1.
         11   -1    0    0    0    0 -0.00000000000E+00 -0.00000000000E+00 -0.45593999997E+02  0.45594000000E+02  0.51100000000E-03 0. -1.
    9900012    2    1    2    0    0  0.32504405296E+02 -0.10232223318E+01  0.24404537199E+02  0.50528870847E+02  0.30000033427E+02 0.  0.
         12    1    1    2    0    0 -0.32504405296E+02  0.10232223318E+01 -0.24404537199E+02  0.40659129153E+02  0.00000000000E+00 0. -1.
         11    1    3    3    0    0  0.12905731101E+02  0.32885291059E+00 -0.27150780483E+01  0.13192334462E+02  0.51100000000E-03 0. -1.
        -11    1    3    3    0    0  0.90928498166E+01  0.51957535532E+01  0.21133229116E+02  0.23585782707E+02  0.51100000000E-03 0.  1.
        -12    1    3    3    0    0  0.10505824378E+02 -0.65478287956E+01  0.59863861319E+01  0.13750753678E+02  0.00000000000E+00 0.  1.
</event>
<event>
 7    1  0.2900470E-011  0.5052885E+02  0.7816164E-02  0.1300439E+00
        -11   -1    0    0    0    0  0.00000000000E+00  0.00000000000E+00  0.45593999997E+02  0.45594000000E+02  0.51100000000E-03 0.  1.
         11   -1    0    0    0    0 -0.00000000000E+00 -0.00000000000E+00 -0.45593999997E+02  0.45594000000E+02  0.51100000000E-03 0. -1.
    9900012    2    1    2    0    0 -0.34946152684E+02 -0.37996944915E+01  0.20432697071E+02  0.50528851272E+02  0.29999973928E+02 0.  0.
         12    1    1    2    0    0  0.34946152684E+02  0.37996944915E+01 -0.20432697071E+02  0.40659148728E+02  0.00000000000E+00 0. -1.
         11    1    3    3    0    0 -0.52475157122E+01  0.39418566219E+01 -0.62130886812E+01  0.90375398200E+01  0.51100000000E-03 0. -1.
        -11    1    3    3    0    0 -0.28877485768E+02 -0.54814470637E+01  0.24852912860E+02  0.38491852697E+02  0.51100000000E-03 0.  1.
         12    1    3    3    0    0 -0.82115120403E+00 -0.22601040498E+01  0.17928728923E+01  0.29994587551E+01  0.00000000000E+00 0. -1.
</event>
<event>
 7    1  0.2900470E-011  0.5052886E+02  0.7816164E-02  0.1300439E+00
        -11   -1    0    0    0    0  0.00000000000E+00  0.00000000000E+00  0.45593999997E+02  0.45594000000E+02  0.51100000000E-03 0. -1.
         11   -1    0    0    0    0 -0.00000000000E+00 -0.00000000000E+00 -0.45593999997E+02  0.45594000000E+02  0.51100000000E-03 0.  1.
    9900012    2    1    2    0    0  0.78055639140E+01  0.15663178469E+02 -0.36700183317E+02  0.50528862734E+02  0.30000008765E+02 0.  0.
         12    1    1    2    0    0 -0.78055639140E+01 -0.15663178469E+02  0.36700183317E+02  0.40659137266E+02  0.00000000000E+00 0. -1.
         11    1    3    3    0    0 -0.77466261271E+01  0.39529486165E+01 -0.18704337064E+01  0.88957597556E+01  0.51100000000E-03 0. -1.
        -11    1    3    3    0    0  0.16189703419E+02  0.11024341364E+02 -0.25001357054E+02  0.31760202362E+02  0.51100000000E-03 0.  1.
        -12    1    3    3    0    0 -0.63751337790E+00  0.68588848838E+00 -0.98283925565E+01  0.98729006159E+01  0.00000000000E+00 0.  1.
</event>
<event>
 7    1  0.2900470E-011  0.5052886E+02  0.7816164E-02  0.1300439E+00
        -11   -1    0    0    0    0  0.00000000000E+00  0.00000000000E+00  0.45593999997E+02  0.45594000000E+02  0.51100000000E-03 0.  1.
         11   -1    0    0    0    0 -0.00000000000E+00 -0.00000000000E+00 -0.45593999997E+02  0.45594000000E+02  0.51100000000E-03 0. -1.
    9900012    2    1    2    0    0 -0.16076830510E+02  0.28991985731E+02  0.23540730887E+02  0.50528859250E+02  0.29999998175E+02 0.  0.
         12    1    1    2    0    0  0.16076830510E+02 -0.28991985731E+02 -0.23540730887E+02  0.40659140750E+02  0.00000000000E+00 0. -1.
         11    1    3    3    0    0 -0.75451405271E+00 -0.19428306982E+01 -0.17728666816E+01  0.27362271670E+01  0.51100000000E-03 0. -1.
        -11    1    3    3    0    0 -0.16989994757E+02  0.21718303400E+02  0.26630384766E+02  0.38334345142E+02  0.51100000000E-03 0.  1.
         12    1    3    3    0    0  0.16676783000E+01  0.92165130294E+01 -0.13167871970E+01  0.94582869409E+01  0.00000000000E+00 0. -1.
</event>
<event>
 7    1  0.2900470E-011  0.5052886E+02  0.7816164E-02  0.1300439E+00
        -11   -1    0    0    0    0  0.00000000000E+00  0.00000000000E+00  0.45593999997E+02  0.45594000000E+02  0.51100000000E-03 0.  1.
         11   -1    0    0    0    0 -0.00000000000E+00 -0.00000000000E+00 -0.45593999997E+02  0.45594000000E+02  0.51100000000E-03 0. -1.
    9900012    2    1    2    0    0 -0.38267693892E+02  0.61337935874E+01  0.12293322651E+02  0.50528860788E+02  0.30000002852E+02 0.  0.
         12    1    1    2    0    0  0.38267693892E+02 -0.61337935874E+01 -0.12293322651E+02  0.40659139212E+02  0.00000000000E+00 0. -1.
         11    1    3    3    0    0 -0.18862667664E+02  0.12475976258E+02 -0.52193180920E+01  0.23209728490E+02  0.51100000000E-03 0. -1.
        -11    1    3    3    0    0 -0.16808830409E+02 -0.60074618388E+01  0.12928495849E+02  0.22040244614E+02  0.51100000000E-03 0.  1.
         12    1    3    3    0    0 -0.25961958199E+01 -0.33472083209E+00  0.45841448942E+01  0.52788876842E+01  0.00000000000E+00 0. -1.
</event>
<event>
 7    1  0.2900470E-011  0.5052887E+02  0.7816164E-02  0.1300439E+00
        -11   -1    0    0    0    0  0.00000000000E+00  0.00000000000E+00  0.45593999997E+02  0.45594000000E+02  0.51100000000E-03 0.  1.
         11   -1    0    0    0    0 -0.00000000000E+00 -0.00000000000E+00 -0.45593999997E+02  0.45594000000E+02  0.51100000000E-03 0. -1.
    9900012    2    1    2    0    0 -0.14747102975E+02 -0.32281865407E+02  0.19838582757E+02  0.50528865158E+02  0.30000016134E+02 0.  0.
         12    1    1    2    0    0  0.14747102975E+02  0.32281865407E+02 -0.19838582757E+02  0.40659134842E+02  0.00000000000E+00 0. -1.
         11    1    3    3    0    0 -0.56799382924E+01 -0.22869040577E+01  0.30774424160E+01  0.68529031264E+01  0.51100000000E-03 0. -1.
        -11    1    3    3    0    0  0.41727632012E+01 -0.25127783422E+01 -0.43884639368E+01  0.65562659888E+01  0.51100000000E-03 0.  1.
        -12    1    3    3    0    0 -0.13239927884E+02 -0.27482183007E+02  0.21149604278E+02  0.37119696043E+02  0.00000000000E+00 0.  1.
</event>
<event>
 7    1  0.2900470E-011  0.5052886E+02  0.7816164E-02  0.1300439E+00
        -11   -1    0    0    0    0  0.00000000000E+00  0.00000000000E+00  0.45593999997E+02  0.45594000000E+02  0.51100000000E-03 0. -1.
         11   -1    0    0    0    0 -0.00000000000E+00 -0.00000000000E+00 -0.45593999997E+02  0.45594000000E+02  0.51100000000E-03 0.  1.
    9900012    2    1    2    0    0  0.29836395120E+02 -0.96165882563E+01 -0.25893555863E+02  0.50528862298E+02  0.30000007441E+02 0.  0.
         12    1    1    2    0    0 -0.29836395120E+02  0.96165882563E+01  0.25893555863E+02  0.40659137702E+02  0.00000000000E+00 0. -1.
         11    1    3    3    0    0  0.16423521377E+00  0.16504786906E+01 -0.27994551608E+00  0.16820888403E+01  0.51100000000E-03 0.  1.
        -11    1    3    3    0    0  0.22734481252E+02 -0.71867653837E+01 -0.20323949156E+01  0.23929832089E+02  0.51100000000E-03 0. -1.
        -12    1    3    3    0    0  0.69376786550E+01 -0.40803015632E+01 -0.23581215431E+02  0.24916941369E+02  0.00000000000E+00 0.  1.
</event>
<event>
 7    1  0.2900470E-011  0.5052886E+02  0.7816164E-02  0.1300439E+00
        -11   -1    0    0    0    0  0.00000000000E+00  0.00000000000E+00  0.45593999997E+02  0.45594000000E+02  0.51100000000E-03 0.  1.
         11   -1    0    0    0    0 -0.00000000000E+00 -0.00000000000E+00 -0.45593999997E+02  0.45594000000E+02  0.51100000000E-03 0. -1.
    9900012    2    1    2    0    0 -0.19348055611E+01 -0.39870030154E+02 -0.77332463276E+01  0.50528857414E+02  0.29999992597E+02 0.  0.
         12    1    1    2    0    0  0.19348055611E+01  0.39870030154E+02  0.77332463276E+01  0.40659142586E+02  0.00000000000E+00 0. -1.
         11    1    3    3    0    0  0.35487010212E+01  0.68850186134E+00  0.47511355409E+01  0.59699751205E+01  0.51100000000E-03 0. -1.
        -11    1    3    3    0    0 -0.94214467186E+01 -0.31057417449E+02 -0.87114531605E+01  0.33603813076E+02  0.51100000000E-03 0.  1.
        -12    1    3    3    0    0  0.39379401363E+01 -0.95011145667E+01 -0.37729287079E+01  0.10955069218E+02  0.00000000000E+00 0.  1.
</event>
<event>
 7    1  0.2900470E-011  0.5052885E+02  0.7816164E-02  0.1300439E+00
        -11   -1    0    0    0    0  0.00000000000E+00  0.00000000000E+00  0.45593999997E+02  0.45594000000E+02  0.51100000000E-03 0.  1.
         11   -1    0    0    0    0 -0.00000000000E+00 -0.00000000000E+00 -0.45593999997E+02  0.45594000000E+02  0.51100000000E-03 0. -1.
    9900012    2    1    2    0    0 -0.25600259591E+02 -0.31170816963E+02 -0.51159583089E+01  0.50528854034E+02  0.29999982321E+02 0.  0.
         12    1    1    2    0    0  0.25600259591E+02  0.31170816963E+02  0.51159583089E+01  0.40659145966E+02  0.00000000000E+00 0. -1.
         11    1    3    3    0    0 -0.36308095862E+01 -0.22868497770E+02 -0.71877846800E+01  0.24244900853E+02  0.51100000000E-03 0. -1.
        -11    1    3    3    0    0 -0.78604651016E+01 -0.57770521379E+00  0.57836475040E+01  0.97760540935E+01  0.51100000000E-03 0.  1.
         12    1    3    3    0    0 -0.14108984903E+02 -0.77246139791E+01 -0.37118211329E+01  0.16507899087E+02  0.00000000000E+00 0. -1.
</event>
<event>
 7    1  0.2900470E-011  0.5052887E+02  0.7816164E-02  0.1300439E+00
        -11   -1    0    0    0    0  0.00000000000E+00  0.00000000000E+00  0.45593999997E+02  0.45594000000E+02  0.51100000000E-03 0.  1.
         11   -1    0    0    0    0 -0.00000000000E+00 -0.00000000000E+00 -0.45593999997E+02  0.45594000000E+02  0.51100000000E-03 0. -1.
    9900012    2    1    2    0    0  0.93234209807E+01 -0.12788593324E+02  0.37452507892E+02  0.50528872546E+02  0.30000038590E+02 0.  0.
         12    1    1    2    0    0 -0.93234209807E+01  0.12788593324E+02 -0.37452507892E+02  0.40659127454E+02  0.00000000000E+00 0. -1.
         11    1    3    3    0    0  0.12020478969E+02 -0.32531376987E+01  0.43156357030E+01  0.13179511801E+02  0.51100000000E-03 0. -1.
        -11    1    3    3    0    0 -0.38365425519E+01 -0.10364460460E+02  0.12583352234E+02  0.16747592456E+02  0.51100000000E-03 0.  1.
        -12    1    3    3    0    0  0.11394845635E+01  0.82900483446E+00  0.20553519955E+02  0.20601768288E+02  0.00000000000E+00 0.  1.
</event>
<event>
 7    1  0.2900470E-011  0.5052887E+02  0.7816164E-02  0.1300439E+00
        -11   -1    0    0    0    0  0.00000000000E+00  0.00000000000E+00  0.45593999997E+02  0.45594000000E+02  0.51100000000E-03 0.  1.
         11   -1    0    0    0    0 -0.00000000000E+00 -0.00000000000E+00 -0.45593999997E+02  0.45594000000E+02  0.51100000000E-03 0. -1.
    9900012    2    1    2    0    0 -0.53469141988E+01  0.32764342006E+02  0.23474950700E+02  0.50528869305E+02  0.30000028739E+02 0.  0.
         12    1    1    2    0    0  0.53469141988E+01 -0.32764342006E+02 -0.23474950700E+02  0.40659130695E+02  0.00000000000E+00 0. -1.
         11    1    3    3    0    0  0.10172139443E+02  0.15054729803E+02  0.11836625717E+02  0.21684626326E+02  0.51100000000E-03 0. -1.
        -11    1    3    3    0    0 -0.88605982610E+01  0.25000954365E+01  0.71164457928E+01  0.11636343056E+02  0.51100000000E-03 0.  1.
         12    1    3    3    0    0 -0.66584553807E+01  0.15209516767E+02  0.45218791897E+01  0.17207899922E+02  0.00000000000E+00 0. -1.
</event>
<event>
 7    1  0.2900470E-011  0.5052886E+02  0.7816164E-02  0.1300439E+00
        -11   -1    0    0    0    0  0.00000000000E+00  0.00000000000E+00  0.45593999997E+02  0.45594000000E+02  0.51100000000E-03 0.  1.
         11   -1    0    0    0    0 -0.00000000000E+00 -0.00000000000E+00 -0.45593999997E+02  0.45594000000E+02  0.51100000000E-03 0. -1.
    9900012    2    1    2    0    0 -0.34424550046E+01  0.25487613280E+02  0.31491219084E+02  0.50528858266E+02  0.29999995185E+02 0.  0.
         12    1    1    2    0    0  0.34424550046E+01 -0.25487613280E+02 -0.31491219084E+02  0.40659141734E+02  0.00000000000E+00 0. -1.
         11    1    3    3    0    0  0.83442386171E+00  0.17860242988E+02  0.22037308114E+01  0.18015020748E+02  0.51100000000E-03 0. -1.
        -11    1    3    3    0    0 -0.66179042546E+01  0.71388976057E+01  0.14067788246E+02  0.17107401385E+02  0.51100000000E-03 0.  1.
         12    1    3    3    0    0  0.23410253883E+01  0.48847268599E+00  0.15219700026E+02  0.15406436133E+02  0.00000000000E+00 0. -1.
</event>
<event>
 7    1  0.2900470E-011  0.5052885E+02  0.7816164E-02  0.1300439E+00
        -11   -1    0    0    0    0  0.00000000000E+00  0.00000000000E+00  0.45593999997E+02  0.45594000000E+02  0.51100000000E-03 0.  1.
         11   -1    0    0    0    0 -0.00000000000E+00 -0.00000000000E+00 -0.45593999997E+02  0.45594000000E+02  0.51100000000E-03 0. -1.
    9900012    2    1    2    0    0 -0.41454588465E+01 -0.29339863365E+02 -0.27841586727E+02  0.50528851425E+02  0.29999974392E+02 0.  0.
         12    1    1    2    0    0  0.41454588465E+01  0.29339863365E+02  0.27841586727E+02  0.40659148575E+02  0.00000000000E+00 0. -1.
         11    1    3    3    0    0 -0.58558885238E+01  0.60172769260E+00 -0.53227527037E+01  0.79363217693E+01  0.51100000000E-03 0. -1.
        -11    1    3    3    0    0 -0.41274590180E+01 -0.29912571866E+02 -0.17545489097E+02  0.34923374143E+02  0.51100000000E-03 0.  1.
        -12    1    3    3    0    0  0.58378886953E+01 -0.29019192037E-01 -0.49733449260E+01  0.76691555131E+01  0.00000000000E+00 0.  1.
</event>
<event>
 7    1  0.2900470E-011  0.5052887E+02  0.7816164E-02  0.1300439E+00
        -11   -1    0    0    0    0  0.00000000000E+00  0.00000000000E+00  0.45593999997E+02  0.45594000000E+02  0.51100000000E-03 0.  1.
         11   -1    0    0    0    0 -0.00000000000E+00 -0.00000000000E+00 -0.45593999997E+02  0.45594000000E+02  0.51100000000E-03 0. -1.
    9900012    2    1    2    0    0 -0.20428466785E+02  0.19565956356E+02  0.29206430662E+02  0.50528874390E+02  0.30000044196E+02 0.  0.
         12    1    1    2    0    0  0.20428466785E+02 -0.19565956356E+02 -0.29206430662E+02  0.40659125610E+02  0.00000000000E+00 0. -1.
         11    1    3    3    0    0 -0.23666668142E+02  0.14075331319E+02  0.25405230026E+02  0.37465341926E+02  0.51100000000E-03 0. -1.
        -11    1    3    3    0    0  0.60490503357E+01  0.33867349291E+01 -0.11156414678E+01  0.70217974615E+01  0.51100000000E-03 0.  1.
        -12    1    3    3    0    0 -0.28108489793E+01  0.21038901073E+01  0.49168421040E+01  0.60417350028E+01  0.00000000000E+00 0.  1.
</event>
<event>
 7    1  0.2900470E-011  0.5052886E+02  0.7816164E-02  0.1300439E+00
        -11   -1    0    0    0    0  0.00000000000E+00  0.00000000000E+00  0.45593999997E+02  0.45594000000E+02  0.51100000000E-03 0.  1.
         11   -1    0    0    0    0 -0.00000000000E+00 -0.00000000000E+00 -0.45593999997E+02  0.45594000000E+02  0.51100000000E-03 0. -1.
    9900012    2    1    2    0    0  0.39765346033E+02 -0.82243452496E+01 -0.20598170075E+01  0.50528862700E+02  0.30000008662E+02 0.  0.
         12    1    1    2    0    0 -0.39765346033E+02  0.82243452496E+01  0.20598170075E+01  0.40659137300E+02  0.00000000000E+00 0. -1.
         11    1    3    3    0    0  0.25757620005E+01  0.75019535018E+01 -0.13652037809E+01  0.80484556190E+01  0.51100000000E-03 0. -1.
        -11    1    3    3    0    0  0.28683790356E+02 -0.11428960875E+02 -0.61734702824E+01  0.31487977253E+02  0.51100000000E-03 0.  1.
         12    1    3    3    0    0  0.85057936758E+01 -0.42973378768E+01  0.54788570558E+01  0.10992429828E+02  0.00000000000E+00 0. -1.
</event>
<event>
 7    1  0.2900470E-011  0.5052888E+02  0.7816164E-02  0.1300439E+00
        -11   -1    0    0    0    0  0.00000000000E+00  0.00000000000E+00  0.45593999997E+02  0.45594000000E+02  0.51100000000E-03 0.  1.
         11   -1    0    0    0    0 -0.00000000000E+00 -0.00000000000E+00 -0.45593999997E+02  0.45594000000E+02  0.51100000000E-03 0. -1.
    9900012    2    1    2    0    0 -0.34148889744E+02  0.21453927998E+02  0.51716702028E+01  0.50528882080E+02  0.30000067571E+02 0.  0.
         12    1    1    2    0    0  0.34148889744E+02 -0.21453927998E+02 -0.51716702028E+01  0.40659117920E+02  0.00000000000E+00 0. -1.
         11    1    3    3    0    0 -0.30082484876E+01 -0.59848971496E+01  0.47400959134E+01  0.82059163037E+01  0.51100000000E-03 0. -1.
        -11    1    3    3    0    0 -0.21946782815E+02  0.23912353657E+02 -0.17154748791E+00  0.32457531670E+02  0.51100000000E-03 0.  1.
         12    1    3    3    0    0 -0.91938584423E+01  0.35264714909E+01  0.60312177728E+00  0.98654341066E+01  0.00000000000E+00 0. -1.
</event>
<event>
 7    1  0.2900470E-011  0.5052885E+02  0.7816164E-02  0.1300439E+00
        -11   -1    0    0    0    0  0.00000000000E+00  0.00000000000E+00  0.45593999997E+02  0.45594000000E+02  0.51100000000E-03 0. -1.
         11   -1    0    0    0    0 -0.00000000000E+00 -0.00000000000E+00 -0.45593999997E+02  0.45594000000E+02  0.51100000000E-03 0.  1.
    9900012    2    1    2    0    0 -0.76601854649E+01  0.11382983766E+02 -0.38274212123E+02  0.50528854972E+02  0.29999985174E+02 0.  0.
         12    1    1    2    0    0  0.76601854649E+01 -0.11382983766E+02  0.38274212123E+02  0.40659145028E+02  0.00000000000E+00 0. -1.
         11    1    3    3    0    0 -0.30408474218E+01 -0.25921377907E+01 -0.81673725355E+00  0.40783564546E+01  0.51100000000E-03 0. -1.
        -11    1    3    3    0    0  0.79057251452E+01  0.92220864765E+01 -0.94014592971E+01  0.15360169473E+02  0.51100000000E-03 0.  1.
        -12    1    3    3    0    0 -0.12525063188E+02  0.47530350798E+01 -0.28056015572E+02  0.31090329045E+02  0.00000000000E+00 0.  1.
</event>
<event>
 7    1  0.2900470E-011  0.5052886E+02  0.7816164E-02  0.1300439E+00
        -11   -1    0    0    0    0  0.00000000000E+00  0.00000000000E+00  0.45593999997E+02  0.45594000000E+02  0.51100000000E-03 0. -1.
         11   -1    0    0    0    0 -0.00000000000E+00 -0.00000000000E+00 -0.45593999997E+02  0.45594000000E+02  0.51100000000E-03 0.  1.
    9900012    2    1    2    0    0 -0.16555984960E+02  0.36232674957E+02  0.81399333441E+01  0.50528857272E+02  0.29999992164E+02 0.  0.
         12    1    1    2    0    0  0.16555984960E+02 -0.36232674957E+02 -0.81399333441E+01  0.40659142728E+02  0.00000000000E+00 0. -1.
         11    1    3    3    0    0 -0.13739165575E+00  0.12829284458E+01  0.61595707306E+01  0.62932577979E+01  0.51100000000E-03 0. -1.
        -11    1    3    3    0    0 -0.17194954280E+02  0.33026101417E+02  0.78129270411E+01  0.38045126583E+02  0.51100000000E-03 0.  1.
        -12    1    3    3    0    0  0.77636097630E+00  0.19236450943E+01 -0.58325644276E+01  0.61904728912E+01  0.00000000000E+00 0.  1.
</event>
<event>
 7    1  0.2900470E-011  0.5052886E+02  0.7816164E-02  0.1300439E+00
        -11   -1    0    0    0    0  0.00000000000E+00  0.00000000000E+00  0.45593999997E+02  0.45594000000E+02  0.51100000000E-03 0. -1.
         11   -1    0    0    0    0 -0.00000000000E+00 -0.00000000000E+00 -0.45593999997E+02  0.45594000000E+02  0.51100000000E-03 0.  1.
    9900012    2    1    2    0    0 -0.40233673630E+01  0.47993336294E+01 -0.40173927787E+02  0.50528861272E+02  0.30000004323E+02 0.  0.
         12    1    1    2    0    0  0.40233673630E+01 -0.47993336294E+01  0.40173927787E+02  0.40659138728E+02  0.00000000000E+00 0. -1.
         11    1    3    3    0    0  0.44407760520E+01 -0.23628958356E+01  0.25716082745E+01  0.56495077708E+01  0.51100000000E-03 0. -1.
        -11    1    3    3    0    0 -0.43426132919E+01  0.51682262160E+01 -0.11779409693E+02  0.13576573404E+02  0.51100000000E-03 0.  1.
         12    1    3    3    0    0 -0.41215301231E+01  0.19940032489E+01 -0.30966126369E+02  0.31302780097E+02  0.00000000000E+00 0. -1.
</event>
<event>
 7    1  0.2900470E-011  0.5052886E+02  0.7816164E-02  0.1300439E+00
        -11   -1    0    0    0    0  0.00000000000E+00  0.00000000000E+00  0.45593999997E+02  0.45594000000E+02  0.51100000000E-03 0.  1.
         11   -1    0    0    0    0 -0.00000000000E+00 -0.00000000000E+00 -0.45593999997E+02  0.45594000000E+02  0.51100000000E-03 0. -1.
    9900012    2    1    2    0    0  0.10655073386E+02  0.31216904923E+02  0.23772667937E+02  0.50528862248E+02  0.30000007290E+02 0.  0.
         12    1    1    2    0    0 -0.10655073386E+02 -0.31216904923E+02 -0.23772667937E+02  0.40659137752E+02  0.00000000000E+00 0. -1.
         11    1    3    3    0    0  0.55604964330E+01  0.16460808283E+02  0.30213999040E+00  0.17377244279E+02  0.51100000000E-03 0. -1.
        -11    1    3    3    0    0  0.78623339486E+01  0.10523899319E+02  0.24674381079E+02  0.27953422579E+02  0.51100000000E-03 0.  1.
        -12    1    3    3    0    0 -0.27677569957E+01  0.42321973211E+01 -0.12038531318E+01  0.51981953902E+01  0.00000000000E+00 0.  1.
</event>
<event>
 7    1  0.2900470E-011  0.5052887E+02  0.7816164E-02  0.1300439E+00
        -11   -1    0    0    0    0  0.00000000000E+00  0.00000000000E+00  0.45593999997E+02  0.45594000000E+02  0.51100000000E-03 0.  1.
         11   -1    0    0    0    0 -0.00000000000E+00 -0.00000000000E+00 -0.45593999997E+02  0.45594000000E+02  0.51100000000E-03 0. -1.
    9900012    2    1    2    0    0  0.10236048788E+02 -0.38097352900E+02  0.98478384000E+01  0.50528869243E+02  0.30000028551E+02 0.  0.
         12    1    1    2    0    0 -0.10236048788E+02  0.38097352900E+02 -0.98478384000E+01  0.40659130757E+02  0.00000000000E+00 0. -1.
         11    1    3    3    0    0  0.93969887286E-01 -0.24253896559E+01  0.36226340705E+01  0.43605989488E+01  0.51100000000E-03 0. -1.
        -11    1    3    3    0    0  0.14984407028E+01 -0.21044672265E+02 -0.93890873064E+01  0.23092823907E+02  0.51100000000E-03 0.  1.
        -12    1    3    3    0    0  0.86436381976E+01 -0.14627290979E+02  0.15614291636E+02  0.23075446387E+02  0.00000000000E+00 0.  1.
</event>
<event>
 7    1  0.2900470E-011  0.5052886E+02  0.7816164E-02  0.1300439E+00
        -11   -1    0    0    0    0  0.00000000000E+00  0.00000000000E+00  0.45593999997E+02  0.45594000000E+02  0.51100000000E-03 0.  1.
         11   -1    0    0    0    0 -0.00000000000E+00 -0.00000000000E+00 -0.45593999997E+02  0.45594000000E+02  0.51100000000E-03 0. -1.
    9900012    2    1    2    0    0 -0.16794317642E+02  0.24366325727E+02  0.27881863861E+02  0.50528864903E+02  0.30000015358E+02 0.  0.
         12    1    1    2    0    0  0.16794317642E+02 -0.24366325727E+02 -0.27881863861E+02  0.40659135097E+02  0.00000000000E+00 0. -1.
         11    1    3    3    0    0 -0.22110624122E+01  0.38836755536E+01 -0.56706279456E+01  0.72199552876E+01  0.51100000000E-03 0. -1.
        -11    1    3    3    0    0 -0.18710795908E+01  0.11039950664E+02  0.17378439342E+02  0.20673451664E+02  0.51100000000E-03 0.  1.
        -12    1    3    3    0    0 -0.12712175639E+02  0.94426995096E+01  0.16174052465E+02  0.22635457951E+02  0.00000000000E+00 0.  1.
</event>
<event>
 7    1  0.2900470E-011  0.5052886E+02  0.7816164E-02  0.1300439E+00
        -11   -1    0    0    0    0  0.00000000000E+00  0.00000000000E+00  0.45593999997E+02  0.45594000000E+02  0.51100000000E-03 0.  1.
         11   -1    0    0    0    0 -0.00000000000E+00 -0.00000000000E+00 -0.45593999997E+02  0.45594000000E+02  0.51100000000E-03 0. -1.
    9900012    2    1    2    0    0 -0.25225211980E+02 -0.28285153634E+02  0.14724270448E+02  0.50528863564E+02  0.30000011288E+02 0.  0.
         12    1    1    2    0    0  0.25225211980E+02  0.28285153634E+02 -0.14724270448E+02  0.40659136436E+02  0.00000000000E+00 0. -1.
         11    1    3    3    0    0 -0.30262249913E+02 -0.20155753415E+02  0.88081202317E+01  0.37411778196E+02  0.51100000000E-03 0. -1.
        -11    1    3    3    0    0  0.37221192271E+01 -0.60703418560E+01  0.73912307330E+01  0.10263211671E+02  0.51100000000E-03 0.  1.
         12    1    3    3    0    0  0.13149187057E+01 -0.20590583634E+01 -0.14750805171E+01  0.28538736970E+01  0.00000000000E+00 0. -1.
</event>
<event>
 7    1  0.2900470E-011  0.5052888E+02  0.7816164E-02  0.1300439E+00
        -11   -1    0    0    0    0  0.00000000000E+00  0.00000000000E+00  0.45593999997E+02  0.45594000000E+02  0.51100000000E-03 0. -1.
         11   -1    0    0    0    0 -0.00000000000E+00 -0.00000000000E+00 -0.45593999997E+02  0.45594000000E+02  0.51100000000E-03 0.  1.
    9900012    2    1    2    0    0 -0.33165870466E+02 -0.15758197069E+02  0.17460478427E+02  0.50528879922E+02  0.30000061010E+02 0.  0.
         12    1    1    2    0    0  0.33165870466E+02  0.15758197069E+02 -0.17460478427E+02  0.40659120078E+02  0.00000000000E+00 0. -1.
         11    1    3    3    0    0 -0.25719858122E+01  0.34661344418E+01 -0.22439265562E+01  0.48646074495E+01  0.51100000000E-03 0. -1.
        -11    1    3    3    0    0 -0.20151808565E+02 -0.21841878128E+02  0.18056949606E+02  0.34773789813E+02  0.51100000000E-03 0.  1.
        -12    1    3    3    0    0 -0.10442076089E+02  0.26175466171E+01  0.16474553775E+01  0.10890482659E+02  0.00000000000E+00 0.  1.
</event>
<event>
 7    1  0.2900470E-011  0.5052886E+02  0.7816164E-02  0.1300439E+00
        -11   -1    0    0    0    0  0.00000000000E+00  0.00000000000E+00  0.45593999997E+02  0.45594000000E+02  0.51100000000E-03 0.  1.
         11   -1    0    0    0    0 -0.00000000000E+00 -0.00000000000E+00 -0.45593999997E+02  0.45594000000E+02  0.51100000000E-03 0. -1.
    9900012    2    1    2    0    0  0.16736845485E+02 -0.77985436663E+01  0.36224665903E+02  0.50528859578E+02  0.29999999174E+02 0.  0.
         12    1    1    2    0    0 -0.16736845485E+02  0.77985436663E+01 -0.36224665903E+02  0.40659140422E+02  0.00000000000E+00 0. -1.
         11    1    3    3    0    0  0.21317594658E+01  0.15306562777E+01  0.33283988480E+01  0.42385783245E+01  0.51100000000E-03 0. -1.
        -11    1    3    3    0    0  0.41396860976E+01 -0.24381987233E+01  0.33405833953E+02  0.33749541572E+02  0.51100000000E-03 0.  1.
        -12    1    3    3    0    0  0.10465399921E+02 -0.68910012206E+01 -0.50956689793E+00  0.12540739681E+02  0.00000000000E+00 0.  1.
</event>
<event>
 7    1  0.2900470E-011  0.5052884E+02  0.7816164E-02  0.1300439E+00
        -11   -1    0    0    0    0  0.00000000000E+00  0.00000000000E+00  0.45593999997E+02  0.45594000000E+02  0.51100000000E-03 0. -1.
         11   -1    0    0    0    0 -0.00000000000E+00 -0.00000000000E+00 -0.45593999997E+02  0.45594000000E+02  0.51100000000E-03 0.  1.
    9900012    2    1    2    0    0  0.24368701872E+02 -0.17780091791E+02 -0.27261727989E+02  0.50528842262E+02  0.29999946540E+02 0.  0.
         12    1    1    2    0    0 -0.24368701872E+02  0.17780091791E+02  0.27261727989E+02  0.40659157738E+02  0.00000000000E+00 0. -1.
         11    1    3    3    0    0  0.77254471604E+01  0.48615514724E+01 -0.57341686154E+01  0.10779513278E+02  0.51100000000E-03 0. -1.
        -11    1    3    3    0    0  0.35543308043E+01 -0.17513247207E+02 -0.61123672284E+01  0.18886718312E+02  0.51100000000E-03 0.  1.
        -12    1    3    3    0    0  0.13088923908E+02 -0.51283960562E+01 -0.15415192145E+02  0.20862610672E+02  0.00000000000E+00 0.  1.
</event>
<event>
 7    1  0.2900470E-011  0.5052885E+02  0.7816164E-02  0.1300439E+00
        -11   -1    0    0    0    0  0.00000000000E+00  0.00000000000E+00  0.45593999997E+02  0.45594000000E+02  0.51100000000E-03 0.  1.
         11   -1    0    0    0    0 -0.00000000000E+00 -0.00000000000E+00 -0.45593999997E+02  0.45594000000E+02  0.51100000000E-03 0. -1.
    9900012    2    1    2    0    0 -0.18653691323E+02  0.12672811440E+01  0.36105407892E+02  0.50528847519E+02  0.29999962517E+02 0.  0.
         12    1    1    2    0    0  0.18653691323E+02 -0.12672811440E+01 -0.36105407892E+02  0.40659152481E+02  0.00000000000E+00 0. -1.
         11    1    3    3    0    0  0.67706481382E+01 -0.14505447144E+00  0.31668603218E+01  0.74760766161E+01  0.51100000000E-03 0. -1.
        -11    1    3    3    0    0 -0.58546550492E+01 -0.42180983625E+01  0.10628879727E+02  0.12846883826E+02  0.51100000000E-03 0.  1.
         12    1    3    3    0    0 -0.19569684412E+02  0.56304339779E+01  0.22309667843E+02  0.30205887076E+02  0.00000000000E+00 0. -1.
</event>
<event>
 7    1  0.2900470E-011  0.5052885E+02  0.7816164E-02  0.1300439E+00
        -11   -1    0    0    0    0  0.00000000000E+00  0.00000000000E+00  0.45593999997E+02  0.45594000000E+02  0.51100000000E-03 0.  1.
         11   -1    0    0    0    0 -0.00000000000E+00 -0.00000000000E+00 -0.45593999997E+02  0.45594000000E+02  0.51100000000E-03 0. -1.
    9900012    2    1    2    0    0 -0.48539023369E+00 -0.39663990626E+02  0.89273972144E+01  0.50528853709E+02  0.29999981335E+02 0.  0.
         12    1    1    2    0    0  0.48539023369E+00  0.39663990626E+02 -0.89273972144E+01  0.40659146291E+02  0.00000000000E+00 0. -1.
         11    1    3    3    0    0 -0.33900680277E-01  0.22257444060E+01  0.80506745628E+01  0.83527509596E+01  0.51100000000E-03 0. -1.
        -11    1    3    3    0    0  0.10000474450E+01 -0.14946678569E+02  0.23040390321E+01  0.15156249248E+02  0.51100000000E-03 0.  1.
         12    1    3    3    0    0 -0.14515369985E+01 -0.26943056463E+02 -0.14273163805E+01  0.27019853502E+02  0.00000000000E+00 0. -1.
</event>
<event>
 7    1  0.2900470E-011  0.5052886E+02  0.7816164E-02  0.1300439E+00
        -11   -1    0    0    0    0  0.00000000000E+00  0.00000000000E+00  0.45593999997E+02  0.45594000000E+02  0.51100000000E-03 0.  1.
         11   -1    0    0    0    0 -0.00000000000E+00 -0.00000000000E+00 -0.45593999997E+02  0.45594000000E+02  0.51100000000E-03 0. -1.
    9900012    2    1    2    0    0  0.19424614842E+02  0.30626926102E+02  0.18380469792E+02  0.50528856699E+02  0.29999990422E+02 0.  0.
         12    1    1    2    0    0 -0.19424614842E+02 -0.30626926102E+02 -0.18380469792E+02  0.40659143301E+02  0.00000000000E+00 0. -1.
         11    1    3    3    0    0  0.17502582894E+01  0.22890794765E+02  0.63047338309E+01  0.23807594545E+02  0.51100000000E-03 0. -1.
        -11    1    3    3    0    0  0.41323096127E+01  0.10359742595E+01  0.10739216608E+02  0.11553354449E+02  0.51100000000E-03 0.  1.
         12    1    3    3    0    0  0.13542046939E+02  0.67001570774E+01  0.13365193531E+01  0.15167907705E+02  0.00000000000E+00 0. -1.
</event>
<event>
 7    1  0.2900470E-011  0.5052886E+02  0.7816164E-02  0.1300439E+00
        -11   -1    0    0    0    0  0.00000000000E+00  0.00000000000E+00  0.45593999997E+02  0.45594000000E+02  0.51100000000E-03 0. -1.
         11   -1    0    0    0    0 -0.00000000000E+00 -0.00000000000E+00 -0.45593999997E+02  0.45594000000E+02  0.51100000000E-03 0.  1.
    9900012    2    1    2    0    0  0.27296481227E+01  0.71509414279E+01 -0.39932174696E+02  0.50528861813E+02  0.30000005967E+02 0.  0.
         12    1    1    2    0    0 -0.27296481227E+01 -0.71509414279E+01  0.39932174696E+02  0.40659138187E+02  0.00000000000E+00 0. -1.
         11    1    3    3    0    0  0.80411820650E+01 -0.88042740165E+01 -0.15782078907E+02  0.19780037029E+02  0.51100000000E-03 0. -1.
        -11    1    3    3    0    0 -0.21247504036E+01  0.15392807590E+02 -0.21700691485E+02  0.26690318488E+02  0.51100000000E-03 0.  1.
         12    1    3    3    0    0 -0.31867835387E+01  0.56240785395E+00 -0.24494043031E+01  0.40585062963E+01  0.00000000000E+00 0. -1.
</event>
<event>
 7    1  0.2900470E-011  0.5052887E+02  0.7816164E-02  0.1300439E+00
        -11   -1    0    0    0    0  0.00000000000E+00  0.00000000000E+00  0.45593999997E+02  0.45594000000E+02  0.51100000000E-03 0.  1.
         11   -1    0    0    0    0 -0.00000000000E+00 -0.00000000000E+00 -0.45593999997E+02  0.45594000000E+02  0.51100000000E-03 0. -1.
    9900012    2    1    2    0    0  0.30659948118E+02  0.26220709713E+02 -0.50602793273E+01  0.50528874784E+02  0.30000045393E+02 0.  0.
         12    1    1    2    0    0 -0.30659948118E+02 -0.26220709713E+02  0.50602793273E+01  0.40659125216E+02  0.00000000000E+00 0. -1.
         11    1    3    3    0    0  0.14913962545E+02 -0.37674978922E+01 -0.13267303105E+00  0.15383040062E+02  0.51100000000E-03 0.  1.
        -11    1    3    3    0    0  0.46392106618E+01  0.99746852923E+01  0.21061952891E+01  0.11200566106E+02  0.51100000000E-03 0. -1.
         12    1    3    3    0    0  0.11106774911E+02  0.20013522313E+02 -0.70338015853E+01  0.23945268615E+02  0.00000000000E+00 0. -1.
</event>
<event>
 7    1  0.2900470E-011  0.5052886E+02  0.7816164E-02  0.1300439E+00
        -11   -1    0    0    0    0  0.00000000000E+00  0.00000000000E+00  0.45593999997E+02  0.45594000000E+02  0.51100000000E-03 0.  1.
         11   -1    0    0    0    0 -0.00000000000E+00 -0.00000000000E+00 -0.45593999997E+02  0.45594000000E+02  0.51100000000E-03 0. -1.
    9900012    2    1    2    0    0 -0.19372325512E+01  0.25072077053E+02  0.31950020147E+02  0.50528859514E+02  0.29999998977E+02 0.  0.
         12    1    1    2    0    0  0.19372325512E+01 -0.25072077053E+02 -0.31950020147E+02  0.40659140486E+02  0.00000000000E+00 0. -1.
         11    1    3    3    0    0  0.18368025450E+01  0.12242951811E+02 -0.28707982381E+00  0.12383300357E+02  0.51100000000E-03 0. -1.
        -11    1    3    3    0    0 -0.19386570384E+01  0.14779885140E+02  0.32181862450E+02  0.35466542922E+02  0.51100000000E-03 0.  1.
        -12    1    3    3    0    0 -0.18353780578E+01 -0.19507598991E+01  0.55237521348E-01  0.26790162342E+01  0.00000000000E+00 0.  1.
</event>
<event>
 7    1  0.2900470E-011  0.5052885E+02  0.7816164E-02  0.1300439E+00
        -11   -1    0    0    0    0  0.00000000000E+00  0.00000000000E+00  0.45593999997E+02  0.45594000000E+02  0.51100000000E-03 0.  1.
         11   -1    0    0    0    0 -0.00000000000E+00 -0.00000000000E+00 -0.45593999997E+02  0.45594000000E+02  0.51100000000E-03 0. -1.
    9900012    2    1    2    0    0  0.27839451700E+02  0.11684760448E+01  0.29610229222E+02  0.50528854881E+02  0.29999984897E+02 0.  0.
         12    1    1    2    0    0 -0.27839451700E+02 -0.11684760448E+01 -0.29610229222E+02  0.40659145119E+02  0.00000000000E+00 0. -1.
         11    1    3    3    0    0 -0.21340625968E+01 -0.28345037264E+01 -0.25771921701E+01  0.43852655888E+01  0.51100000000E-03 0. -1.
        -11    1    3    3    0    0  0.22740370690E+02  0.87647199930E+01  0.22829782836E+02  0.33393768286E+02  0.51100000000E-03 0.  1.
        -12    1    3    3    0    0  0.72331436065E+01 -0.47617402218E+01  0.93576385553E+01  0.12749821007E+02  0.00000000000E+00 0.  1.
</event>
<event>
 7    1  0.2900470E-011  0.5052889E+02  0.7816164E-02  0.1300439E+00
        -11   -1    0    0    0    0  0.00000000000E+00  0.00000000000E+00  0.45593999997E+02  0.45594000000E+02  0.51100000000E-03 0. -1.
         11   -1    0    0    0    0 -0.00000000000E+00 -0.00000000000E+00 -0.45593999997E+02  0.45594000000E+02  0.51100000000E-03 0.  1.
    9900012    2    1    2    0    0  0.37377903305E+02 -0.19044769904E+01 -0.15888005373E+02  0.50528887826E+02  0.30000085035E+02 0.  0.
         12    1    1    2    0    0 -0.37377903305E+02  0.19044769904E+01  0.15888005373E+02  0.40659112174E+02  0.00000000000E+00 0. -1.
         11    1    3    3    0    0  0.25741004904E+02  0.24694314027E+01 -0.72749119176E+01  0.26863018606E+02  0.51100000000E-03 0. -1.
        -11    1    3    3    0    0  0.12648121728E+01  0.98117094176E+00 -0.11524670086E+02  0.11635311216E+02  0.51100000000E-03 0.  1.
        -12    1    3    3    0    0  0.10372086228E+02 -0.53550793349E+01  0.29115766307E+01  0.12030558003E+02  0.00000000000E+00 0.  1.
</event>
<event>
 7    1  0.2900470E-011  0.5052886E+02  0.7816164E-02  0.1300439E+00
        -11   -1    0    0    0    0  0.00000000000E+00  0.00000000000E+00  0.45593999997E+02  0.45594000000E+02  0.51100000000E-03 0. -1.
         11   -1    0    0    0    0 -0.00000000000E+00 -0.00000000000E+00 -0.45593999997E+02  0.45594000000E+02  0.51100000000E-03 0.  1.
    9900012    2    1    2    0    0  0.34773289548E+02 -0.17606648342E+02 -0.11575396460E+02  0.50528861605E+02  0.30000005334E+02 0.  0.
         12    1    1    2    0    0 -0.34773289548E+02  0.17606648342E+02  0.11575396460E+02  0.40659138395E+02  0.00000000000E+00 0. -1.
         11    1    3    3    0    0  0.46747153903E+00 -0.46736275452E+01  0.46550708962E+01  0.66129425660E+01  0.51100000000E-03 0. -1.
        -11    1    3    3    0    0  0.24700877034E+02 -0.13177945520E-01 -0.10216090200E+02  0.26730170204E+02  0.51100000000E-03 0.  1.
         12    1    3    3    0    0  0.96049409755E+01 -0.12919842851E+02 -0.60143771569E+01  0.17185748835E+02  0.00000000000E+00 0. -1.
</event>
<event>
 7    1  0.2900470E-011  0.5052884E+02  0.7816164E-02  0.1300439E+00
        -11   -1    0    0    0    0  0.00000000000E+00  0.00000000000E+00  0.45593999997E+02  0.45594000000E+02  0.51100000000E-03 0. -1.
         11   -1    0    0    0    0 -0.00000000000E+00 -0.00000000000E+00 -0.45593999997E+02  0.45594000000E+02  0.51100000000E-03 0.  1.
    9900012    2    1    2    0    0 -0.18412665010E+02  0.35932177967E+02 -0.47978720451E+01  0.50528840855E+02  0.29999942263E+02 0.  0.
         12    1    1    2    0    0  0.18412665010E+02 -0.35932177967E+02  0.47978720451E+01  0.40659159145E+02  0.00000000000E+00 0. -1.
         11    1    3    3    0    0 -0.20137781557E+02  0.12196256915E+02 -0.91082840701E+01  0.25243608453E+02  0.51100000000E-03 0. -1.
        -11    1    3    3    0    0 -0.11484449724E+01  0.19573911692E+02  0.48511360980E+01  0.20198773886E+02  0.51100000000E-03 0.  1.
        -12    1    3    3    0    0  0.28735615192E+01  0.41620093600E+01 -0.54072407304E+00  0.50864585166E+01  0.00000000000E+00 0.  1.
</event>
<event>
 7    1  0.2900470E-011  0.5052886E+02  0.7816164E-02  0.1300439E+00
        -11   -1    0    0    0    0  0.00000000000E+00  0.00000000000E+00  0.45593999997E+02  0.45594000000E+02  0.51100000000E-03 0. -1.
         11   -1    0    0    0    0 -0.00000000000E+00 -0.00000000000E+00 -0.45593999997E+02  0.45594000000E+02  0.51100000000E-03 0.  1.
    9900012    2    1    2    0    0  0.38987291462E+02 -0.26849405108E+01 -0.11222657906E+02  0.50528857712E+02  0.29999993502E+02 0.  0.
         12    1    1    2    0    0 -0.38987291462E+02  0.26849405108E+01  0.11222657906E+02  0.40659142288E+02  0.00000000000E+00 0. -1.
         11    1    3    3    0    0  0.23156704783E+02  0.82778846326E+01 -0.84383396196E+01  0.25999267801E+02  0.51100000000E-03 0. -1.
        -11    1    3    3    0    0  0.73820504760E+01 -0.11232130328E+02 -0.69218594622E+01  0.15118450966E+02  0.51100000000E-03 0.  1.
         12    1    3    3    0    0  0.84485362030E+01  0.26930518505E+00  0.41375411757E+01  0.94111389447E+01  0.00000000000E+00 0. -1.
</event>
<event>
 7    1  0.2900470E-011  0.5052891E+02  0.7816164E-02  0.1300439E+00
        -11   -1    0    0    0    0  0.00000000000E+00  0.00000000000E+00  0.45593999997E+02  0.45594000000E+02  0.51100000000E-03 0.  1.
         11   -1    0    0    0    0 -0.00000000000E+00 -0.00000000000E+00 -0.45593999997E+02  0.45594000000E+02  0.51100000000E-03 0. -1.
    9900012    2    1    2    0    0 -0.26393761745E+02 -0.23416495522E+02  0.20203922161E+02  0.50528912550E+02  0.30000160187E+02 0.  0.
         12    1    1    2    0    0  0.26393761745E+02  0.23416495522E+02 -0.20203922161E+02  0.40659087450E+02  0.00000000000E+00 0. -1.
         11    1    3    3    0    0 -0.15480950340E+02 -0.18057608322E+02  0.64591183271E+01  0.24646647877E+02  0.51100000000E-03 0. -1.
        -11    1    3    3    0    0 -0.93670319442E+01 -0.75549806245E+01  0.17516602370E+02  0.21252067629E+02  0.51100000000E-03 0.  1.
         12    1    3    3    0    0 -0.15457794606E+01  0.21960934244E+01 -0.37717985361E+01  0.46301970440E+01  0.00000000000E+00 0. -1.
</event>
<event>
 7    1  0.2900470E-011  0.5052885E+02  0.7816164E-02  0.1300439E+00
        -11   -1    0    0    0    0  0.00000000000E+00  0.00000000000E+00  0.45593999997E+02  0.45594000000E+02  0.51100000000E-03 0.  1.
         11   -1    0    0    0    0 -0.00000000000E+00 -0.00000000000E+00 -0.45593999997E+02  0.45594000000E+02  0.51100000000E-03 0. -1.
    9900012    2    1    2    0    0  0.53365124827E+00  0.25935897805E+02  0.31308319798E+02  0.50528850142E+02  0.29999970492E+02 0.  0.
         12    1    1    2    0    0 -0.53365124827E+00 -0.25935897805E+02 -0.31308319798E+02  0.40659149858E+02  0.00000000000E+00 0. -1.
         11    1    3    3    0    0  0.69356011072E+01  0.50466978282E+00  0.12559528487E+02  0.14356148870E+02  0.51100000000E-03 0.  1.
        -11    1    3    3    0    0 -0.10355662210E+02  0.86016328237E+01  0.62636732771E+01  0.14847943636E+02  0.51100000000E-03 0. -1.
         12    1    3    3    0    0  0.39537123513E+01  0.16829595198E+02  0.12485118033E+02  0.21324757635E+02  0.00000000000E+00 0. -1.
</event>
<event>
 7    1  0.2900470E-011  0.5052886E+02  0.7816164E-02  0.1300439E+00
        -11   -1    0    0    0    0  0.00000000000E+00  0.00000000000E+00  0.45593999997E+02  0.45594000000E+02  0.51100000000E-03 0. -1.
         11   -1    0    0    0    0 -0.00000000000E+00 -0.00000000000E+00 -0.45593999997E+02  0.45594000000E+02  0.51100000000E-03 0.  1.
    9900012    2    1    2    0    0  0.16904535937E+02 -0.36050359981E+02 -0.82324904727E+01  0.50528859707E+02  0.29999999566E+02 0.  0.
         12    1    1    2    0    0 -0.16904535937E+02  0.36050359981E+02  0.82324904727E+01  0.40659140293E+02  0.00000000000E+00 0. -1.
         11    1    3    3    0    0  0.58156747905E+01  0.37983920953E+01 -0.30395122106E+01  0.75821164933E+01  0.51100000000E-03 0. -1.
        -11    1    3    3    0    0  0.80922916811E+01 -0.29867102859E+02  0.74332583669E+00  0.30952892456E+02  0.51100000000E-03 0.  1.
         12    1    3    3    0    0  0.29965694649E+01 -0.99816492173E+01 -0.59363040988E+01  0.11993850758E+02  0.00000000000E+00 0. -1.
</event>
<event>
 7    1  0.2900470E-011  0.5052885E+02  0.7816164E-02  0.1300439E+00
        -11   -1    0    0    0    0  0.00000000000E+00  0.00000000000E+00  0.45593999997E+02  0.45594000000E+02  0.51100000000E-03 0. -1.
         11   -1    0    0    0    0 -0.00000000000E+00 -0.00000000000E+00 -0.45593999997E+02  0.45594000000E+02  0.51100000000E-03 0.  1.
    9900012    2    1    2    0    0  0.29318993165E+02 -0.27413432605E+02  0.64859048064E+01  0.50528848403E+02  0.29999965206E+02 0.  0.
         12    1    1    2    0    0 -0.29318993165E+02  0.27413432605E+02 -0.64859048064E+01  0.40659151597E+02  0.00000000000E+00 0. -1.
         11    1    3    3    0    0  0.17812226772E+01 -0.15152143863E+02  0.57136545238E+01  0.16291288045E+02  0.51100000000E-03 0. -1.
        -11    1    3    3    0    0  0.10268916528E+02  0.26952560743E+01 -0.31139763926E+01  0.11063991196E+02  0.51100000000E-03 0.  1.
        -12    1    3    3    0    0  0.17268853960E+02 -0.14956544817E+02  0.38862266753E+01  0.23173569162E+02  0.00000000000E+00 0.  1.
</event>
<event>
 7    1  0.2900470E-011  0.5052887E+02  0.7816164E-02  0.1300439E+00
        -11   -1    0    0    0    0  0.00000000000E+00  0.00000000000E+00  0.45593999997E+02  0.45594000000E+02  0.51100000000E-03 0.  1.
         11   -1    0    0    0    0 -0.00000000000E+00 -0.00000000000E+00 -0.45593999997E+02  0.45594000000E+02  0.51100000000E-03 0. -1.
    9900012    2    1    2    0    0 -0.35769866372E+02  0.19137075514E+02  0.27302333901E+01  0.50528866047E+02  0.30000018835E+02 0.  0.
         12    1    1    2    0    0  0.35769866372E+02 -0.19137075514E+02 -0.27302333901E+01  0.40659133953E+02  0.00000000000E+00 0. -1.
         11    1    3    3    0    0 -0.29260201721E+02  0.76683222889E+00  0.53295875884E+00  0.29275100029E+02  0.51100000000E-03 0. -1.
        -11    1    3    3    0    0 -0.54865362302E+01  0.11196511556E+02  0.50685028513E+01  0.13459334019E+02  0.51100000000E-03 0.  1.
         12    1    3    3    0    0 -0.10231284210E+01  0.71737317292E+01 -0.28712282200E+01  0.77944319985E+01  0.00000000000E+00 0. -1.
</event>
<event>
 7    1  0.2900470E-011  0.5052886E+02  0.7816164E-02  0.1300439E+00
        -11   -1    0    0    0    0  0.00000000000E+00  0.00000000000E+00  0.45593999997E+02  0.45594000000E+02  0.51100000000E-03 0. -1.
         11   -1    0    0    0    0 -0.00000000000E+00 -0.00000000000E+00 -0.45593999997E+02  0.45594000000E+02  0.51100000000E-03 0.  1.
    9900012    2    1    2    0    0  0.35571689959E+02 -0.18032630649E+02 -0.79148421644E+01  0.50528860546E+02  0.30000002115E+02 0.  0.
         12    1    1    2    0    0 -0.35571689959E+02  0.18032630649E+02  0.79148421644E+01  0.40659139454E+02  0.00000000000E+00 0. -1.
         11    1    3    3    0    0  0.15045524674E+02 -0.56140036503E+01  0.89578276352E+01  0.18388244232E+02  0.51100000000E-03 0. -1.
        -11    1    3    3    0    0  0.18528011625E+02 -0.12528699974E+02 -0.91546886231E+01  0.24167413222E+02  0.51100000000E-03 0.  1.
         12    1    3    3    0    0  0.19981536598E+01  0.11007297545E+00 -0.77179811766E+01  0.79732030922E+01  0.00000000000E+00 0. -1.
</event>
<event>
 7    1  0.2900470E-011  0.5052886E+02  0.7816164E-02  0.1300439E+00
        -11   -1    0    0    0    0  0.00000000000E+00  0.00000000000E+00  0.45593999997E+02  0.45594000000E+02  0.51100000000E-03 0. -1.
         11   -1    0    0    0    0 -0.00000000000E+00 -0.00000000000E+00 -0.45593999997E+02  0.45594000000E+02  0.51100000000E-03 0.  1.
    9900012    2    1    2    0    0  0.89914232021E+01  0.38780973975E+02 -0.82677600848E+01  0.50528862153E+02  0.30000007000E+02 0.  0.
         12    1    1    2    0    0 -0.89914232021E+01 -0.38780973975E+02  0.82677600848E+01  0.40659137847E+02  0.00000000000E+00 0. -1.
         11    1    3    3    0    0  0.56551257082E+01  0.54726288466E+01 -0.43020461339E+01  0.89687075138E+01  0.51100000000E-03 0. -1.
        -11    1    3    3    0    0 -0.95749566831E+01  0.63916228249E+01 -0.13959611923E+01  0.11596609234E+02  0.51100000000E-03 0.  1.
        -12    1    3    3    0    0  0.12911254177E+02  0.26916722304E+02 -0.25697527586E+01  0.29963545405E+02  0.00000000000E+00 0.  1.
</event>
<event>
 7    1  0.2900470E-011  0.5052886E+02  0.7816164E-02  0.1300439E+00
        -11   -1    0    0    0    0  0.00000000000E+00  0.00000000000E+00  0.45593999997E+02  0.45594000000E+02  0.51100000000E-03 0.  1.
         11   -1    0    0    0    0 -0.00000000000E+00 -0.00000000000E+00 -0.45593999997E+02  0.45594000000E+02  0.51100000000E-03 0. -1.
    9900012    2    1    2    0    0 -0.13622269863E+02 -0.28332705719E+02  0.25784822569E+02  0.50528861735E+02  0.30000005728E+02 0.  0.
         12    1    1    2    0    0  0.13622269863E+02  0.28332705719E+02 -0.25784822569E+02  0.40659138265E+02  0.00000000000E+00 0. -1.
         11    1    3    3    0    0 -0.15151371756E+02 -0.25601080828E+01  0.32346128021E+01  0.15702895903E+02  0.51100000000E-03 0. -1.
        -11    1    3    3    0    0 -0.15490268825E+00 -0.65945097965E+01  0.95086492599E+01  0.11572638649E+02  0.51100000000E-03 0.  1.
         12    1    3    3    0    0  0.16840045810E+01 -0.19178087840E+02  0.13041560507E+02  0.23253327183E+02  0.00000000000E+00 0. -1.
</event>
<event>
 7    1  0.2900470E-011  0.5052879E+02  0.7816164E-02  0.1300439E+00
        -11   -1    0    0    0    0  0.00000000000E+00  0.00000000000E+00  0.45593999997E+02  0.45594000000E+02  0.51100000000E-03 0.  1.
         11   -1    0    0    0    0 -0.00000000000E+00 -0.00000000000E+00 -0.45593999997E+02  0.45594000000E+02  0.51100000000E-03 0. -1.
    9900012    2    1    2    0    0 -0.15832105049E+02 -0.29287357945E+02  0.23340234579E+02  0.50528789040E+02  0.29999784766E+02 0.  0.
         12    1    1    2    0    0  0.15832105049E+02  0.29287357945E+02 -0.23340234579E+02  0.40659210960E+02  0.00000000000E+00 0. -1.
         11    1    3    3    0    0  0.47075025551E+01 -0.50107969231E+01 -0.25913112650E+01  0.73473505731E+01  0.51100000000E-03 0. -1.
        -11    1    3    3    0    0 -0.93988621942E+01 -0.12939470145E+02  0.21280548202E+02  0.26620109508E+02  0.51100000000E-03 0.  1.
        -12    1    3    3    0    0 -0.11140745410E+02 -0.11337090877E+02  0.46509976421E+01  0.16561328959E+02  0.00000000000E+00 0.  1.
</event>
<event>
 7    1  0.2900470E-011  0.5052884E+02  0.7816164E-02  0.1300439E+00
        -11   -1    0    0    0    0  0.00000000000E+00  0.00000000000E+00  0.45593999997E+02  0.45594000000E+02  0.51100000000E-03 0.  1.
         11   -1    0    0    0    0 -0.00000000000E+00 -0.00000000000E+00 -0.45593999997E+02  0.45594000000E+02  0.51100000000E-03 0. -1.
    9900012    2    1    2    0    0 -0.18119674795E+02  0.84861145373E+01  0.35395347054E+02  0.50528839314E+02  0.29999937580E+02 0.  0.
         12    1    1    2    0    0  0.18119674795E+02 -0.84861145373E+01 -0.35395347054E+02  0.40659160686E+02  0.00000000000E+00 0. -1.
         11    1    3    3    0    0 -0.44545113632E+00 -0.24952379193E+01 -0.82429980942E-01  0.25360271985E+01  0.51100000000E-03 0. -1.
        -11    1    3    3    0    0 -0.22631703994E+02  0.52082321548E+01  0.32215478066E+02  0.39713432679E+02  0.51100000000E-03 0.  1.
        -12    1    3    3    0    0  0.49574803359E+01  0.57731203018E+01  0.32622989692E+01  0.82793794372E+01  0.00000000000E+00 0.  1.
</event>
<event>
 7    1  0.2900470E-011  0.5052881E+02  0.7816164E-02  0.1300439E+00
        -11   -1    0    0    0    0  0.00000000000E+00  0.00000000000E+00  0.45593999997E+02  0.45594000000E+02  0.51100000000E-03 0.  1.
         11   -1    0    0    0    0 -0.00000000000E+00 -0.00000000000E+00 -0.45593999997E+02  0.45594000000E+02  0.51100000000E-03 0. -1.
    9900012    2    1    2    0    0 -0.26337831282E+02 -0.30095409402E+02 -0.73317689140E+01  0.50528808430E+02  0.29999843703E+02 0.  0.
         12    1    1    2    0    0  0.26337831282E+02  0.30095409402E+02  0.73317689140E+01  0.40659191570E+02  0.00000000000E+00 0. -1.
         11    1    3    3    0    0 -0.24009095763E+02 -0.12189499096E+02 -0.13421127830E+02  0.30085665026E+02  0.51100000000E-03 0. -1.
        -11    1    3    3    0    0 -0.13047253585E+00 -0.10441148149E+02 -0.19028245150E+00  0.10443696923E+02  0.51100000000E-03 0.  1.
         12    1    3    3    0    0 -0.21982629834E+01 -0.74647621569E+01  0.62796413677E+01  0.99994464802E+01  0.00000000000E+00 0. -1.
</event>
<event>
 7    1  0.2900470E-011  0.5052886E+02  0.7816164E-02  0.1300439E+00
        -11   -1    0    0    0    0  0.00000000000E+00  0.00000000000E+00  0.45593999997E+02  0.45594000000E+02  0.51100000000E-03 0. -1.
         11   -1    0    0    0    0 -0.00000000000E+00 -0.00000000000E+00 -0.45593999997E+02  0.45594000000E+02  0.51100000000E-03 0.  1.
    9900012    2    1    2    0    0 -0.11279129125E+02 -0.50000927814E+01 -0.38742041943E+02  0.50528862090E+02  0.30000006810E+02 0.  0.
         12    1    1    2    0    0  0.11279129125E+02  0.50000927814E+01  0.38742041943E+02  0.40659137910E+02  0.00000000000E+00 0. -1.
         11    1    3    3    0    0 -0.61475155551E+01 -0.32718326195E+01  0.34482278673E+01  0.77709144814E+01  0.51100000000E-03 0. -1.
        -11    1    3    3    0    0 -0.22543414603E+01 -0.18102501777E+01 -0.33024755638E+02  0.33151071571E+02  0.51100000000E-03 0.  1.
         12    1    3    3    0    0 -0.28772721091E+01  0.81990015867E-01 -0.91655141728E+01  0.96068760378E+01  0.00000000000E+00 0. -1.
</event>
<event>
 7    1  0.2900470E-011  0.5052886E+02  0.7816164E-02  0.1300439E+00
        -11   -1    0    0    0    0  0.00000000000E+00  0.00000000000E+00  0.45593999997E+02  0.45594000000E+02  0.51100000000E-03 0.  1.
         11   -1    0    0    0    0 -0.00000000000E+00 -0.00000000000E+00 -0.45593999997E+02  0.45594000000E+02  0.51100000000E-03 0. -1.
    9900012    2    1    2    0    0 -0.18393933515E+02 -0.31307303455E+02  0.18294307304E+02  0.50528859337E+02  0.29999998440E+02 0.  0.
         12    1    1    2    0    0  0.18393933515E+02  0.31307303455E+02 -0.18294307304E+02  0.40659140663E+02  0.00000000000E+00 0. -1.
         11    1    3    3    0    0 -0.17845520436E+01 -0.10583270089E+02 -0.51230942808E+01  0.11892700579E+02  0.51100000000E-03 0. -1.
        -11    1    3    3    0    0 -0.19182005829E+02 -0.18128361478E+02  0.22904605607E+02  0.34945783663E+02  0.51100000000E-03 0.  1.
        -12    1    3    3    0    0  0.25726243580E+01 -0.25956718871E+01  0.51279597735E+00  0.36903750958E+01  0.00000000000E+00 0.  1.
</event>
<event>
 7    1  0.2900470E-011  0.5052887E+02  0.7816164E-02  0.1300439E+00
        -11   -1    0    0    0    0  0.00000000000E+00  0.00000000000E+00  0.45593999997E+02  0.45594000000E+02  0.51100000000E-03 0.  1.
         11   -1    0    0    0    0 -0.00000000000E+00 -0.00000000000E+00 -0.45593999997E+02  0.45594000000E+02  0.51100000000E-03 0. -1.
    9900012    2    1    2    0    0 -0.13875394434E+02 -0.11355464803E+02  0.36492350740E+02  0.50528870470E+02  0.30000032282E+02 0.  0.
         12    1    1    2    0    0  0.13875394434E+02  0.11355464803E+02 -0.36492350740E+02  0.40659129530E+02  0.00000000000E+00 0. -1.
         11    1    3    3    0    0 -0.10399097640E+02 -0.12915413910E+02  0.11381069936E+02  0.20111635969E+02  0.51100000000E-03 0. -1.
        -11    1    3    3    0    0  0.37374276703E+01 -0.99122019490E+00  0.21696359813E+02  0.22038214820E+02  0.51100000000E-03 0.  1.
         12    1    3    3    0    0 -0.72137244638E+01  0.25511693018E+01  0.34149209909E+01  0.83790196813E+01  0.00000000000E+00 0. -1.
</event>
<event>
 7    1  0.2900470E-011  0.5052886E+02  0.7816164E-02  0.1300439E+00
        -11   -1    0    0    0    0  0.00000000000E+00  0.00000000000E+00  0.45593999997E+02  0.45594000000E+02  0.51100000000E-03 0. -1.
         11   -1    0    0    0    0 -0.00000000000E+00 -0.00000000000E+00 -0.45593999997E+02  0.45594000000E+02  0.51100000000E-03 0.  1.
    9900012    2    1    2    0    0 -0.51685647702E+01 -0.34194486343E+02 -0.21381972014E+02  0.50528859757E+02  0.29999999719E+02 0.  0.
         12    1    1    2    0    0  0.51685647702E+01  0.34194486343E+02  0.21381972014E+02  0.40659140243E+02  0.00000000000E+00 0. -1.
         11    1    3    3    0    0 -0.83037228288E+01 -0.11907667631E+02  0.31178428046E+01  0.14848074126E+02  0.51100000000E-03 0. -1.
        -11    1    3    3    0    0  0.80976924963E+01 -0.11830003805E+02 -0.14394555928E+02  0.20315630790E+02  0.51100000000E-03 0.  1.
        -12    1    3    3    0    0 -0.49625344377E+01 -0.10456814908E+02 -0.10105258891E+02  0.15365154842E+02  0.00000000000E+00 0.  1.
</event>
<event>
 7    1  0.2900470E-011  0.5052885E+02  0.7816164E-02  0.1300439E+00
        -11   -1    0    0    0    0  0.00000000000E+00  0.00000000000E+00  0.45593999997E+02  0.45594000000E+02  0.51100000000E-03 0.  1.
         11   -1    0    0    0    0 -0.00000000000E+00 -0.00000000000E+00 -0.45593999997E+02  0.45594000000E+02  0.51100000000E-03 0. -1.
    9900012    2    1    2    0    0  0.14345309716E+01  0.19479666254E+00  0.40633364686E+02  0.50528854035E+02  0.29999982326E+02 0.  0.
         12    1    1    2    0    0 -0.14345309716E+01 -0.19479666254E+00 -0.40633364686E+02  0.40659145965E+02  0.00000000000E+00 0. -1.
         11    1    3    3    0    0  0.22880977131E-01  0.71746532551E+00  0.36241904780E+01  0.36945956361E+01  0.51100000000E-03 0. -1.
        -11    1    3    3    0    0  0.24448661900E+01  0.43771590355E+00  0.41782807000E+02  0.41856563726E+02  0.51100000000E-03 0.  1.
        -12    1    3    3    0    0 -0.10332161955E+01 -0.96038456653E+00 -0.47736327922E+01  0.49776946729E+01  0.00000000000E+00 0.  1.
</event>
<event>
 7    1  0.2900470E-011  0.5052892E+02  0.7816164E-02  0.1300439E+00
        -11   -1    0    0    0    0  0.00000000000E+00  0.00000000000E+00  0.45593999997E+02  0.45594000000E+02  0.51100000000E-03 0.  1.
         11   -1    0    0    0    0 -0.00000000000E+00 -0.00000000000E+00 -0.45593999997E+02  0.45594000000E+02  0.51100000000E-03 0. -1.
    9900012    2    1    2    0    0 -0.30915134390E+02  0.61164252620E+01  0.25690557320E+02  0.50528918262E+02  0.30000177550E+02 0.  0.
         12    1    1    2    0    0  0.30915134390E+02 -0.61164252620E+01 -0.25690557320E+02  0.40659081738E+02  0.00000000000E+00 0. -1.
         11    1    3    3    0    0 -0.20833723245E+02  0.13815692478E+02  0.69818830057E+01  0.25955039462E+02  0.51100000000E-03 0. -1.
        -11    1    3    3    0    0  0.65870093343E+00 -0.19740808244E+01  0.83072832615E+01  0.85639849059E+01  0.51100000000E-03 0.  1.
         12    1    3    3    0    0 -0.10740112078E+02 -0.57251863919E+01  0.10401391053E+02  0.16009893894E+02  0.00000000000E+00 0. -1.
</event>
<event>
 7    1  0.2900470E-011  0.5052886E+02  0.7816164E-02  0.1300439E+00
        -11   -1    0    0    0    0  0.00000000000E+00  0.00000000000E+00  0.45593999997E+02  0.45594000000E+02  0.51100000000E-03 0. -1.
         11   -1    0    0    0    0 -0.00000000000E+00 -0.00000000000E+00 -0.45593999997E+02  0.45594000000E+02  0.51100000000E-03 0.  1.
    9900012    2    1    2    0    0  0.32547152275E+02 -0.10007503532E+02 -0.22219328080E+02  0.50528858488E+02  0.29999995861E+02 0.  0.
         12    1    1    2    0    0 -0.32547152275E+02  0.10007503532E+02  0.22219328080E+02  0.40659141512E+02  0.00000000000E+00 0. -1.
         11    1    3    3    0    0  0.17261556540E+01 -0.23860578854E+01 -0.17442670441E+02  0.17689534701E+02  0.51100000000E-03 0. -1.
        -11    1    3    3    0    0  0.69632621287E+01  0.81833509571E+00 -0.24463102649E+01  0.74257071027E+01  0.51100000000E-03 0.  1.
         12    1    3    3    0    0  0.23857734493E+02 -0.84397807420E+01 -0.23303473740E+01  0.25413616684E+02  0.00000000000E+00 0. -1.
</event>
<event>
 7    1  0.2900470E-011  0.5052884E+02  0.7816164E-02  0.1300439E+00
        -11   -1    0    0    0    0  0.00000000000E+00  0.00000000000E+00  0.45593999997E+02  0.45594000000E+02  0.51100000000E-03 0. -1.
         11   -1    0    0    0    0 -0.00000000000E+00 -0.00000000000E+00 -0.45593999997E+02  0.45594000000E+02  0.51100000000E-03 0.  1.
    9900012    2    1    2    0    0 -0.30570694441E+02  0.25958647502E+02 -0.66894398520E+01  0.50528839356E+02  0.29999937707E+02 0.  0.
         12    1    1    2    0    0  0.30570694441E+02 -0.25958647502E+02  0.66894398520E+01  0.40659160644E+02  0.00000000000E+00 0. -1.
         11    1    3    3    0    0 -0.44196375413E+01 -0.54971205287E+01 -0.25941171410E+00  0.70582451645E+01  0.51100000000E-03 0. -1.
        -11    1    3    3    0    0 -0.13086485832E+02  0.22952245335E+02  0.46636942208E+00  0.26424972621E+02  0.51100000000E-03 0.  1.
         12    1    3    3    0    0 -0.13064571067E+02  0.85035226964E+01 -0.68963975600E+01  0.17045621570E+02  0.00000000000E+00 0. -1.
</event>
<event>
 7    1  0.2900470E-011  0.5052886E+02  0.7816164E-02  0.1300439E+00
        -11   -1    0    0    0    0  0.00000000000E+00  0.00000000000E+00  0.45593999997E+02  0.45594000000E+02  0.51100000000E-03 0. -1.
         11   -1    0    0    0    0 -0.00000000000E+00 -0.00000000000E+00 -0.45593999997E+02  0.45594000000E+02  0.51100000000E-03 0.  1.
    9900012    2    1    2    0    0 -0.30354499011E+02 -0.20298693356E+02  0.17881071349E+02  0.50528864806E+02  0.30000015064E+02 0.  0.
         12    1    1    2    0    0  0.30354499011E+02  0.20298693356E+02 -0.17881071349E+02  0.40659135194E+02  0.00000000000E+00 0. -1.
         11    1    3    3    0    0 -0.15693799699E+01  0.56669281319E+00  0.42094275566E+01  0.45280652435E+01  0.51100000000E-03 0. -1.
        -11    1    3    3    0    0 -0.17734567033E+02 -0.15710458956E+02 -0.45010353415E+01  0.24116233285E+02  0.51100000000E-03 0.  1.
        -12    1    3    3    0    0 -0.11050552008E+02 -0.51549272134E+01  0.18172679134E+02  0.21884566278E+02  0.00000000000E+00 0.  1.
</event>
<event>
 7    1  0.2900470E-011  0.5052886E+02  0.7816164E-02  0.1300439E+00
        -11   -1    0    0    0    0  0.00000000000E+00  0.00000000000E+00  0.45593999997E+02  0.45594000000E+02  0.51100000000E-03 0.  1.
         11   -1    0    0    0    0 -0.00000000000E+00 -0.00000000000E+00 -0.45593999997E+02  0.45594000000E+02  0.51100000000E-03 0. -1.
    9900012    2    1    2    0    0  0.22550035988E+02  0.81601845605E+01  0.32834024393E+02  0.50528857204E+02  0.29999991956E+02 0.  0.
         12    1    1    2    0    0 -0.22550035988E+02 -0.81601845605E+01 -0.32834024393E+02  0.40659142796E+02  0.00000000000E+00 0. -1.
         11    1    3    3    0    0  0.22285815744E+01 -0.46568352733E+01  0.45359390675E+01  0.68722219174E+01  0.51100000000E-03 0. -1.
        -11    1    3    3    0    0  0.81839611134E+00  0.13688785387E+02  0.11217868906E+02  0.17717031372E+02  0.51100000000E-03 0.  1.
        -12    1    3    3    0    0  0.19503058302E+02 -0.87176555321E+00  0.17080216419E+02  0.25939603914E+02  0.00000000000E+00 0.  1.
</event>
<event>
 7    1  0.2900470E-011  0.5052886E+02  0.7816164E-02  0.1300439E+00
        -11   -1    0    0    0    0  0.00000000000E+00  0.00000000000E+00  0.45593999997E+02  0.45594000000E+02  0.51100000000E-03 0. -1.
         11   -1    0    0    0    0 -0.00000000000E+00 -0.00000000000E+00 -0.45593999997E+02  0.45594000000E+02  0.51100000000E-03 0.  1.
    9900012    2    1    2    0    0  0.38720729078E+02 -0.12348146724E+02 -0.11807093474E+01  0.50528860039E+02  0.30000000573E+02 0.  0.
         12    1    1    2    0    0 -0.38720729078E+02  0.12348146724E+02  0.11807093474E+01  0.40659139961E+02  0.00000000000E+00 0. -1.
         11    1    3    3    0    0 -0.18865910269E+01  0.34679072596E+01  0.37074630373E+01  0.54157999315E+01  0.51100000000E-03 0. -1.
        -11    1    3    3    0    0  0.37884786134E+02 -0.17374023133E+02 -0.41076687603E+01  0.41880623719E+02  0.51100000000E-03 0.  1.
        -12    1    3    3    0    0  0.27225339711E+01  0.15579691492E+01 -0.78050362438E+00  0.32324363879E+01  0.00000000000E+00 0.  1.
</event>
<event>
 7    1  0.2900470E-011  0.5052887E+02  0.7816164E-02  0.1300439E+00
        -11   -1    0    0    0    0  0.00000000000E+00  0.00000000000E+00  0.45593999997E+02  0.45594000000E+02  0.51100000000E-03 0. -1.
         11   -1    0    0    0    0 -0.00000000000E+00 -0.00000000000E+00 -0.45593999997E+02  0.45594000000E+02  0.51100000000E-03 0.  1.
    9900012    2    1    2    0    0 -0.28567518920E+02  0.17107971388E+02 -0.23331937652E+02  0.50528866501E+02  0.30000020217E+02 0.  0.
         12    1    1    2    0    0  0.28567518920E+02 -0.17107971388E+02  0.23331937652E+02  0.40659133499E+02  0.00000000000E+00 0. -1.
         11    1    3    3    0    0 -0.52956284310E+01 -0.48394009511E+01  0.31670301845E+01  0.78417831196E+01  0.51100000000E-03 0. -1.
        -11    1    3    3    0    0 -0.14235275948E+02  0.11566120926E+02 -0.20956940978E+02  0.27849804487E+02  0.51100000000E-03 0.  1.
        -12    1    3    3    0    0 -0.90366145418E+01  0.10381251413E+02 -0.55420268583E+01  0.14837278894E+02  0.00000000000E+00 0.  1.
</event>
<event>
 7    1  0.2900470E-011  0.5052888E+02  0.7816164E-02  0.1300439E+00
        -11   -1    0    0    0    0  0.00000000000E+00  0.00000000000E+00  0.45593999997E+02  0.45594000000E+02  0.51100000000E-03 0. -1.
         11   -1    0    0    0    0 -0.00000000000E+00 -0.00000000000E+00 -0.45593999997E+02  0.45594000000E+02  0.51100000000E-03 0.  1.
    9900012    2    1    2    0    0  0.19262644981E+02  0.35611972270E+02  0.37285132492E+01  0.50528882060E+02  0.30000067510E+02 0.  0.
         12    1    1    2    0    0 -0.19262644981E+02 -0.35611972270E+02 -0.37285132492E+01  0.40659117940E+02  0.00000000000E+00 0. -1.
         11    1    3    3    0    0 -0.60508042586E+01  0.27684795206E+01  0.58303684240E+00  0.66795690918E+01  0.51100000000E-03 0. -1.
        -11    1    3    3    0    0  0.24719294898E+02  0.26182523203E+02 -0.92634136092E+00  0.36019802472E+02  0.51100000000E-03 0.  1.
        -12    1    3    3    0    0  0.59415434130E+00  0.66609695462E+01  0.40718177677E+01  0.78295104962E+01  0.00000000000E+00 0.  1.
</event>
<event>
 7    1  0.2900470E-011  0.5052886E+02  0.7816164E-02  0.1300439E+00
        -11   -1    0    0    0    0  0.00000000000E+00  0.00000000000E+00  0.45593999997E+02  0.45594000000E+02  0.51100000000E-03 0. -1.
         11   -1    0    0    0    0 -0.00000000000E+00 -0.00000000000E+00 -0.45593999997E+02  0.45594000000E+02  0.51100000000E-03 0.  1.
    9900012    2    1    2    0    0 -0.39622560381E+02 -0.90103263209E+01 -0.14255169746E+01  0.50528863632E+02  0.30000011495E+02 0.  0.
         12    1    1    2    0    0  0.39622560381E+02  0.90103263209E+01  0.14255169746E+01  0.40659136368E+02  0.00000000000E+00 0. -1.
         11    1    3    3    0    0 -0.50883190359E+01  0.79914630874E+01  0.15439298739E+01  0.95988641309E+01  0.51100000000E-03 0. -1.
        -11    1    3    3    0    0 -0.13255636067E+02 -0.10185168282E+02 -0.71790958542E+01  0.18193101935E+02  0.51100000000E-03 0.  1.
         12    1    3    3    0    0 -0.21278605278E+02 -0.68166211266E+01  0.42096490056E+01  0.22736897566E+02  0.00000000000E+00 0. -1.
</event>
<event>
 7    1  0.2900470E-011  0.5052884E+02  0.7816164E-02  0.1300439E+00
        -11   -1    0    0    0    0  0.00000000000E+00  0.00000000000E+00  0.45593999997E+02  0.45594000000E+02  0.51100000000E-03 0.  1.
         11   -1    0    0    0    0 -0.00000000000E+00 -0.00000000000E+00 -0.45593999997E+02  0.45594000000E+02  0.51100000000E-03 0. -1.
    9900012    2    1    2    0    0  0.22292825170E+02  0.27957655933E+02  0.19353735356E+02  0.50528835577E+02  0.29999926221E+02 0.  0.
         12    1    1    2    0    0 -0.22292825170E+02 -0.27957655933E+02 -0.19353735356E+02  0.40659164423E+02  0.00000000000E+00 0. -1.
         11    1    3    3    0    0 -0.54363710446E+01  0.10774724231E+02  0.86318479492E+01  0.14837709111E+02  0.51100000000E-03 0. -1.
        -11    1    3    3    0    0  0.11770682872E+02  0.28383188406E+01  0.10478766416E+01  0.12153315384E+02  0.51100000000E-03 0.  1.
         12    1    3    3    0    0  0.15958513343E+02  0.14344612862E+02  0.96740107651E+01  0.23537811082E+02  0.00000000000E+00 0. -1.
</event>
<event>
 7    1  0.2900470E-011  0.5052886E+02  0.7816164E-02  0.1300439E+00
        -11   -1    0    0    0    0  0.00000000000E+00  0.00000000000E+00  0.45593999997E+02  0.45594000000E+02  0.51100000000E-03 0.  1.
         11   -1    0    0    0    0 -0.00000000000E+00 -0.00000000000E+00 -0.45593999997E+02  0.45594000000E+02  0.51100000000E-03 0. -1.
    9900012    2    1    2    0    0 -0.22738916554E+02 -0.19269815078E+02  0.27654687039E+02  0.50528858170E+02  0.29999994892E+02 0.  0.
         12    1    1    2    0    0  0.22738916554E+02  0.19269815078E+02 -0.27654687039E+02  0.40659141830E+02  0.00000000000E+00 0. -1.
         11    1    3    3    0    0 -0.72603289857E+01 -0.15628501975E+02  0.13446338783E+01  0.17284978782E+02  0.51100000000E-03 0. -1.
        -11    1    3    3    0    0  0.48422230424E+00  0.17258162317E+01  0.86787297788E+01  0.88618995559E+01  0.51100000000E-03 0.  1.
         12    1    3    3    0    0 -0.15962809872E+02 -0.53671293345E+01  0.17631323381E+02  0.24381979831E+02  0.00000000000E+00 0. -1.
</event>
<event>
 7    1  0.2900470E-011  0.5052885E+02  0.7816164E-02  0.1300439E+00
        -11   -1    0    0    0    0  0.00000000000E+00  0.00000000000E+00  0.45593999997E+02  0.45594000000E+02  0.51100000000E-03 0.  1.
         11   -1    0    0    0    0 -0.00000000000E+00 -0.00000000000E+00 -0.45593999997E+02  0.45594000000E+02  0.51100000000E-03 0. -1.
    9900012    2    1    2    0    0 -0.11705834726E+01 -0.44231580884E+00  0.40639886869E+02  0.50528852029E+02  0.29999976228E+02 0.  0.
         12    1    1    2    0    0  0.11705834726E+01  0.44231580884E+00 -0.40639886869E+02  0.40659147971E+02  0.00000000000E+00 0. -1.
         11    1    3    3    0    0  0.89098755150E+01 -0.31695602252E+01  0.16522658294E+01  0.96001029342E+01  0.51100000000E-03 0. -1.
        -11    1    3    3    0    0 -0.17564364510E+01  0.35485681813E+01  0.99017903135E+01  0.10664091936E+02  0.51100000000E-03 0.  1.
         12    1    3    3    0    0 -0.83240225367E+01 -0.82132376499E+00  0.29085830726E+02  0.30264657159E+02  0.00000000000E+00 0. -1.
</event>
<event>
 7    1  0.2900470E-011  0.5052886E+02  0.7816164E-02  0.1300439E+00
        -11   -1    0    0    0    0  0.00000000000E+00  0.00000000000E+00  0.45593999997E+02  0.45594000000E+02  0.51100000000E-03 0.  1.
         11   -1    0    0    0    0 -0.00000000000E+00 -0.00000000000E+00 -0.45593999997E+02  0.45594000000E+02  0.51100000000E-03 0. -1.
    9900012    2    1    2    0    0 -0.14899814354E+02  0.37790247543E+02  0.17487628871E+01  0.50528862666E+02  0.30000008560E+02 0.  0.
         12    1    1    2    0    0  0.14899814354E+02 -0.37790247543E+02 -0.17487628871E+01  0.40659137334E+02  0.00000000000E+00 0. -1.
         11    1    3    3    0    0 -0.10497454325E+02  0.61269973885E+01 -0.63436012841E+01  0.13710504069E+02  0.51100000000E-03 0. -1.
        -11    1    3    3    0    0 -0.71544765940E+01  0.31476521041E+02  0.49829083009E+01  0.32661709807E+02  0.51100000000E-03 0.  1.
        -12    1    3    3    0    0  0.27521165655E+01  0.18672911350E+00  0.31094558702E+01  0.41566487897E+01  0.00000000000E+00 0.  1.
</event>
<event>
 7    1  0.2900470E-011  0.5052885E+02  0.7816164E-02  0.1300439E+00
        -11   -1    0    0    0    0  0.00000000000E+00  0.00000000000E+00  0.45593999997E+02  0.45594000000E+02  0.51100000000E-03 0. -1.
         11   -1    0    0    0    0 -0.00000000000E+00 -0.00000000000E+00 -0.45593999997E+02  0.45594000000E+02  0.51100000000E-03 0.  1.
    9900012    2    1    2    0    0 -0.19351189432E+02 -0.31488082786E+02 -0.16946930889E+02  0.50528851502E+02  0.29999974626E+02 0.  0.
         12    1    1    2    0    0  0.19351189432E+02  0.31488082786E+02  0.16946930889E+02  0.40659148498E+02  0.00000000000E+00 0. -1.
         11    1    3    3    0    0  0.52875533299E-01 -0.22557438273E+01 -0.12371293583E+02  0.12575375987E+02  0.51100000000E-03 0.  1.
        -11    1    3    3    0    0 -0.12844589961E+02 -0.25697652069E+02 -0.78984434105E+01  0.29794936175E+02  0.51100000000E-03 0. -1.
         12    1    3    3    0    0 -0.65594750049E+01 -0.35346868896E+01  0.33228061044E+01  0.81585393396E+01  0.00000000000E+00 0. -1.
</event>
<event>
 7    1  0.2900470E-011  0.5052886E+02  0.7816164E-02  0.1300439E+00
        -11   -1    0    0    0    0  0.00000000000E+00  0.00000000000E+00  0.45593999997E+02  0.45594000000E+02  0.51100000000E-03 0. -1.
         11   -1    0    0    0    0 -0.00000000000E+00 -0.00000000000E+00 -0.45593999997E+02  0.45594000000E+02  0.51100000000E-03 0.  1.
    9900012    2    1    2    0    0 -0.23362794756E+02  0.30543145901E+02 -0.13208393509E+02  0.50528860813E+02  0.30000002927E+02 0.  0.
         12    1    1    2    0    0  0.23362794756E+02 -0.30543145901E+02  0.13208393509E+02  0.40659139187E+02  0.00000000000E+00 0. -1.
         11    1    3    3    0    0 -0.10650527575E+02  0.45035664129E+01 -0.83736312287E+00  0.11593835661E+02  0.51100000000E-03 0. -1.
        -11    1    3    3    0    0  0.45571983677E+01  0.91941743175E+01 -0.10587671399E+02  0.14744479789E+02  0.51100000000E-03 0.  1.
        -12    1    3    3    0    0 -0.17269465549E+02  0.16845405170E+02 -0.17833589870E+01  0.24190545363E+02  0.00000000000E+00 0.  1.
</event>
<event>
 7    1  0.2900470E-011  0.5052886E+02  0.7816164E-02  0.1300439E+00
        -11   -1    0    0    0    0  0.00000000000E+00  0.00000000000E+00  0.45593999997E+02  0.45594000000E+02  0.51100000000E-03 0.  1.
         11   -1    0    0    0    0 -0.00000000000E+00 -0.00000000000E+00 -0.45593999997E+02  0.45594000000E+02  0.51100000000E-03 0. -1.
    9900012    2    1    2    0    0  0.19579545389E+02 -0.21249627203E+02  0.28605250537E+02  0.50528860656E+02  0.30000002451E+02 0.  0.
         12    1    1    2    0    0 -0.19579545389E+02  0.21249627203E+02 -0.28605250537E+02  0.40659139344E+02  0.00000000000E+00 0. -1.
         11    1    3    3    0    0  0.23996264465E+01 -0.34548140249E+01 -0.27845122754E+01  0.50445471455E+01  0.51100000000E-03 0. -1.
        -11    1    3    3    0    0  0.21200979152E+02 -0.91664538468E+01  0.24898964588E+02  0.33962682917E+02  0.51100000000E-03 0.  1.
        -12    1    3    3    0    0 -0.40210602095E+01 -0.86283593309E+01  0.64907982243E+01  0.11521630594E+02  0.00000000000E+00 0.  1.
</event>
<event>
 7    1  0.2900470E-011  0.5052886E+02  0.7816164E-02  0.1300439E+00
        -11   -1    0    0    0    0  0.00000000000E+00  0.00000000000E+00  0.45593999997E+02  0.45594000000E+02  0.51100000000E-03 0.  1.
         11   -1    0    0    0    0 -0.00000000000E+00 -0.00000000000E+00 -0.45593999997E+02  0.45594000000E+02  0.51100000000E-03 0. -1.
    9900012    2    1    2    0    0  0.31499883391E+02 -0.15050117308E+02  0.20842680262E+02  0.50528855824E+02  0.29999987762E+02 0.  0.
         12    1    1    2    0    0 -0.31499883391E+02  0.15050117308E+02 -0.20842680262E+02  0.40659144176E+02  0.00000000000E+00 0. -1.
         11    1    3    3    0    0  0.27882441401E+02 -0.44983653234E+01  0.20974901507E+02  0.35179714646E+02  0.51100000000E-03 0.  1.
        -11    1    3    3    0    0 -0.28620715771E+01 -0.59063607667E+01 -0.25140067428E+01  0.70282843840E+01  0.51100000000E-03 0. -1.
        -12    1    3    3    0    0  0.64795135670E+01 -0.46453912174E+01  0.23817854982E+01  0.83208567941E+01  0.00000000000E+00 0.  1.
</event>
<event>
 7    1  0.2900470E-011  0.5052887E+02  0.7816164E-02  0.1300439E+00
        -11   -1    0    0    0    0  0.00000000000E+00  0.00000000000E+00  0.45593999997E+02  0.45594000000E+02  0.51100000000E-03 0. -1.
         11   -1    0    0    0    0 -0.00000000000E+00 -0.00000000000E+00 -0.45593999997E+02  0.45594000000E+02  0.51100000000E-03 0.  1.
    9900012    2    1    2    0    0  0.31631648300E+01  0.14914748877E+02 -0.37692304361E+02  0.50528866293E+02  0.30000019584E+02 0.  0.
         12    1    1    2    0    0 -0.31631648300E+01 -0.14914748877E+02  0.37692304361E+02  0.40659133707E+02  0.00000000000E+00 0. -1.
         11    1    3    3    0    0 -0.92103334447E+00 -0.54320153386E+01 -0.20528470085E+02  0.21254956536E+02  0.51100000000E-03 0. -1.
        -11    1    3    3    0    0 -0.29715791499E+01  0.12636144181E+02 -0.11722852796E+02  0.17490789014E+02  0.51100000000E-03 0.  1.
         12    1    3    3    0    0  0.70557773244E+01  0.77106200343E+01 -0.54409814794E+01  0.11783120742E+02  0.00000000000E+00 0. -1.
</event>
<event>
 7    1  0.2900470E-011  0.5052887E+02  0.7816164E-02  0.1300439E+00
        -11   -1    0    0    0    0  0.00000000000E+00  0.00000000000E+00  0.45593999997E+02  0.45594000000E+02  0.51100000000E-03 0.  1.
         11   -1    0    0    0    0 -0.00000000000E+00 -0.00000000000E+00 -0.45593999997E+02  0.45594000000E+02  0.51100000000E-03 0. -1.
    9900012    2    1    2    0    0  0.19195471337E+02 -0.81379828218E+01  0.34906623503E+02  0.50528865127E+02  0.30000016041E+02 0.  0.
         12    1    1    2    0    0 -0.19195471337E+02  0.81379828218E+01 -0.34906623503E+02  0.40659134873E+02  0.00000000000E+00 0. -1.
         11    1    3    3    0    0  0.36276436403E+01 -0.12027779450E+02  0.24758552484E+02  0.27763522800E+02  0.51100000000E-03 0. -1.
        -11    1    3    3    0    0  0.81559110787E+01  0.51653881766E+01  0.11614459349E+02  0.15102840355E+02  0.51100000000E-03 0.  1.
         12    1    3    3    0    0  0.74119166176E+01 -0.12755915480E+01 -0.14663883308E+01  0.76625019726E+01  0.00000000000E+00 0. -1.
</event>
<event>
 7    1  0.2900470E-011  0.5052886E+02  0.7816164E-02  0.1300439E+00
        -11   -1    0    0    0    0  0.00000000000E+00  0.00000000000E+00  0.45593999997E+02  0.45594000000E+02  0.51100000000E-03 0.  1.
         11   -1    0    0    0    0 -0.00000000000E+00 -0.00000000000E+00 -0.45593999997E+02  0.45594000000E+02  0.51100000000E-03 0. -1.
    9900012    2    1    2    0    0 -0.13129726553E+02  0.30681048808E+02  0.23226049405E+02  0.50528857777E+02  0.29999993699E+02 0.  0.
         12    1    1    2    0    0  0.13129726553E+02 -0.30681048808E+02 -0.23226049405E+02  0.40659142223E+02  0.00000000000E+00 0. -1.
         11    1    3    3    0    0 -0.61987726284E+01  0.57527231312E+01  0.14473060256E+01  0.85798193755E+01  0.51100000000E-03 0. -1.
        -11    1    3    3    0    0 -0.11720976538E+01 -0.40266776794E+01  0.87030512643E+01  0.96607995328E+01  0.51100000000E-03 0.  1.
        -12    1    3    3    0    0 -0.57588562707E+01  0.28955003357E+02  0.13075692116E+02  0.32288238869E+02  0.00000000000E+00 0.  1.
</event>
<event>
 7    1  0.2900470E-011  0.5052887E+02  0.7816164E-02  0.1300439E+00
        -11   -1    0    0    0    0  0.00000000000E+00  0.00000000000E+00  0.45593999997E+02  0.45594000000E+02  0.51100000000E-03 0. -1.
         11   -1    0    0    0    0 -0.00000000000E+00 -0.00000000000E+00 -0.45593999997E+02  0.45594000000E+02  0.51100000000E-03 0.  1.
    9900012    2    1    2    0    0  0.20401229922E+02 -0.26464916827E+02  0.23163828358E+02  0.50528868809E+02  0.30000027231E+02 0.  0.
         12    1    1    2    0    0 -0.20401229922E+02  0.26464916827E+02 -0.23163828358E+02  0.40659131191E+02  0.00000000000E+00 0. -1.
         11    1    3    3    0    0  0.22034797225E+01  0.29908613280E+01 -0.16104979820E+01  0.40489848582E+01  0.51100000000E-03 0. -1.
        -11    1    3    3    0    0  0.21863488077E+02 -0.24112871952E+02  0.22675571407E+02  0.39668932977E+02  0.51100000000E-03 0.  1.
        -12    1    3    3    0    0 -0.36657378779E+01 -0.53429062034E+01  0.20987549337E+01  0.68109509732E+01  0.00000000000E+00 0.  1.
</event>
<event>
 7    1  0.2900470E-011  0.5052888E+02  0.7816164E-02  0.1300439E+00
        -11   -1    0    0    0    0  0.00000000000E+00  0.00000000000E+00  0.45593999997E+02  0.45594000000E+02  0.51100000000E-03 0. -1.
         11   -1    0    0    0    0 -0.00000000000E+00 -0.00000000000E+00 -0.45593999997E+02  0.45594000000E+02  0.51100000000E-03 0.  1.
    9900012    2    1    2    0    0 -0.21375910267E+02 -0.11889460142E+02 -0.32478847058E+02  0.50528876689E+02  0.30000051183E+02 0.  0.
         12    1    1    2    0    0  0.21375910267E+02  0.11889460142E+02  0.32478847058E+02  0.40659123311E+02  0.00000000000E+00 0. -1.
         11    1    3    3    0    0 -0.82701133472E+00  0.34306243795E+01  0.28717259205E+01  0.45497188270E+01  0.51100000000E-03 0. -1.
        -11    1    3    3    0    0 -0.16818858674E+01 -0.75531087755E+01 -0.16395529337E+02  0.18129853136E+02  0.51100000000E-03 0.  1.
         12    1    3    3    0    0 -0.18867013065E+02 -0.77669757457E+01 -0.18955043642E+02  0.27849304726E+02  0.00000000000E+00 0. -1.
</event>
<event>
 7    1  0.2900470E-011  0.5052886E+02  0.7816164E-02  0.1300439E+00
        -11   -1    0    0    0    0  0.00000000000E+00  0.00000000000E+00  0.45593999997E+02  0.45594000000E+02  0.51100000000E-03 0.  1.
         11   -1    0    0    0    0 -0.00000000000E+00 -0.00000000000E+00 -0.45593999997E+02  0.45594000000E+02  0.51100000000E-03 0. -1.
    9900012    2    1    2    0    0 -0.13652178138E+01 -0.38031209290E+02 -0.14315342450E+02  0.50528859217E+02  0.29999998076E+02 0.  0.
         12    1    1    2    0    0  0.13652178138E+01  0.38031209290E+02  0.14315342450E+02  0.40659140783E+02  0.00000000000E+00 0. -1.
         11    1    3    3    0    0 -0.11082482845E+01 -0.14657044149E+01  0.26851269323E+01  0.32536764737E+01  0.51100000000E-03 0. -1.
        -11    1    3    3    0    0  0.57326497981E+01 -0.36223146656E+02 -0.18522055805E+02  0.41085839153E+02  0.51100000000E-03 0.  1.
        -12    1    3    3    0    0 -0.59896193274E+01 -0.34235821862E+00  0.15215864226E+01  0.61893435903E+01  0.00000000000E+00 0.  1.
</event>
<event>
 7    1  0.2900470E-011  0.5052886E+02  0.7816164E-02  0.1300439E+00
        -11   -1    0    0    0    0  0.00000000000E+00  0.00000000000E+00  0.45593999997E+02  0.45594000000E+02  0.51100000000E-03 0. -1.
         11   -1    0    0    0    0 -0.00000000000E+00 -0.00000000000E+00 -0.45593999997E+02  0.45594000000E+02  0.51100000000E-03 0.  1.
    9900012    2    1    2    0    0  0.40132595577E+01 -0.40352442398E+02 -0.29563719269E+01  0.50528855952E+02  0.29999988152E+02 0.  0.
         12    1    1    2    0    0 -0.40132595577E+01  0.40352442398E+02  0.29563719269E+01  0.40659144048E+02  0.00000000000E+00 0. -1.
         11    1    3    3    0    0  0.10142822393E+01  0.24740411454E+01  0.72955629166E-01  0.26748777234E+01  0.51100000000E-03 0. -1.
        -11    1    3    3    0    0  0.93600929308E+01 -0.28833662354E+02  0.46535866779E+01  0.30669973813E+02  0.51100000000E-03 0.  1.
        -12    1    3    3    0    0 -0.63611156124E+01 -0.13992821189E+02 -0.76829142340E+01  0.17184004416E+02  0.00000000000E+00 0.  1.
</event>
<event>
 7    1  0.3075566E-011  0.5052886E+02  0.7816164E-02  0.1300439E+00
        -11   -1    0    0    0    0  0.00000000000E+00  0.00000000000E+00  0.45593999997E+02  0.45594000000E+02  0.51100000000E-03 0. -1.
         11   -1    0    0    0    0 -0.00000000000E+00 -0.00000000000E+00 -0.45593999997E+02  0.45594000000E+02  0.51100000000E-03 0.  1.
    9900012    2    1    2    0    0  0.67639298381E+01  0.28595786842E+02 -0.28101525652E+02  0.50528861840E+02  0.30000006049E+02 0.  0.
         12    1    1    2    0    0 -0.67639298381E+01 -0.28595786842E+02  0.28101525652E+02  0.40659138160E+02  0.00000000000E+00 0. -1.
         11    1    3    3    0    0  0.98850306134E+00  0.65562064827E+01  0.54580341853E+01  0.85878471793E+01  0.51100000000E-03 0. -1.
        -11    1    3    3    0    0  0.80899824991E+01  0.13380558976E+02 -0.16903107047E+02  0.23026120026E+02  0.51100000000E-03 0.  1.
         12    1    3    3    0    0 -0.23145557223E+01  0.86590213832E+01 -0.16656452790E+02  0.18914894635E+02  0.00000000000E+00 0. -1.
</event>
<event>
 7    1  0.2900470E-011  0.5052885E+02  0.7816164E-02  0.1300439E+00
        -11   -1    0    0    0    0  0.00000000000E+00  0.00000000000E+00  0.45593999997E+02  0.45594000000E+02  0.51100000000E-03 0.  1.
         11   -1    0    0    0    0 -0.00000000000E+00 -0.00000000000E+00 -0.45593999997E+02  0.45594000000E+02  0.51100000000E-03 0. -1.
    9900012    2    1    2    0    0  0.14565915416E+01  0.46468343974E+01  0.40366463673E+02  0.50528854433E+02  0.29999983534E+02 0.  0.
         12    1    1    2    0    0 -0.14565915416E+01 -0.46468343974E+01 -0.40366463673E+02  0.40659145567E+02  0.00000000000E+00 0. -1.
         11    1    3    3    0    0 -0.33425723134E+00 -0.69234675177E+01  0.96857779336E+01  0.11910517403E+02  0.51100000000E-03 0. -1.
        -11    1    3    3    0    0  0.84690046299E+01  0.10568770941E+02  0.28445701094E+02  0.31505251461E+02  0.51100000000E-03 0.  1.
        -12    1    3    3    0    0 -0.66781558570E+01  0.10015309740E+01  0.22349846445E+01  0.71130855684E+01  0.00000000000E+00 0.  1.
</event>
<event>
 7    1  0.2900470E-011  0.5052886E+02  0.7816164E-02  0.1300439E+00
        -11   -1    0    0    0    0  0.00000000000E+00  0.00000000000E+00  0.45593999997E+02  0.45594000000E+02  0.51100000000E-03 0.  1.
         11   -1    0    0    0    0 -0.00000000000E+00 -0.00000000000E+00 -0.45593999997E+02  0.45594000000E+02  0.51100000000E-03 0. -1.
    9900012    2    1    2    0    0 -0.17740060618E+02  0.28400701154E+02  0.23062007022E+02  0.50528859027E+02  0.29999997498E+02 0.  0.
         12    1    1    2    0    0  0.17740060618E+02 -0.28400701154E+02 -0.23062007022E+02  0.40659140973E+02  0.00000000000E+00 0. -1.
         11    1    3    3    0    0  0.29642083525E+01 -0.12007396269E-01 -0.13580941837E+01  0.32605360613E+01  0.51100000000E-03 0. -1.
        -11    1    3    3    0    0 -0.13038881116E+02  0.21544374531E+02  0.55700414696E+01  0.25791429912E+02  0.51100000000E-03 0.  1.
        -12    1    3    3    0    0 -0.76653878544E+01  0.68683340193E+01  0.18850059736E+02  0.21476893053E+02  0.00000000000E+00 0.  1.
</event>
<event>
 7    1  0.2900470E-011  0.5052891E+02  0.7816164E-02  0.1300439E+00
        -11   -1    0    0    0    0  0.00000000000E+00  0.00000000000E+00  0.45593999997E+02  0.45594000000E+02  0.51100000000E-03 0.  1.
         11   -1    0    0    0    0 -0.00000000000E+00 -0.00000000000E+00 -0.45593999997E+02  0.45594000000E+02  0.51100000000E-03 0. -1.
    9900012    2    1    2    0    0  0.21403078782E+02  0.13919449273E+02  0.31643618607E+02  0.50528911865E+02  0.30000158104E+02 0.  0.
         12    1    1    2    0    0 -0.21403078782E+02 -0.13919449273E+02 -0.31643618607E+02  0.40659088135E+02  0.00000000000E+00 0. -1.
         11    1    3    3    0    0  0.37788744749E+01 -0.20713280544E+01  0.15019968148E+01  0.45635826824E+01  0.51100000000E-03 0. -1.
        -11    1    3    3    0    0 -0.52860375636E+01  0.94702069051E+01  0.84549702709E+01  0.13751855674E+02  0.51100000000E-03 0.  1.
        -12    1    3    3    0    0  0.22910241871E+02  0.65205704227E+01  0.21686651522E+02  0.32213473508E+02  0.00000000000E+00 0.  1.
</event>
<event>
 7    1  0.2900470E-011  0.5052886E+02  0.7816164E-02  0.1300439E+00
        -11   -1    0    0    0    0  0.00000000000E+00  0.00000000000E+00  0.45593999997E+02  0.45594000000E+02  0.51100000000E-03 0. -1.
         11   -1    0    0    0    0 -0.00000000000E+00 -0.00000000000E+00 -0.45593999997E+02  0.45594000000E+02  0.51100000000E-03 0.  1.
    9900012    2    1    2    0    0 -0.16927099544E+02  0.35166935560E+02  0.11398475960E+02  0.50528864373E+02  0.30000013750E+02 0.  0.
         12    1    1    2    0    0  0.16927099544E+02 -0.35166935560E+02 -0.11398475960E+02  0.40659135627E+02  0.00000000000E+00 0. -1.
         11    1    3    3    0    0 -0.13640756798E+02  0.30360773572E+01  0.55644013557E+01  0.15041628052E+02  0.51100000000E-03 0. -1.
        -11    1    3    3    0    0  0.35728311134E+01  0.21321188639E+02  0.67622275675E+01  0.22651400157E+02  0.51100000000E-03 0.  1.
        -12    1    3    3    0    0 -0.68591738593E+01  0.10809669564E+02 -0.92815296278E+00  0.12835836164E+02  0.00000000000E+00 0.  1.
</event>
<event>
 7    1  0.2900470E-011  0.5052886E+02  0.7816164E-02  0.1300439E+00
        -11   -1    0    0    0    0  0.00000000000E+00  0.00000000000E+00  0.45593999997E+02  0.45594000000E+02  0.51100000000E-03 0.  1.
         11   -1    0    0    0    0 -0.00000000000E+00 -0.00000000000E+00 -0.45593999997E+02  0.45594000000E+02  0.51100000000E-03 0. -1.
    9900012    2    1    2    0    0 -0.86887523195E+01 -0.21668077991E+02  0.33289119837E+02  0.50528861787E+02  0.30000005888E+02 0.  0.
         12    1    1    2    0    0  0.86887523195E+01  0.21668077991E+02 -0.33289119837E+02  0.40659138213E+02  0.00000000000E+00 0. -1.
         11    1    3    3    0    0  0.91005183232E+01 -0.47957089387E+01  0.53920435512E+01  0.11614318400E+02  0.51100000000E-03 0. -1.
        -11    1    3    3    0    0 -0.14549090171E+02 -0.17024730211E+02  0.27761202289E+02  0.35667938213E+02  0.51100000000E-03 0.  1.
        -12    1    3    3    0    0 -0.32401804720E+01  0.15236115837E+00  0.13587399649E+00  0.32466051741E+01  0.00000000000E+00 0.  1.
</event>
<event>
 7    1  0.2900470E-011  0.5052885E+02  0.7816164E-02  0.1300439E+00
        -11   -1    0    0    0    0  0.00000000000E+00  0.00000000000E+00  0.45593999997E+02  0.45594000000E+02  0.51100000000E-03 0.  1.
         11   -1    0    0    0    0 -0.00000000000E+00 -0.00000000000E+00 -0.45593999997E+02  0.45594000000E+02  0.51100000000E-03 0. -1.
    9900012    2    1    2    0    0 -0.72226619189E+00  0.22330453734E+01  0.40591355398E+02  0.50528852283E+02  0.29999976998E+02 0.  0.
         12    1    1    2    0    0  0.72226619189E+00 -0.22330453734E+01 -0.40591355398E+02  0.40659147717E+02  0.00000000000E+00 0. -1.
         11    1    3    3    0    0  0.95702455654E-01  0.86637588324E+01  0.37653120618E+01  0.94470869188E+01  0.51100000000E-03 0. -1.
        -11    1    3    3    0    0 -0.66702143312E+01 -0.94941380939E+01  0.23428203907E+02  0.26144046281E+02  0.51100000000E-03 0.  1.
        -12    1    3    3    0    0  0.58522456837E+01  0.30634246349E+01  0.13397839429E+02  0.14937719083E+02  0.00000000000E+00 0.  1.
</event>
<event>
 7    1  0.2900470E-011  0.5052887E+02  0.7816164E-02  0.1300439E+00
        -11   -1    0    0    0    0  0.00000000000E+00  0.00000000000E+00  0.45593999997E+02  0.45594000000E+02  0.51100000000E-03 0. -1.
         11   -1    0    0    0    0 -0.00000000000E+00 -0.00000000000E+00 -0.45593999997E+02  0.45594000000E+02  0.51100000000E-03 0.  1.
    9900012    2    1    2    0    0  0.39718654967E+01  0.83905458761E+01 -0.39585199998E+02  0.50528867760E+02  0.30000024044E+02 0.  0.
         12    1    1    2    0    0 -0.39718654967E+01 -0.83905458761E+01  0.39585199998E+02  0.40659132240E+02  0.00000000000E+00 0. -1.
         11    1    3    3    0    0 -0.34511396955E+01  0.42878819793E+01 -0.39860780610E+01  0.67959631868E+01  0.51100000000E-03 0. -1.
        -11    1    3    3    0    0  0.11777586094E+02  0.84231064742E+01 -0.34613440133E+02  0.37520001265E+02  0.51100000000E-03 0.  1.
        -12    1    3    3    0    0 -0.43545809018E+01 -0.43204425775E+01 -0.98568180414E+00  0.62129033080E+01  0.00000000000E+00 0.  1.
</event>
<event>
 7    1  0.2900470E-011  0.5052886E+02  0.7816164E-02  0.1300439E+00
        -11   -1    0    0    0    0  0.00000000000E+00  0.00000000000E+00  0.45593999997E+02  0.45594000000E+02  0.51100000000E-03 0. -1.
         11   -1    0    0    0    0 -0.00000000000E+00 -0.00000000000E+00 -0.45593999997E+02  0.45594000000E+02  0.51100000000E-03 0.  1.
    9900012    2    1    2    0    0  0.15078717838E+02 -0.15649133416E+02  0.34364262058E+02  0.50528860620E+02  0.30000002342E+02 0.  0.
         12    1    1    2    0    0 -0.15078717838E+02  0.15649133416E+02 -0.34364262058E+02  0.40659139380E+02  0.00000000000E+00 0. -1.
         11    1    3    3    0    0  0.56194599711E+01 -0.16740860040E+02  0.22249840230E+02  0.28405811303E+02  0.51100000000E-03 0. -1.
        -11    1    3    3    0    0  0.13833719366E+02  0.11133762470E+01  0.10704101223E+02  0.17526813214E+02  0.51100000000E-03 0.  1.
        -12    1    3    3    0    0 -0.43744614994E+01 -0.21649622983E-01  0.14103206045E+01  0.45962361040E+01  0.00000000000E+00 0.  1.
</event>
<event>
 7    1  0.2900470E-011  0.5052890E+02  0.7816164E-02  0.1300439E+00
        -11   -1    0    0    0    0  0.00000000000E+00  0.00000000000E+00  0.45593999997E+02  0.45594000000E+02  0.51100000000E-03 0. -1.
         11   -1    0    0    0    0 -0.00000000000E+00 -0.00000000000E+00 -0.45593999997E+02  0.45594000000E+02  0.51100000000E-03 0.  1.
    9900012    2    1    2    0    0  0.14367408067E+02 -0.38036030995E+02 -0.19528600956E-01  0.50528899545E+02  0.30000120657E+02 0.  0.
         12    1    1    2    0    0 -0.14367408067E+02  0.38036030995E+02  0.19528600956E-01  0.40659100455E+02  0.00000000000E+00 0. -1.
         11    1    3    3    0    0 -0.60040277559E+00  0.44306867399E+00  0.11687451905E+00  0.75528356075E+00  0.51100000000E-03 0. -1.
        -11    1    3    3    0    0 -0.57879579049E+01 -0.22650806948E+02 -0.27540138088E+01  0.23540265598E+02  0.51100000000E-03 0.  1.
        -12    1    3    3    0    0  0.20755768747E+02 -0.15828292721E+02  0.26176106888E+01  0.26233350386E+02  0.00000000000E+00 0.  1.
</event>
<event>
 7    1  0.2900470E-011  0.5052881E+02  0.7816164E-02  0.1300439E+00
        -11   -1    0    0    0    0  0.00000000000E+00  0.00000000000E+00  0.45593999997E+02  0.45594000000E+02  0.51100000000E-03 0.  1.
         11   -1    0    0    0    0 -0.00000000000E+00 -0.00000000000E+00 -0.45593999997E+02  0.45594000000E+02  0.51100000000E-03 0. -1.
    9900012    2    1    2    0    0 -0.34647366346E+02 -0.16803191416E+02  0.13053051489E+02  0.50528814204E+02  0.29999861253E+02 0.  0.
         12    1    1    2    0    0  0.34647366346E+02  0.16803191416E+02 -0.13053051489E+02  0.40659185796E+02  0.00000000000E+00 0. -1.
         11    1    3    3    0    0 -0.87225479397E+00  0.94670642857E+00  0.59056446921E+01  0.60443131105E+01  0.51100000000E-03 0. -1.
        -11    1    3    3    0    0 -0.17237996152E+02 -0.32871298078E+01 -0.63940087889E+01  0.18677180793E+02  0.51100000000E-03 0.  1.
        -12    1    3    3    0    0 -0.16537115399E+02 -0.14462768036E+02  0.13541415586E+02  0.25807320300E+02  0.00000000000E+00 0.  1.
</event>
<event>
 7    1  0.2900470E-011  0.5052885E+02  0.7816164E-02  0.1300439E+00
        -11   -1    0    0    0    0  0.00000000000E+00  0.00000000000E+00  0.45593999997E+02  0.45594000000E+02  0.51100000000E-03 0.  1.
         11   -1    0    0    0    0 -0.00000000000E+00 -0.00000000000E+00 -0.45593999997E+02  0.45594000000E+02  0.51100000000E-03 0. -1.
    9900012    2    1    2    0    0  0.79668454073E+01 -0.94526566995E+01  0.38734264460E+02  0.50528848660E+02  0.29999965988E+02 0.  0.
         12    1    1    2    0    0 -0.79668454073E+01  0.94526566995E+01 -0.38734264460E+02  0.40659151340E+02  0.00000000000E+00 0. -1.
         11    1    3    3    0    0  0.98740095755E+01  0.60757926637E+01  0.16911265875E+02  0.20503712721E+02  0.51100000000E-03 0. -1.
        -11    1    3    3    0    0 -0.32369720415E+01 -0.15625349587E+02  0.23167784598E+02  0.28131402047E+02  0.51100000000E-03 0.  1.
         12    1    3    3    0    0  0.13298078732E+01  0.96900224019E-01 -0.13447860131E+01  0.18937338921E+01  0.00000000000E+00 0. -1.
</event>
<event>
 7    1  0.2900470E-011  0.5052878E+02  0.7816164E-02  0.1300439E+00
        -11   -1    0    0    0    0  0.00000000000E+00  0.00000000000E+00  0.45593999997E+02  0.45594000000E+02  0.51100000000E-03 0. -1.
         11   -1    0    0    0    0 -0.00000000000E+00 -0.00000000000E+00 -0.45593999997E+02  0.45594000000E+02  0.51100000000E-03 0.  1.
    9900012    2    1    2    0    0 -0.54122031442E+01 -0.40262696577E+02  0.16718929089E+01  0.50528783278E+02  0.29999767251E+02 0.  0.
         12    1    1    2    0    0  0.54122031442E+01  0.40262696577E+02 -0.16718929089E+01  0.40659216722E+02  0.00000000000E+00 0. -1.
         11    1    3    3    0    0 -0.41731333803E+01  0.25797264267E+00  0.81551654348E+01  0.91645139328E+01  0.51100000000E-03 0. -1.
        -11    1    3    3    0    0  0.12977829640E+01 -0.25588814701E+02 -0.53638358997E+01  0.26177135333E+02  0.51100000000E-03 0.  1.
         12    1    3    3    0    0 -0.25368527280E+01 -0.14931854519E+02 -0.11194366262E+01  0.15187134012E+02  0.00000000000E+00 0. -1.
</event>
<event>
 7    1  0.2900470E-011  0.5052886E+02  0.7816164E-02  0.1300439E+00
        -11   -1    0    0    0    0  0.00000000000E+00  0.00000000000E+00  0.45593999997E+02  0.45594000000E+02  0.51100000000E-03 0. -1.
         11   -1    0    0    0    0 -0.00000000000E+00 -0.00000000000E+00 -0.45593999997E+02  0.45594000000E+02  0.51100000000E-03 0.  1.
    9900012    2    1    2    0    0  0.16043875399E+02  0.24955118353E+02 -0.27802905762E+02  0.50528862791E+02  0.30000008939E+02 0.  0.
         12    1    1    2    0    0 -0.16043875399E+02 -0.24955118353E+02  0.27802905762E+02  0.40659137209E+02  0.00000000000E+00 0. -1.
         11    1    3    3    0    0  0.61178986372E+01 -0.72472747464E+00  0.11409531471E+01  0.62654359778E+01  0.51100000000E-03 0. -1.
        -11    1    3    3    0    0  0.90186381645E+01  0.26652407060E+02 -0.18362125215E+02  0.33598426736E+02  0.51100000000E-03 0.  1.
        -12    1    3    3    0    0  0.90733859716E+00 -0.97256123288E+00 -0.10581733694E+02  0.10665000077E+02  0.00000000000E+00 0.  1.
</event>
<event>
 7    1  0.2900470E-011  0.5052886E+02  0.7816164E-02  0.1300439E+00
        -11   -1    0    0    0    0  0.00000000000E+00  0.00000000000E+00  0.45593999997E+02  0.45594000000E+02  0.51100000000E-03 0.  1.
         11   -1    0    0    0    0 -0.00000000000E+00 -0.00000000000E+00 -0.45593999997E+02  0.45594000000E+02  0.51100000000E-03 0. -1.
    9900012    2    1    2    0    0 -0.28604737792E+02 -0.22767379660E+02  0.17792730501E+02  0.50528857616E+02  0.29999993210E+02 0.  0.
         12    1    1    2    0    0  0.28604737792E+02  0.22767379660E+02 -0.17792730501E+02  0.40659142384E+02  0.00000000000E+00 0. -1.
         11    1    3    3    0    0 -0.10919009931E+02 -0.83978354058E+01 -0.35283330214E+01  0.14219618545E+02  0.51100000000E-03 0. -1.
        -11    1    3    3    0    0 -0.85455278615E+01 -0.17687358118E+02  0.14927971614E+02  0.24672110173E+02  0.51100000000E-03 0.  1.
        -12    1    3    3    0    0 -0.91401999990E+01  0.33178138636E+01  0.63930919076E+01  0.11637128898E+02  0.00000000000E+00 0.  1.
</event>
<event>
 7    1  0.2900470E-011  0.5052881E+02  0.7816164E-02  0.1300439E+00
        -11   -1    0    0    0    0  0.00000000000E+00  0.00000000000E+00  0.45593999997E+02  0.45594000000E+02  0.51100000000E-03 0.  1.
         11   -1    0    0    0    0 -0.00000000000E+00 -0.00000000000E+00 -0.45593999997E+02  0.45594000000E+02  0.51100000000E-03 0. -1.
    9900012    2    1    2    0    0  0.20813580925E+02  0.29069336014E+02  0.19363322041E+02  0.50528810538E+02  0.29999850112E+02 0.  0.
         12    1    1    2    0    0 -0.20813580925E+02 -0.29069336014E+02 -0.19363322041E+02  0.40659189462E+02  0.00000000000E+00 0. -1.
         11    1    3    3    0    0 -0.24912945238E+01  0.19568683872E+02  0.15064375362E+02  0.24820865057E+02  0.51100000000E-03 0. -1.
        -11    1    3    3    0    0  0.19998889186E+02  0.90325571842E+01  0.43380395691E+01  0.22368756012E+02  0.51100000000E-03 0.  1.
         12    1    3    3    0    0  0.33059862626E+01  0.46809495815E+00 -0.39092890285E-01  0.33391894694E+01  0.00000000000E+00 0. -1.
</event>
<event>
 7    1  0.2900470E-011  0.5052885E+02  0.7816164E-02  0.1300439E+00
        -11   -1    0    0    0    0  0.00000000000E+00  0.00000000000E+00  0.45593999997E+02  0.45594000000E+02  0.51100000000E-03 0.  1.
         11   -1    0    0    0    0 -0.00000000000E+00 -0.00000000000E+00 -0.45593999997E+02  0.45594000000E+02  0.51100000000E-03 0. -1.
    9900012    2    1    2    0    0  0.24328500499E+02  0.11590421280E+02  0.30445895453E+02  0.50528851560E+02  0.29999974801E+02 0.  0.
         12    1    1    2    0    0 -0.24328500499E+02 -0.11590421280E+02 -0.30445895453E+02  0.40659148440E+02  0.00000000000E+00 0. -1.
         11    1    3    3    0    0  0.64789131685E+01  0.61840980803E+01  0.23807083260E+02  0.25436127821E+02  0.51100000000E-03 0. -1.
        -11    1    3    3    0    0  0.19925468836E+02  0.34867103354E+01  0.82414670072E+01  0.21842692966E+02  0.51100000000E-03 0.  1.
         12    1    3    3    0    0 -0.20758815058E+01  0.19196128642E+01 -0.16026548143E+01  0.32500307734E+01  0.00000000000E+00 0. -1.
</event>
<event>
 7    1  0.2900470E-011  0.5052885E+02  0.7816164E-02  0.1300439E+00
        -11   -1    0    0    0    0  0.00000000000E+00  0.00000000000E+00  0.45593999997E+02  0.45594000000E+02  0.51100000000E-03 0.  1.
         11   -1    0    0    0    0 -0.00000000000E+00 -0.00000000000E+00 -0.45593999997E+02  0.45594000000E+02  0.51100000000E-03 0. -1.
    9900012    2    1    2    0    0 -0.83547543806E+01  0.11876841325E+02  0.37977693876E+02  0.50528849581E+02  0.29999968787E+02 0.  0.
         12    1    1    2    0    0  0.83547543806E+01 -0.11876841325E+02 -0.37977693876E+02  0.40659150419E+02  0.00000000000E+00 0. -1.
         11    1    3    3    0    0  0.51576123066E+01  0.15341155095E+02  0.25570835294E+02  0.30262511830E+02  0.51100000000E-03 0. -1.
        -11    1    3    3    0    0 -0.28049388767E+01  0.19647698210E+01  0.53155496619E+01  0.63232168253E+01  0.51100000000E-03 0.  1.
         12    1    3    3    0    0 -0.10707427811E+02 -0.54290835910E+01  0.70913089203E+01  0.13943120926E+02  0.00000000000E+00 0. -1.
</event>
<event>
 7    1  0.2900470E-011  0.5052886E+02  0.7816164E-02  0.1300439E+00
        -11   -1    0    0    0    0  0.00000000000E+00  0.00000000000E+00  0.45593999997E+02  0.45594000000E+02  0.51100000000E-03 0.  1.
         11   -1    0    0    0    0 -0.00000000000E+00 -0.00000000000E+00 -0.45593999997E+02  0.45594000000E+02  0.51100000000E-03 0. -1.
    9900012    2    1    2    0    0 -0.66997238155E+00 -0.17571144349E+01  0.40615632923E+02  0.50528856479E+02  0.29999989753E+02 0.  0.
         12    1    1    2    0    0  0.66997238155E+00  0.17571144349E+01 -0.40615632923E+02  0.40659143521E+02  0.00000000000E+00 0. -1.
         11    1    3    3    0    0 -0.61302582488E+01  0.68658730068E+00  0.15992457051E+02  0.17140891199E+02  0.51100000000E-03 0. -1.
        -11    1    3    3    0    0  0.34169160463E+01 -0.86637211544E+01  0.15970068782E+01  0.94491169291E+01  0.51100000000E-03 0.  1.
        -12    1    3    3    0    0  0.20433698210E+01  0.62200194189E+01  0.23026168994E+02  0.23938848350E+02  0.00000000000E+00 0.  1.
</event>
<event>
 7    1  0.2900470E-011  0.5052886E+02  0.7816164E-02  0.1300439E+00
        -11   -1    0    0    0    0  0.00000000000E+00  0.00000000000E+00  0.45593999997E+02  0.45594000000E+02  0.51100000000E-03 0.  1.
         11   -1    0    0    0    0 -0.00000000000E+00 -0.00000000000E+00 -0.45593999997E+02  0.45594000000E+02  0.51100000000E-03 0. -1.
    9900012    2    1    2    0    0  0.16490958658E+02  0.36773661165E+02  0.53769568561E+01  0.50528861569E+02  0.30000005225E+02 0.  0.
         12    1    1    2    0    0 -0.16490958658E+02 -0.36773661165E+02 -0.53769568561E+01  0.40659138431E+02  0.00000000000E+00 0. -1.
         11    1    3    3    0    0  0.22510451394E+02  0.27970845796E+02  0.83637810381E+00  0.35913620885E+02  0.51100000000E-03 0. -1.
        -11    1    3    3    0    0 -0.32752055633E+01  0.71488388374E+01  0.70377831778E+01  0.10552879253E+02  0.51100000000E-03 0.  1.
        -12    1    3    3    0    0 -0.27442871728E+01  0.16539765319E+01 -0.24972044255E+01  0.40623614312E+01  0.00000000000E+00 0.  1.
</event>
<event>
 7    1  0.2900470E-011  0.5052887E+02  0.7816164E-02  0.1300439E+00
        -11   -1    0    0    0    0  0.00000000000E+00  0.00000000000E+00  0.45593999997E+02  0.45594000000E+02  0.51100000000E-03 0.  1.
         11   -1    0    0    0    0 -0.00000000000E+00 -0.00000000000E+00 -0.45593999997E+02  0.45594000000E+02  0.51100000000E-03 0. -1.
    9900012    2    1    2    0    0 -0.13865190882E+02 -0.10142830461E+02  0.36851656648E+02  0.50528866639E+02  0.30000020634E+02 0.  0.
         12    1    1    2    0    0  0.13865190882E+02  0.10142830461E+02 -0.36851656648E+02  0.40659133361E+02  0.00000000000E+00 0. -1.
         11    1    3    3    0    0  0.48329579258E+01  0.53484952677E+01  0.13082677780E+02  0.14937213331E+02  0.51100000000E-03 0. -1.
        -11    1    3    3    0    0 -0.41042318589E+01 -0.62591797930E+00  0.22942590800E+00  0.41580198384E+01  0.51100000000E-03 0.  1.
         12    1    3    3    0    0 -0.14593916949E+02 -0.14865407750E+02  0.23539552960E+02  0.31433633469E+02  0.00000000000E+00 0. -1.
</event>
<event>
 7    1  0.2900470E-011  0.5052885E+02  0.7816164E-02  0.1300439E+00
        -11   -1    0    0    0    0  0.00000000000E+00  0.00000000000E+00  0.45593999997E+02  0.45594000000E+02  0.51100000000E-03 0.  1.
         11   -1    0    0    0    0 -0.00000000000E+00 -0.00000000000E+00 -0.45593999997E+02  0.45594000000E+02  0.51100000000E-03 0. -1.
    9900012    2    1    2    0    0 -0.36686368099E+02  0.17443873313E+02  0.17286047716E+01  0.50528851031E+02  0.29999973193E+02 0.  0.
         12    1    1    2    0    0  0.36686368099E+02 -0.17443873313E+02 -0.17286047716E+01  0.40659148969E+02  0.00000000000E+00 0. -1.
         11    1    3    3    0    0 -0.27398614499E+02  0.24230279363E+02  0.40302440834E+00  0.36578039086E+02  0.51100000000E-03 0. -1.
        -11    1    3    3    0    0 -0.53845322098E+01 -0.59847975097E+01 -0.24971751085E+01  0.84289306638E+01  0.51100000000E-03 0.  1.
        -12    1    3    3    0    0 -0.39032213907E+01 -0.80160854097E+00  0.38227554718E+01  0.55218812804E+01  0.00000000000E+00 0.  1.
</event>
<event>
 7    1  0.2900470E-011  0.5052886E+02  0.7816164E-02  0.1300439E+00
        -11   -1    0    0    0    0  0.00000000000E+00  0.00000000000E+00  0.45593999997E+02  0.45594000000E+02  0.51100000000E-03 0.  1.
         11   -1    0    0    0    0 -0.00000000000E+00 -0.00000000000E+00 -0.45593999997E+02  0.45594000000E+02  0.51100000000E-03 0. -1.
    9900012    2    1    2    0    0 -0.23682311644E+02  0.31197843060E+02  0.10909086837E+02  0.50528862380E+02  0.30000007690E+02 0.  0.
         12    1    1    2    0    0  0.23682311644E+02 -0.31197843060E+02 -0.10909086837E+02  0.40659137620E+02  0.00000000000E+00 0. -1.
         11    1    3    3    0    0  0.52304459803E+01  0.54073321326E+01  0.25528156142E+01  0.79444114801E+01  0.51100000000E-03 0. -1.
        -11    1    3    3    0    0 -0.21715953020E+02  0.90416476821E+01  0.49956308886E+01  0.24047668008E+02  0.51100000000E-03 0.  1.
        -12    1    3    3    0    0 -0.71968046042E+01  0.16748863245E+02  0.33606403341E+01  0.18536782892E+02  0.00000000000E+00 0.  1.
</event>
<event>
 7    1  0.2900470E-011  0.5052886E+02  0.7816164E-02  0.1300439E+00
        -11   -1    0    0    0    0  0.00000000000E+00  0.00000000000E+00  0.45593999997E+02  0.45594000000E+02  0.51100000000E-03 0. -1.
         11   -1    0    0    0    0 -0.00000000000E+00 -0.00000000000E+00 -0.45593999997E+02  0.45594000000E+02  0.51100000000E-03 0.  1.
    9900012    2    1    2    0    0 -0.89234184517E+01 -0.29385758888E+02 -0.26646120997E+02  0.50528856054E+02  0.29999988461E+02 0.  0.
         12    1    1    2    0    0  0.89234184517E+01  0.29385758888E+02  0.26646120997E+02  0.40659143946E+02  0.00000000000E+00 0. -1.
         11    1    3    3    0    0 -0.74151337040E+01  0.13084265478E+01 -0.13736771374E+02  0.15665090996E+02  0.51100000000E-03 0. -1.
        -11    1    3    3    0    0  0.16482876337E+01 -0.27386651610E+02 -0.12837753700E+02  0.30291144892E+02  0.51100000000E-03 0.  1.
        -12    1    3    3    0    0 -0.31565723814E+01 -0.33075338253E+01 -0.71595922876E-01  0.45726201658E+01  0.00000000000E+00 0.  1.
</event>
<event>
 7    1  0.2900470E-011  0.5052887E+02  0.7816164E-02  0.1300439E+00
        -11   -1    0    0    0    0  0.00000000000E+00  0.00000000000E+00  0.45593999997E+02  0.45594000000E+02  0.51100000000E-03 0.  1.
         11   -1    0    0    0    0 -0.00000000000E+00 -0.00000000000E+00 -0.45593999997E+02  0.45594000000E+02  0.51100000000E-03 0. -1.
    9900012    2    1    2    0    0  0.11945163286E+02  0.38620057019E+02  0.43553728844E+01  0.50528868147E+02  0.30000025221E+02 0.  0.
         12    1    1    2    0    0 -0.11945163286E+02 -0.38620057019E+02 -0.43553728844E+01  0.40659131853E+02  0.00000000000E+00 0. -1.
         11    1    3    3    0    0 -0.72734340873E+01  0.14175937781E+02  0.38085534447E+01  0.16381853832E+02  0.51100000000E-03 0. -1.
        -11    1    3    3    0    0  0.73905645489E+01  0.55645199953E+01 -0.58777058389E+01  0.10960463189E+02  0.51100000000E-03 0.  1.
        -12    1    3    3    0    0  0.11828032824E+02  0.18879599243E+02  0.64245252787E+01  0.23186551126E+02  0.00000000000E+00 0.  1.
</event>
<event>
 7    1  0.2900470E-011  0.5052893E+02  0.7816164E-02  0.1300439E+00
        -11   -1    0    0    0    0  0.00000000000E+00  0.00000000000E+00  0.45593999997E+02  0.45594000000E+02  0.51100000000E-03 0. -1.
         11   -1    0    0    0    0 -0.00000000000E+00 -0.00000000000E+00 -0.45593999997E+02  0.45594000000E+02  0.51100000000E-03 0.  1.
    9900012    2    1    2    0    0 -0.20070971169E+02  0.32411517939E+02 -0.14135393020E+02  0.50528933180E+02  0.30000222894E+02 0.  0.
         12    1    1    2    0    0  0.20070971169E+02 -0.32411517939E+02  0.14135393020E+02  0.40659066820E+02  0.00000000000E+00 0. -1.
         11    1    3    3    0    0 -0.29307214591E+01  0.16519786659E+02  0.72230610790E+01  0.18266501886E+02  0.51100000000E-03 0. -1.
        -11    1    3    3    0    0 -0.11362922364E+02  0.12680574106E+02 -0.12107160086E+02  0.20892493626E+02  0.51100000000E-03 0.  1.
         12    1    3    3    0    0 -0.57773273457E+01  0.32111571743E+01 -0.92512940137E+01  0.11369937669E+02  0.00000000000E+00 0. -1.
</event>
<event>
 7    1  0.2900470E-011  0.5052886E+02  0.7816164E-02  0.1300439E+00
        -11   -1    0    0    0    0  0.00000000000E+00  0.00000000000E+00  0.45593999997E+02  0.45594000000E+02  0.51100000000E-03 0. -1.
         11   -1    0    0    0    0 -0.00000000000E+00 -0.00000000000E+00 -0.45593999997E+02  0.45594000000E+02  0.51100000000E-03 0.  1.
    9900012    2    1    2    0    0 -0.25471370091E+02 -0.20636548958E+02 -0.24052192298E+02  0.50528858328E+02  0.29999995372E+02 0.  0.
         12    1    1    2    0    0  0.25471370091E+02  0.20636548958E+02  0.24052192298E+02  0.40659141672E+02  0.00000000000E+00 0. -1.
         11    1    3    3    0    0 -0.21864433938E+02 -0.11840885873E+02 -0.41756582587E+01  0.25213015922E+02  0.51100000000E-03 0. -1.
        -11    1    3    3    0    0 -0.67625980749E+01 -0.90402884928E+01 -0.10493713737E+02  0.15413551732E+02  0.51100000000E-03 0.  1.
         12    1    3    3    0    0  0.31556619219E+01  0.24462540873E+00 -0.93828203026E+01  0.99022906737E+01  0.00000000000E+00 0. -1.
</event>
<event>
 7    1  0.2900470E-011  0.5052886E+02  0.7816164E-02  0.1300439E+00
        -11   -1    0    0    0    0  0.00000000000E+00  0.00000000000E+00  0.45593999997E+02  0.45594000000E+02  0.51100000000E-03 0.  1.
         11   -1    0    0    0    0 -0.00000000000E+00 -0.00000000000E+00 -0.45593999997E+02  0.45594000000E+02  0.51100000000E-03 0. -1.
    9900012    2    1    2    0    0 -0.31937558049E+02 -0.24892844593E+02 -0.36748431613E+01  0.50528858367E+02  0.29999995493E+02 0.  0.
         12    1    1    2    0    0  0.31937558049E+02  0.24892844593E+02  0.36748431613E+01  0.40659141633E+02  0.00000000000E+00 0. -1.
         11    1    3    3    0    0 -0.33423993285E+02 -0.16172906714E+02 -0.56997016263E+01  0.37566112889E+02  0.51100000000E-03 0. -1.
        -11    1    3    3    0    0 -0.22557955816E+01 -0.22142150526E+01 -0.26464490999E+01  0.41225059253E+01  0.51100000000E-03 0.  1.
         12    1    3    3    0    0  0.37422308175E+01 -0.65057228262E+01  0.46713075648E+01  0.88402395526E+01  0.00000000000E+00 0. -1.
</event>
<event>
 7    1  0.2900470E-011  0.5052886E+02  0.7816164E-02  0.1300439E+00
        -11   -1    0    0    0    0  0.00000000000E+00  0.00000000000E+00  0.45593999997E+02  0.45594000000E+02  0.51100000000E-03 0. -1.
         11   -1    0    0    0    0 -0.00000000000E+00 -0.00000000000E+00 -0.45593999997E+02  0.45594000000E+02  0.51100000000E-03 0.  1.
    9900012    2    1    2    0    0 -0.81269930275E+01 -0.39576603042E+02 -0.45618315114E+01  0.50528857968E+02  0.29999994281E+02 0.  0.
         12    1    1    2    0    0  0.81269930275E+01  0.39576603042E+02  0.45618315114E+01  0.40659142032E+02  0.00000000000E+00 0. -1.
         11    1    3    3    0    0 -0.25383324512E+01 -0.98213730407E+01  0.88495817420E+01  0.13461708558E+02  0.51100000000E-03 0. -1.
        -11    1    3    3    0    0  0.52428710850E+01 -0.16834138128E+02 -0.79794524483E+01  0.19353231393E+02  0.51100000000E-03 0.  1.
         12    1    3    3    0    0 -0.10831531661E+02 -0.12921091873E+02 -0.54319608052E+01  0.17713918017E+02  0.00000000000E+00 0. -1.
</event>
<event>
 7    1  0.2900470E-011  0.5052886E+02  0.7816164E-02  0.1300439E+00
        -11   -1    0    0    0    0  0.00000000000E+00  0.00000000000E+00  0.45593999997E+02  0.45594000000E+02  0.51100000000E-03 0. -1.
         11   -1    0    0    0    0 -0.00000000000E+00 -0.00000000000E+00 -0.45593999997E+02  0.45594000000E+02  0.51100000000E-03 0.  1.
    9900012    2    1    2    0    0 -0.16481255504E+02  0.34508002684E+02  0.13810553070E+02  0.50528863163E+02  0.30000010071E+02 0.  0.
         12    1    1    2    0    0  0.16481255504E+02 -0.34508002684E+02 -0.13810553070E+02  0.40659136837E+02  0.00000000000E+00 0. -1.
         11    1    3    3    0    0 -0.73858021538E+01 -0.10806299997E+01 -0.12954595627E+01  0.75760181093E+01  0.51100000000E-03 0. -1.
        -11    1    3    3    0    0  0.23431366639E+01  0.23295128089E+02  0.84899200826E+01  0.24904457942E+02  0.51100000000E-03 0.  1.
        -12    1    3    3    0    0 -0.11438590014E+02  0.12293504594E+02  0.66160925496E+01  0.18048387112E+02  0.00000000000E+00 0.  1.
</event>
<event>
 7    1  0.2900470E-011  0.5052888E+02  0.7816164E-02  0.1300439E+00
        -11   -1    0    0    0    0  0.00000000000E+00  0.00000000000E+00  0.45593999997E+02  0.45594000000E+02  0.51100000000E-03 0. -1.
         11   -1    0    0    0    0 -0.00000000000E+00 -0.00000000000E+00 -0.45593999997E+02  0.45594000000E+02  0.51100000000E-03 0.  1.
    9900012    2    1    2    0    0 -0.36503923444E+02  0.39313518177E+01 -0.17469180346E+02  0.50528877827E+02  0.30000054642E+02 0.  0.
         12    1    1    2    0    0  0.36503923444E+02 -0.39313518177E+01  0.17469180346E+02  0.40659122173E+02  0.00000000000E+00 0. -1.
         11    1    3    3    0    0 -0.12184550697E+02  0.61721086722E+01 -0.13414502051E+02  0.19144374283E+02  0.51100000000E-03 0. -1.
        -11    1    3    3    0    0 -0.20423046876E+02  0.27508083228E+01  0.41492444829E+01  0.21021037561E+02  0.51100000000E-03 0.  1.
        -12    1    3    3    0    0 -0.38963258714E+01 -0.49915651773E+01 -0.82039227777E+01  0.10363465982E+02  0.00000000000E+00 0.  1.
</event>
<event>
 7    1  0.2900470E-011  0.5052886E+02  0.7816164E-02  0.1300439E+00
        -11   -1    0    0    0    0  0.00000000000E+00  0.00000000000E+00  0.45593999997E+02  0.45594000000E+02  0.51100000000E-03 0.  1.
         11   -1    0    0    0    0 -0.00000000000E+00 -0.00000000000E+00 -0.45593999997E+02  0.45594000000E+02  0.51100000000E-03 0. -1.
    9900012    2    1    2    0    0 -0.37820993161E+01  0.11642937401E+02  0.38772452294E+02  0.50528864207E+02  0.30000013245E+02 0.  0.
         12    1    1    2    0    0  0.37820993161E+01 -0.11642937401E+02 -0.38772452294E+02  0.40659135793E+02  0.00000000000E+00 0. -1.
         11    1    3    3    0    0  0.10821278991E+02  0.65605392759E+01  0.16169394398E+02  0.20532658622E+02  0.51100000000E-03 0. -1.
        -11    1    3    3    0    0 -0.75615788956E+01  0.65371847478E+00  0.19821358460E+02  0.21224775021E+02  0.51100000000E-03 0.  1.
         12    1    3    3    0    0 -0.70417994119E+01  0.44286796499E+01  0.27816994349E+01  0.87714305643E+01  0.00000000000E+00 0. -1.
</event>
<event>
 7    1  0.2900470E-011  0.5052885E+02  0.7816164E-02  0.1300439E+00
        -11   -1    0    0    0    0  0.00000000000E+00  0.00000000000E+00  0.45593999997E+02  0.45594000000E+02  0.51100000000E-03 0.  1.
         11   -1    0    0    0    0 -0.00000000000E+00 -0.00000000000E+00 -0.45593999997E+02  0.45594000000E+02  0.51100000000E-03 0. -1.
    9900012    2    1    2    0    0 -0.63593574089E+01 -0.41413577095E+01  0.39944636325E+02  0.50528852917E+02  0.29999978928E+02 0.  0.
         12    1    1    2    0    0  0.63593574089E+01  0.41413577095E+01 -0.39944636325E+02  0.40659147083E+02  0.00000000000E+00 0. -1.
         11    1    3    3    0    0 -0.79668968944E+01  0.66345904167E+01  0.19549857826E+02  0.22128853956E+02  0.51100000000E-03 0. -1.
        -11    1    3    3    0    0 -0.16844126251E+01 -0.12938205185E+02  0.20679117860E+02  0.24451182283E+02  0.51100000000E-03 0.  1.
        -12    1    3    3    0    0  0.32919521106E+01  0.21622570591E+01 -0.28433936084E+00  0.39488166785E+01  0.00000000000E+00 0.  1.
</event>
<event>
 7    1  0.2900470E-011  0.5052886E+02  0.7816164E-02  0.1300439E+00
        -11   -1    0    0    0    0  0.00000000000E+00  0.00000000000E+00  0.45593999997E+02  0.45594000000E+02  0.51100000000E-03 0. -1.
         11   -1    0    0    0    0 -0.00000000000E+00 -0.00000000000E+00 -0.45593999997E+02  0.45594000000E+02  0.51100000000E-03 0.  1.
    9900012    2    1    2    0    0  0.41413248913E+01 -0.40232278357E+02  0.41688290481E+01  0.50528856756E+02  0.29999990597E+02 0.  0.
         12    1    1    2    0    0 -0.41413248913E+01  0.40232278357E+02 -0.41688290481E+01  0.40659143244E+02  0.00000000000E+00 0. -1.
         11    1    3    3    0    0 -0.96773793953E+01 -0.37842405172E+01 -0.25316237863E+01  0.10694917836E+02  0.51100000000E-03 0. -1.
        -11    1    3    3    0    0  0.91576002877E+00 -0.65107606122E+01  0.11453892067E+00  0.65758451628E+01  0.51100000000E-03 0.  1.
         12    1    3    3    0    0  0.12902944258E+02 -0.29937277228E+02  0.65859139138E+01  0.33258093758E+02  0.00000000000E+00 0. -1.
</event>
<event>
 7    1  0.2900470E-011  0.5052886E+02  0.7816164E-02  0.1300439E+00
        -11   -1    0    0    0    0  0.00000000000E+00  0.00000000000E+00  0.45593999997E+02  0.45594000000E+02  0.51100000000E-03 0.  1.
         11   -1    0    0    0    0 -0.00000000000E+00 -0.00000000000E+00 -0.45593999997E+02  0.45594000000E+02  0.51100000000E-03 0. -1.
    9900012    2    1    2    0    0  0.32572362980E+02  0.16114894843E+02  0.18235054031E+02  0.50528857591E+02  0.29999993134E+02 0.  0.
         12    1    1    2    0    0 -0.32572362980E+02 -0.16114894843E+02 -0.18235054031E+02  0.40659142409E+02  0.00000000000E+00 0. -1.
         11    1    3    3    0    0  0.96574631670E+01 -0.27808938769E+00 -0.45206695542E+01  0.10666788739E+02  0.51100000000E-03 0. -1.
        -11    1    3    3    0    0  0.17242977031E+02  0.44956274530E+01  0.19233327518E+02  0.26219302255E+02  0.51100000000E-03 0.  1.
        -12    1    3    3    0    0  0.56719227827E+01  0.11897356778E+02  0.35223960666E+01  0.13642766596E+02  0.00000000000E+00 0.  1.
</event>
<event>
 7    1  0.2900470E-011  0.5052886E+02  0.7816164E-02  0.1300439E+00
        -11   -1    0    0    0    0  0.00000000000E+00  0.00000000000E+00  0.45593999997E+02  0.45594000000E+02  0.51100000000E-03 0.  1.
         11   -1    0    0    0    0 -0.00000000000E+00 -0.00000000000E+00 -0.45593999997E+02  0.45594000000E+02  0.51100000000E-03 0. -1.
    9900012    2    1    2    0    0 -0.61749989650E+01 -0.40042105987E+02  0.34153978816E+01  0.50528858263E+02  0.29999995176E+02 0.  0.
         12    1    1    2    0    0  0.61749989650E+01  0.40042105987E+02 -0.34153978816E+01  0.40659141737E+02  0.00000000000E+00 0. -1.
         11    1    3    3    0    0  0.20713739342E+01 -0.85688682074E+01  0.11675931472E+02  0.14630224480E+02  0.51100000000E-03 0. -1.
        -11    1    3    3    0    0  0.13101935722E+01 -0.14710911086E+02 -0.75579826004E+01  0.16590678510E+02  0.51100000000E-03 0.  1.
         12    1    3    3    0    0 -0.95565664715E+01 -0.16762326694E+02 -0.70255099015E+00  0.19307955272E+02  0.00000000000E+00 0. -1.
</event>
<event>
 7    1  0.2900470E-011  0.5052886E+02  0.7816164E-02  0.1300439E+00
        -11   -1    0    0    0    0  0.00000000000E+00  0.00000000000E+00  0.45593999997E+02  0.45594000000E+02  0.51100000000E-03 0.  1.
         11   -1    0    0    0    0 -0.00000000000E+00 -0.00000000000E+00 -0.45593999997E+02  0.45594000000E+02  0.51100000000E-03 0. -1.
    9900012    2    1    2    0    0 -0.26964868666E+02 -0.56427659077E+01  0.29903526527E+02  0.50528857756E+02  0.29999993634E+02 0.  0.
         12    1    1    2    0    0  0.26964868666E+02  0.56427659077E+01 -0.29903526527E+02  0.40659142244E+02  0.00000000000E+00 0. -1.
         11    1    3    3    0    0 -0.37954775148E+01 -0.10660438887E+02  0.13125793270E+01  0.11391815991E+02  0.51100000000E-03 0. -1.
        -11    1    3    3    0    0 -0.71550041755E+01 -0.23692959521E+01  0.15292902618E+02  0.17049355378E+02  0.51100000000E-03 0.  1.
         12    1    3    3    0    0 -0.16014386976E+02  0.73869689312E+01  0.13298044582E+02  0.22087686387E+02  0.00000000000E+00 0. -1.
</event>
<event>
 7    1  0.2900470E-011  0.5052886E+02  0.7816164E-02  0.1300439E+00
        -11   -1    0    0    0    0  0.00000000000E+00  0.00000000000E+00  0.45593999997E+02  0.45594000000E+02  0.51100000000E-03 0.  1.
         11   -1    0    0    0    0 -0.00000000000E+00 -0.00000000000E+00 -0.45593999997E+02  0.45594000000E+02  0.51100000000E-03 0. -1.
    9900012    2    1    2    0    0 -0.23828981255E+02  0.10563439568E+02  0.31205110813E+02  0.50528861494E+02  0.30000004998E+02 0.  0.
         12    1    1    2    0    0  0.23828981255E+02 -0.10563439568E+02 -0.31205110813E+02  0.40659138506E+02  0.00000000000E+00 0. -1.
         11    1    3    3    0    0 -0.26358545461E+01 -0.60770641288E+01  0.13280240277E+02  0.14840593643E+02  0.51100000000E-03 0. -1.
        -11    1    3    3    0    0 -0.14337590602E+02  0.15180161971E+02  0.57801606482E+01  0.21665965917E+02  0.51100000000E-03 0.  1.
        -12    1    3    3    0    0 -0.68555361072E+01  0.14603417258E+01  0.12144709888E+02  0.14022301934E+02  0.00000000000E+00 0.  1.
</event>
<event>
 7    1  0.2900470E-011  0.5052886E+02  0.7816164E-02  0.1300439E+00
        -11   -1    0    0    0    0  0.00000000000E+00  0.00000000000E+00  0.45593999997E+02  0.45594000000E+02  0.51100000000E-03 0. -1.
         11   -1    0    0    0    0 -0.00000000000E+00 -0.00000000000E+00 -0.45593999997E+02  0.45594000000E+02  0.51100000000E-03 0.  1.
    9900012    2    1    2    0    0  0.24783281078E+02  0.32658423490E+01 -0.32066943680E+02  0.50528860508E+02  0.30000002000E+02 0.  0.
         12    1    1    2    0    0 -0.24783281078E+02 -0.32658423490E+01  0.32066943680E+02  0.40659139492E+02  0.00000000000E+00 0. -1.
         11    1    3    3    0    0  0.29360673009E+01  0.12993411850E+02 -0.17021641652E+02  0.21614474953E+02  0.51100000000E-03 0. -1.
        -11    1    3    3    0    0  0.15612398763E+02 -0.70055737147E+01 -0.13833204413E+02  0.22004149672E+02  0.51100000000E-03 0.  1.
        -12    1    3    3    0    0  0.62348150146E+01 -0.27219957867E+01 -0.12120976154E+01  0.69102358829E+01  0.00000000000E+00 0.  1.
</event>
<event>
 7    1  0.2900470E-011  0.5052891E+02  0.7816164E-02  0.1300439E+00
        -11   -1    0    0    0    0  0.00000000000E+00  0.00000000000E+00  0.45593999997E+02  0.45594000000E+02  0.51100000000E-03 0.  1.
         11   -1    0    0    0    0 -0.00000000000E+00 -0.00000000000E+00 -0.45593999997E+02  0.45594000000E+02  0.51100000000E-03 0. -1.
    9900012    2    1    2    0    0 -0.35623287227E+02 -0.18837061153E+02  0.54136985148E+01  0.50528910028E+02  0.30000152520E+02 0.  0.
         12    1    1    2    0    0  0.35623287227E+02  0.18837061153E+02 -0.54136985148E+01  0.40659089972E+02  0.00000000000E+00 0. -1.
         11    1    3    3    0    0 -0.22924682462E+02 -0.11971828505E+02 -0.85295814935E+01  0.27232691833E+02  0.51100000000E-03 0. -1.
        -11    1    3    3    0    0 -0.86146006447E+01  0.18565333502E+01  0.84502732266E+01  0.12209225127E+02  0.51100000000E-03 0.  1.
         12    1    3    3    0    0 -0.40840041205E+01 -0.87217659977E+01  0.54930067817E+01  0.11086993068E+02  0.00000000000E+00 0. -1.
</event>
<event>
 7    1  0.2900470E-011  0.5052886E+02  0.7816164E-02  0.1300439E+00
        -11   -1    0    0    0    0  0.00000000000E+00  0.00000000000E+00  0.45593999997E+02  0.45594000000E+02  0.51100000000E-03 0.  1.
         11   -1    0    0    0    0 -0.00000000000E+00 -0.00000000000E+00 -0.45593999997E+02  0.45594000000E+02  0.51100000000E-03 0. -1.
    9900012    2    1    2    0    0 -0.12919388895E+02  0.25322888957E+02  0.29068992244E+02  0.50528860503E+02  0.30000001985E+02 0.  0.
         12    1    1    2    0    0  0.12919388895E+02 -0.25322888957E+02 -0.29068992244E+02  0.40659139497E+02  0.00000000000E+00 0. -1.
         11    1    3    3    0    0  0.34432077399E+01  0.39629835186E+01  0.32870017143E+00  0.52601294635E+01  0.51100000000E-03 0. -1.
        -11    1    3    3    0    0 -0.11340191126E+02  0.23497494848E+01  0.15064188533E+01  0.11678636711E+02  0.51100000000E-03 0.  1.
        -12    1    3    3    0    0 -0.50224055092E+01  0.19010155953E+02  0.27233873220E+02  0.33590094329E+02  0.00000000000E+00 0.  1.
</event>
<event>
 7    1  0.2900470E-011  0.5052886E+02  0.7816164E-02  0.1300439E+00
        -11   -1    0    0    0    0  0.00000000000E+00  0.00000000000E+00  0.45593999997E+02  0.45594000000E+02  0.51100000000E-03 0.  1.
         11   -1    0    0    0    0 -0.00000000000E+00 -0.00000000000E+00 -0.45593999997E+02  0.45594000000E+02  0.51100000000E-03 0. -1.
    9900012    2    1    2    0    0  0.25841140811E+02  0.12214586512E+02  0.28917214867E+02  0.50528855915E+02  0.29999988038E+02 0.  0.
         12    1    1    2    0    0 -0.25841140811E+02 -0.12214586512E+02 -0.28917214867E+02  0.40659144085E+02  0.00000000000E+00 0. -1.
         11    1    3    3    0    0  0.65871999937E+01  0.41560047086E+01 -0.99155642628E+00  0.78515452812E+01  0.51100000000E-03 0. -1.
        -11    1    3    3    0    0  0.22954316933E+02  0.10421985027E+02  0.28537029129E+02  0.38077295985E+02  0.51100000000E-03 0.  1.
        -12    1    3    3    0    0 -0.37003761162E+01 -0.23634032232E+01  0.13717421644E+01  0.46000146481E+01  0.00000000000E+00 0.  1.
</event>
<event>
 7    1  0.2900470E-011  0.5052886E+02  0.7816164E-02  0.1300439E+00
        -11   -1    0    0    0    0  0.00000000000E+00  0.00000000000E+00  0.45593999997E+02  0.45594000000E+02  0.51100000000E-03 0.  1.
         11   -1    0    0    0    0 -0.00000000000E+00 -0.00000000000E+00 -0.45593999997E+02  0.45594000000E+02  0.51100000000E-03 0. -1.
    9900012    2    1    2    0    0  0.79741195942E+01 -0.11909340588E+02  0.38049264038E+02  0.50528862400E+02  0.30000007752E+02 0.  0.
         12    1    1    2    0    0 -0.79741195942E+01  0.11909340588E+02 -0.38049264038E+02  0.40659137600E+02  0.00000000000E+00 0. -1.
         11    1    3    3    0    0  0.12125373844E+02  0.17242606256E+01  0.45412474804E+01  0.13062185671E+02  0.51100000000E-03 0. -1.
        -11    1    3    3    0    0  0.61792445061E+00 -0.91814671703E+01  0.25664230676E+02  0.27264150573E+02  0.51100000000E-03 0.  1.
         12    1    3    3    0    0 -0.47691787004E+01 -0.44521340433E+01  0.78437858811E+01  0.10202526156E+02  0.00000000000E+00 0. -1.
</event>
<event>
 7    1  0.2900470E-011  0.5052885E+02  0.7816164E-02  0.1300439E+00
        -11   -1    0    0    0    0  0.00000000000E+00  0.00000000000E+00  0.45593999997E+02  0.45594000000E+02  0.51100000000E-03 0.  1.
         11   -1    0    0    0    0 -0.00000000000E+00 -0.00000000000E+00 -0.45593999997E+02  0.45594000000E+02  0.51100000000E-03 0. -1.
    9900012    2    1    2    0    0  0.24209890183E+02 -0.15572300325E+02  0.28714999406E+02  0.50528849604E+02  0.29999968855E+02 0.  0.
         12    1    1    2    0    0 -0.24209890183E+02  0.15572300325E+02 -0.28714999406E+02  0.40659150396E+02  0.00000000000E+00 0. -1.
         11    1    3    3    0    0  0.16842655645E+02 -0.30023550586E+01  0.54161668865E+01  0.17945028534E+02  0.51100000000E-03 0. -1.
        -11    1    3    3    0    0 -0.57921034925E+01 -0.45508273621E+01  0.77604848133E+01  0.10699701741E+02  0.51100000000E-03 0.  1.
        -12    1    3    3    0    0  0.13159338031E+02 -0.80191179039E+01  0.15538347706E+02  0.21884119329E+02  0.00000000000E+00 0.  1.
</event>
<event>
 7    1  0.2900470E-011  0.5052877E+02  0.7816164E-02  0.1300439E+00
        -11   -1    0    0    0    0  0.00000000000E+00  0.00000000000E+00  0.45593999997E+02  0.45594000000E+02  0.51100000000E-03 0.  1.
         11   -1    0    0    0    0 -0.00000000000E+00 -0.00000000000E+00 -0.45593999997E+02  0.45594000000E+02  0.51100000000E-03 0. -1.
    9900012    2    1    2    0    0 -0.28147897380E+02 -0.28919819452E+02  0.49510866365E+01  0.50528765588E+02  0.29999713481E+02 0.  0.
         12    1    1    2    0    0  0.28147897380E+02  0.28919819452E+02 -0.49510866365E+01  0.40659234412E+02  0.00000000000E+00 0. -1.
         11    1    3    3    0    0 -0.31047206772E+01  0.16576619050E+01  0.66949960440E+01  0.75637362306E+01  0.51100000000E-03 0. -1.
        -11    1    3    3    0    0 -0.13212073290E+02 -0.26036448766E+02  0.31797934280E+01  0.29369484699E+02  0.51100000000E-03 0.  1.
        -12    1    3    3    0    0 -0.11831103413E+02 -0.45410325911E+01 -0.49237028356E+01  0.13595544659E+02  0.00000000000E+00 0.  1.
</event>
<event>
 7    1  0.2900470E-011  0.5052886E+02  0.7816164E-02  0.1300439E+00
        -11   -1    0    0    0    0  0.00000000000E+00  0.00000000000E+00  0.45593999997E+02  0.45594000000E+02  0.51100000000E-03 0. -1.
         11   -1    0    0    0    0 -0.00000000000E+00 -0.00000000000E+00 -0.45593999997E+02  0.45594000000E+02  0.51100000000E-03 0.  1.
    9900012    2    1    2    0    0 -0.26321869490E+02 -0.30436373149E+02 -0.58268619192E+01  0.50528856579E+02  0.29999990059E+02 0.  0.
         12    1    1    2    0    0  0.26321869490E+02  0.30436373149E+02  0.58268619192E+01  0.40659143421E+02  0.00000000000E+00 0. -1.
         11    1    3    3    0    0 -0.13321536688E+02 -0.79871026878E+01  0.10501097385E+01  0.15567911864E+02  0.51100000000E-03 0. -1.
        -11    1    3    3    0    0  0.34764250845E+01 -0.12561422212E+02  0.29717648188E+01  0.13368105541E+02  0.51100000000E-03 0.  1.
        -12    1    3    3    0    0 -0.16476757886E+02 -0.98878482488E+01 -0.98487364765E+01  0.21592839174E+02  0.00000000000E+00 0.  1.
</event>
<event>
 7    1  0.2900470E-011  0.5052885E+02  0.7816164E-02  0.1300439E+00
        -11   -1    0    0    0    0  0.00000000000E+00  0.00000000000E+00  0.45593999997E+02  0.45594000000E+02  0.51100000000E-03 0. -1.
         11   -1    0    0    0    0 -0.00000000000E+00 -0.00000000000E+00 -0.45593999997E+02  0.45594000000E+02  0.51100000000E-03 0.  1.
    9900012    2    1    2    0    0  0.19148888760E+02  0.63475487377E+01 -0.35301488932E+02  0.50528850519E+02  0.29999971637E+02 0.  0.
         12    1    1    2    0    0 -0.19148888760E+02 -0.63475487377E+01  0.35301488932E+02  0.40659149481E+02  0.00000000000E+00 0. -1.
         11    1    3    3    0    0  0.74483131691E+01  0.59521640087E+01 -0.67449791715E+01  0.11679056886E+02  0.51100000000E-03 0. -1.
        -11    1    3    3    0    0 -0.68184794871E+01  0.15252593680E+01 -0.39300015731E+01  0.80164201039E+01  0.51100000000E-03 0.  1.
        -12    1    3    3    0    0  0.18519055078E+02 -0.11298746390E+01 -0.24626508187E+02  0.30833373529E+02  0.00000000000E+00 0.  1.
</event>
<event>
 7    1  0.2900470E-011  0.5052884E+02  0.7816164E-02  0.1300439E+00
        -11   -1    0    0    0    0  0.00000000000E+00  0.00000000000E+00  0.45593999997E+02  0.45594000000E+02  0.51100000000E-03 0. -1.
         11   -1    0    0    0    0 -0.00000000000E+00 -0.00000000000E+00 -0.45593999997E+02  0.45594000000E+02  0.51100000000E-03 0.  1.
    9900012    2    1    2    0    0  0.86370356646E+01  0.36402598306E+02 -0.15919154197E+02  0.50528843358E+02  0.29999949870E+02 0.  0.
         12    1    1    2    0    0 -0.86370356646E+01 -0.36402598306E+02  0.15919154197E+02  0.40659156642E+02  0.00000000000E+00 0. -1.
         11    1    3    3    0    0 -0.38597818847E+01  0.19566007408E+02 -0.62584479297E+00  0.19952900643E+02  0.51100000000E-03 0. -1.
        -11    1    3    3    0    0  0.13109201833E+02  0.18500280901E+02 -0.96169705804E+01  0.24629203997E+02  0.51100000000E-03 0.  1.
        -12    1    3    3    0    0 -0.61238428390E+00 -0.16636900029E+01 -0.56763388238E+01  0.59467387179E+01  0.00000000000E+00 0.  1.
</event>
<event>
 7    1  0.2900470E-011  0.5052883E+02  0.7816164E-02  0.1300439E+00
        -11   -1    0    0    0    0  0.00000000000E+00  0.00000000000E+00  0.45593999997E+02  0.45594000000E+02  0.51100000000E-03 0. -1.
         11   -1    0    0    0    0 -0.00000000000E+00 -0.00000000000E+00 -0.45593999997E+02  0.45594000000E+02  0.51100000000E-03 0.  1.
    9900012    2    1    2    0    0 -0.30753031994E+02  0.22584568693E+02 -0.14048369933E+02  0.50528826157E+02  0.29999897586E+02 0.  0.
         12    1    1    2    0    0  0.30753031994E+02 -0.22584568693E+02  0.14048369933E+02  0.40659173843E+02  0.00000000000E+00 0. -1.
         11    1    3    3    0    0 -0.17995911200E+02  0.76694254278E+01 -0.18537804830E+02  0.26950382456E+02  0.51100000000E-03 0. -1.
        -11    1    3    3    0    0 -0.10092178321E+02  0.16206977738E+02  0.11674603063E+01  0.19128020140E+02  0.51100000000E-03 0.  1.
         12    1    3    3    0    0 -0.26649424726E+01 -0.12918344732E+01  0.33219745911E+01  0.44504235611E+01  0.00000000000E+00 0. -1.
</event>
<event>
 7    1  0.2900470E-011  0.5052885E+02  0.7816164E-02  0.1300439E+00
        -11   -1    0    0    0    0  0.00000000000E+00  0.00000000000E+00  0.45593999997E+02  0.45594000000E+02  0.51100000000E-03 0.  1.
         11   -1    0    0    0    0 -0.00000000000E+00 -0.00000000000E+00 -0.45593999997E+02  0.45594000000E+02  0.51100000000E-03 0. -1.
    9900012    2    1    2    0    0  0.16221005756E+02  0.18967666364E+02  0.32097865772E+02  0.50528851188E+02  0.29999973670E+02 0.  0.
         12    1    1    2    0    0 -0.16221005756E+02 -0.18967666364E+02 -0.32097865772E+02  0.40659148812E+02  0.00000000000E+00 0. -1.
         11    1    3    3    0    0 -0.16472991557E+01  0.15928625952E+01 -0.12837169898E+01  0.26265443698E+01  0.51100000000E-03 0. -1.
        -11    1    3    3    0    0  0.16132863546E+02  0.20190253887E+02  0.35547183127E+02  0.43949037153E+02  0.51100000000E-03 0.  1.
        -12    1    3    3    0    0  0.17354413658E+01 -0.28154501176E+01 -0.21656003651E+01  0.39532696645E+01  0.00000000000E+00 0.  1.
</event>
<event>
 7    1  0.2900470E-011  0.5052885E+02  0.7816164E-02  0.1300439E+00
        -11   -1    0    0    0    0  0.00000000000E+00  0.00000000000E+00  0.45593999997E+02  0.45594000000E+02  0.51100000000E-03 0.  1.
         11   -1    0    0    0    0 -0.00000000000E+00 -0.00000000000E+00 -0.45593999997E+02  0.45594000000E+02  0.51100000000E-03 0. -1.
    9900012    2    1    2    0    0  0.13445073372E+02 -0.31891488109E+02  0.21338442657E+02  0.50528854081E+02  0.29999982465E+02 0.  0.
         12    1    1    2    0    0 -0.13445073372E+02  0.31891488109E+02 -0.21338442657E+02  0.40659145919E+02  0.00000000000E+00 0. -1.
         11    1    3    3    0    0  0.79223918803E+01 -0.26752200852E+02  0.66286738155E+01  0.28677235926E+02  0.51100000000E-03 0. -1.
        -11    1    3    3    0    0  0.10269327183E+02 -0.20314788868E+01  0.10016257811E+02  0.14488319711E+02  0.51100000000E-03 0.  1.
         12    1    3    3    0    0 -0.47466456910E+01 -0.31078083703E+01  0.46935110301E+01  0.73632984438E+01  0.00000000000E+00 0. -1.
</event>
<event>
 7    1  0.2900470E-011  0.5052886E+02  0.7816164E-02  0.1300439E+00
        -11   -1    0    0    0    0  0.00000000000E+00  0.00000000000E+00  0.45593999997E+02  0.45594000000E+02  0.51100000000E-03 0.  1.
         11   -1    0    0    0    0 -0.00000000000E+00 -0.00000000000E+00 -0.45593999997E+02  0.45594000000E+02  0.51100000000E-03 0. -1.
    9900012    2    1    2    0    0  0.31178463669E+02 -0.23628753206E+02  0.11079304772E+02  0.50528861186E+02  0.30000004062E+02 0.  0.
         12    1    1    2    0    0 -0.31178463669E+02  0.23628753206E+02 -0.11079304772E+02  0.40659138814E+02  0.00000000000E+00 0. -1.
         11    1    3    3    0    0  0.17060897889E+02 -0.37040881897E+01  0.14396234223E+02  0.22628434903E+02  0.51100000000E-03 0.  1.
        -11    1    3    3    0    0  0.12860135614E+02 -0.10017761325E+02 -0.63023221297E+01  0.17477353761E+02  0.51100000000E-03 0. -1.
         12    1    3    3    0    0  0.12574301660E+01 -0.99069036909E+01  0.29853926788E+01  0.10423072523E+02  0.00000000000E+00 0. -1.
</event>
<event>
 7    1  0.2900470E-011  0.5052886E+02  0.7816164E-02  0.1300439E+00
        -11   -1    0    0    0    0  0.00000000000E+00  0.00000000000E+00  0.45593999997E+02  0.45594000000E+02  0.51100000000E-03 0.  1.
         11   -1    0    0    0    0 -0.00000000000E+00 -0.00000000000E+00 -0.45593999997E+02  0.45594000000E+02  0.51100000000E-03 0. -1.
    9900012    2    1    2    0    0 -0.10785071926E+02 -0.38845967294E+02  0.52762521495E+01  0.50528858492E+02  0.29999995871E+02 0.  0.
         12    1    1    2    0    0  0.10785071926E+02  0.38845967294E+02 -0.52762521495E+01  0.40659141508E+02  0.00000000000E+00 0. -1.
         11    1    3    3    0    0  0.24660638415E+01 -0.58472257364E+01  0.11188644045E+02  0.12863019688E+02  0.51100000000E-03 0. -1.
        -11    1    3    3    0    0 -0.37104003890E+01 -0.22984754189E+02 -0.24728930230E+01  0.23413269664E+02  0.51100000000E-03 0.  1.
        -12    1    3    3    0    0 -0.95407353787E+01 -0.10013987368E+02 -0.34394988724E+01  0.14252569139E+02  0.00000000000E+00 0.  1.
</event>
<event>
 7    1  0.2900470E-011  0.5052885E+02  0.7816164E-02  0.1300439E+00
        -11   -1    0    0    0    0  0.00000000000E+00  0.00000000000E+00  0.45593999997E+02  0.45594000000E+02  0.51100000000E-03 0. -1.
         11   -1    0    0    0    0 -0.00000000000E+00 -0.00000000000E+00 -0.45593999997E+02  0.45594000000E+02  0.51100000000E-03 0.  1.
    9900012    2    1    2    0    0 -0.19994070856E+02  0.13774910234E+02 -0.32613731621E+02  0.50528849595E+02  0.29999968829E+02 0.  0.
         12    1    1    2    0    0  0.19994070856E+02 -0.13774910234E+02  0.32613731621E+02  0.40659150405E+02  0.00000000000E+00 0. -1.
         11    1    3    3    0    0 -0.38730705980E+01 -0.22045166968E+01 -0.82495688261E+01  0.93763508788E+01  0.51100000000E-03 0. -1.
        -11    1    3    3    0    0  0.56317450529E+01  0.66303147480E+01 -0.10791992209E+02  0.13861627686E+02  0.51100000000E-03 0.  1.
        -12    1    3    3    0    0 -0.21752745311E+02  0.93491121832E+01 -0.13572170586E+02  0.27290871030E+02  0.00000000000E+00 0.  1.
</event>
<event>
 7    1  0.2900470E-011  0.5052886E+02  0.7816164E-02  0.1300439E+00
        -11   -1    0    0    0    0  0.00000000000E+00  0.00000000000E+00  0.45593999997E+02  0.45594000000E+02  0.51100000000E-03 0.  1.
         11   -1    0    0    0    0 -0.00000000000E+00 -0.00000000000E+00 -0.45593999997E+02  0.45594000000E+02  0.51100000000E-03 0. -1.
    9900012    2    1    2    0    0 -0.20534186123E+02 -0.14600106222E+01  0.35062527857E+02  0.50528864612E+02  0.30000014476E+02 0.  0.
         12    1    1    2    0    0  0.20534186123E+02  0.14600106222E+01 -0.35062527857E+02  0.40659135388E+02  0.00000000000E+00 0. -1.
         11    1    3    3    0    0 -0.13675132539E+02 -0.15274754136E+02  0.18690094291E+02  0.27742512301E+02  0.51100000000E-03 0. -1.
        -11    1    3    3    0    0 -0.70786328579E+01  0.12474387805E+02  0.15718743367E+02  0.21279010492E+02  0.51100000000E-03 0.  1.
         12    1    3    3    0    0  0.21957927387E+00  0.13403557091E+01  0.65369019896E+00  0.15073418195E+01  0.00000000000E+00 0. -1.
</event>
<event>
 7    1  0.2900470E-011  0.5052886E+02  0.7816164E-02  0.1300439E+00
        -11   -1    0    0    0    0  0.00000000000E+00  0.00000000000E+00  0.45593999997E+02  0.45594000000E+02  0.51100000000E-03 0.  1.
         11   -1    0    0    0    0 -0.00000000000E+00 -0.00000000000E+00 -0.45593999997E+02  0.45594000000E+02  0.51100000000E-03 0. -1.
    9900012    2    1    2    0    0  0.24575881249E+02  0.31407608523E+02 -0.79217096332E+01  0.50528864547E+02  0.30000014276E+02 0.  0.
         12    1    1    2    0    0 -0.24575881249E+02 -0.31407608523E+02  0.79217096332E+01  0.40659135453E+02  0.00000000000E+00 0. -1.
         11    1    3    3    0    0  0.52125842962E+01  0.52004331147E+00 -0.71828683967E+01  0.88901675325E+01  0.51100000000E-03 0.  1.
        -11    1    3    3    0    0  0.72045039415E+01  0.17156660113E+02  0.92220611809E+01  0.20767818276E+02  0.51100000000E-03 0. -1.
        -12    1    3    3    0    0  0.12158793012E+02  0.13730905098E+02 -0.99609024174E+01  0.20870878738E+02  0.00000000000E+00 0.  1.
</event>
<event>
 7    1  0.2900470E-011  0.5052887E+02  0.7816164E-02  0.1300439E+00
        -11   -1    0    0    0    0  0.00000000000E+00  0.00000000000E+00  0.45593999997E+02  0.45594000000E+02  0.51100000000E-03 0. -1.
         11   -1    0    0    0    0 -0.00000000000E+00 -0.00000000000E+00 -0.45593999997E+02  0.45594000000E+02  0.51100000000E-03 0.  1.
    9900012    2    1    2    0    0 -0.35381201523E+01 -0.39759927217E+02 -0.77326891786E+01  0.50528873246E+02  0.30000040718E+02 0.  0.
         12    1    1    2    0    0  0.35381201523E+01  0.39759927217E+02  0.77326891786E+01  0.40659126754E+02  0.00000000000E+00 0. -1.
         11    1    3    3    0    0 -0.11754370308E+02 -0.13151473867E+02 -0.86032516370E+01  0.19625045865E+02  0.51100000000E-03 0. -1.
        -11    1    3    3    0    0  0.40788963515E+01 -0.61653195122E+01  0.58885292371E+01  0.94511024209E+01  0.51100000000E-03 0.  1.
        -12    1    3    3    0    0  0.41373538045E+01 -0.20443133838E+02 -0.50179667786E+01  0.21452724960E+02  0.00000000000E+00 0.  1.
</event>
<event>
 7    1  0.2900470E-011  0.5052885E+02  0.7816164E-02  0.1300439E+00
        -11   -1    0    0    0    0  0.00000000000E+00  0.00000000000E+00  0.45593999997E+02  0.45594000000E+02  0.51100000000E-03 0.  1.
         11   -1    0    0    0    0 -0.00000000000E+00 -0.00000000000E+00 -0.45593999997E+02  0.45594000000E+02  0.51100000000E-03 0. -1.
    9900012    2    1    2    0    0 -0.17008265540E+02 -0.17266940672E+02  0.32645645459E+02  0.50528849685E+02  0.29999969104E+02 0.  0.
         12    1    1    2    0    0  0.17008265540E+02  0.17266940672E+02 -0.32645645459E+02  0.40659150315E+02  0.00000000000E+00 0. -1.
         11    1    3    3    0    0  0.20815790229E+01  0.49769301265E+01  0.26983662592E+01  0.60319139120E+01  0.51100000000E-03 0. -1.
        -11    1    3    3    0    0 -0.13912928237E+02 -0.23736603923E+02  0.24638077836E+02  0.36932787840E+02  0.51100000000E-03 0.  1.
        -12    1    3    3    0    0 -0.51769163264E+01  0.14927331250E+01  0.53092013643E+01  0.75641479335E+01  0.00000000000E+00 0.  1.
</event>
<event>
 7    1  0.2900470E-011  0.5052886E+02  0.7816164E-02  0.1300439E+00
        -11   -1    0    0    0    0  0.00000000000E+00  0.00000000000E+00  0.45593999997E+02  0.45594000000E+02  0.51100000000E-03 0.  1.
         11   -1    0    0    0    0 -0.00000000000E+00 -0.00000000000E+00 -0.45593999997E+02  0.45594000000E+02  0.51100000000E-03 0. -1.
    9900012    2    1    2    0    0 -0.23787111246E+02  0.14819795273E+02  0.29456966596E+02  0.50528857432E+02  0.29999992650E+02 0.  0.
         12    1    1    2    0    0  0.23787111246E+02 -0.14819795273E+02 -0.29456966596E+02  0.40659142568E+02  0.00000000000E+00 0. -1.
         11    1    3    3    0    0  0.41125071952E+01  0.90577432334E+01  0.65774279026E+01  0.11925518269E+02  0.51100000000E-03 0. -1.
        -11    1    3    3    0    0 -0.23604678545E+02  0.56011178222E+01  0.12333708635E+02  0.27215321769E+02  0.51100000000E-03 0.  1.
         12    1    3    3    0    0 -0.42949398961E+01  0.16093421698E+00  0.10545830058E+02  0.11388017394E+02  0.00000000000E+00 0. -1.
</event>
<event>
 7    1  0.2900470E-011  0.5052886E+02  0.7816164E-02  0.1300439E+00
        -11   -1    0    0    0    0  0.00000000000E+00  0.00000000000E+00  0.45593999997E+02  0.45594000000E+02  0.51100000000E-03 0. -1.
         11   -1    0    0    0    0 -0.00000000000E+00 -0.00000000000E+00 -0.45593999997E+02  0.45594000000E+02  0.51100000000E-03 0.  1.
    9900012    2    1    2    0    0 -0.39449352245E+02 -0.85448791553E+01 -0.48886642932E+01  0.50528863378E+02  0.30000010722E+02 0.  0.
         12    1    1    2    0    0  0.39449352245E+02  0.85448791553E+01  0.48886642932E+01  0.40659136622E+02  0.00000000000E+00 0. -1.
         11    1    3    3    0    0  0.34812410723E+01 -0.47097163037E+01 -0.55284537001E+00  0.58826954136E+01  0.51100000000E-03 0. -1.
        -11    1    3    3    0    0 -0.33603548595E+02  0.11739220213E+01 -0.52007928515E+01  0.34023885986E+02  0.51100000000E-03 0.  1.
         12    1    3    3    0    0 -0.93270447223E+01 -0.50090848729E+01  0.86497392824E+00  0.10622281978E+02  0.00000000000E+00 0. -1.
</event>
<event>
 7    1  0.2900470E-011  0.5052886E+02  0.7816164E-02  0.1300439E+00
        -11   -1    0    0    0    0  0.00000000000E+00  0.00000000000E+00  0.45593999997E+02  0.45594000000E+02  0.51100000000E-03 0.  1.
         11   -1    0    0    0    0 -0.00000000000E+00 -0.00000000000E+00 -0.45593999997E+02  0.45594000000E+02  0.51100000000E-03 0. -1.
    9900012    2    1    2    0    0 -0.11777645139E+01  0.68715121076E+01  0.40056965369E+02  0.50528864711E+02  0.30000014774E+02 0.  0.
         12    1    1    2    0    0  0.11777645139E+01 -0.68715121076E+01 -0.40056965369E+02  0.40659135289E+02  0.00000000000E+00 0. -1.
         11    1    3    3    0    0  0.19374107156E+00  0.10972467058E+02  0.10867491714E+02  0.15444576568E+02  0.51100000000E-03 0.  1.
        -11    1    3    3    0    0 -0.18263554206E+01 -0.10812459910E+02  0.24621605436E+02  0.26953076224E+02  0.51100000000E-03 0. -1.
         12    1    3    3    0    0  0.45484983515E+00  0.67115049599E+01  0.45678682192E+01  0.81312119187E+01  0.00000000000E+00 0. -1.
</event>
<event>
 7    1  0.2900470E-011  0.5052886E+02  0.7816164E-02  0.1300439E+00
        -11   -1    0    0    0    0  0.00000000000E+00  0.00000000000E+00  0.45593999997E+02  0.45594000000E+02  0.51100000000E-03 0.  1.
         11   -1    0    0    0    0 -0.00000000000E+00 -0.00000000000E+00 -0.45593999997E+02  0.45594000000E+02  0.51100000000E-03 0. -1.
    9900012    2    1    2    0    0  0.19740863100E+02 -0.97061099903E+01 -0.34194379960E+02  0.50528857512E+02  0.29999992892E+02 0.  0.
         12    1    1    2    0    0 -0.19740863100E+02  0.97061099903E+01  0.34194379960E+02  0.40659142488E+02  0.00000000000E+00 0. -1.
         11    1    3    3    0    0 -0.29036192166E+01 -0.44480195711E+01 -0.10151910323E+02  0.11457624803E+02  0.51100000000E-03 0. -1.
        -11    1    3    3    0    0  0.24275439645E+02  0.43557242420E+00 -0.22118836637E+02  0.32844019664E+02  0.51100000000E-03 0.  1.
        -12    1    3    3    0    0 -0.16309573288E+01 -0.56936628434E+01 -0.19236330006E+01  0.62272130446E+01  0.00000000000E+00 0.  1.
</event>
<event>
 7    1  0.2900470E-011  0.5052885E+02  0.7816164E-02  0.1300439E+00
        -11   -1    0    0    0    0  0.00000000000E+00  0.00000000000E+00  0.45593999997E+02  0.45594000000E+02  0.51100000000E-03 0.  1.
         11   -1    0    0    0    0 -0.00000000000E+00 -0.00000000000E+00 -0.45593999997E+02  0.45594000000E+02  0.51100000000E-03 0. -1.
    9900012    2    1    2    0    0 -0.18629217893E+02 -0.14552592267E+02  0.33080817377E+02  0.50528853682E+02  0.29999981253E+02 0.  0.
         12    1    1    2    0    0  0.18629217893E+02  0.14552592267E+02 -0.33080817377E+02  0.40659146318E+02  0.00000000000E+00 0. -1.
         11    1    3    3    0    0 -0.28684302594E+01 -0.12674631083E+02  0.31783134870E+02  0.34337178504E+02  0.51100000000E-03 0.  1.
        -11    1    3    3    0    0 -0.12346033982E+02 -0.21278117576E+01  0.20270093886E+01  0.12690977318E+02  0.51100000000E-03 0. -1.
        -12    1    3    3    0    0 -0.34147536509E+01  0.24985057339E+00 -0.72932688162E+00  0.35006978598E+01  0.00000000000E+00 0.  1.
</event>
<event>
 7    1  0.2900470E-011  0.5052886E+02  0.7816164E-02  0.1300439E+00
        -11   -1    0    0    0    0  0.00000000000E+00  0.00000000000E+00  0.45593999997E+02  0.45594000000E+02  0.51100000000E-03 0.  1.
         11   -1    0    0    0    0 -0.00000000000E+00 -0.00000000000E+00 -0.45593999997E+02  0.45594000000E+02  0.51100000000E-03 0. -1.
    9900012    2    1    2    0    0 -0.56019966831E+00  0.20890126529E+02  0.34877704410E+02  0.50528862344E+02  0.30000007580E+02 0.  0.
         12    1    1    2    0    0  0.56019966831E+00 -0.20890126529E+02 -0.34877704410E+02  0.40659137656E+02  0.00000000000E+00 0. -1.
         11    1    3    3    0    0  0.34351891771E+01  0.28950340349E+01 -0.37219434675E+01  0.58339189387E+01  0.51100000000E-03 0. -1.
        -11    1    3    3    0    0 -0.15294320882E+01  0.53708817432E+01  0.26340336496E+02  0.26925802870E+02  0.51100000000E-03 0.  1.
         12    1    3    3    0    0 -0.24659567572E+01  0.12624210751E+02  0.12259311381E+02  0.17769140535E+02  0.00000000000E+00 0. -1.
</event>
<event>
 7    1  0.2900470E-011  0.5052886E+02  0.7816164E-02  0.1300439E+00
        -11   -1    0    0    0    0  0.00000000000E+00  0.00000000000E+00  0.45593999997E+02  0.45594000000E+02  0.51100000000E-03 0. -1.
         11   -1    0    0    0    0 -0.00000000000E+00 -0.00000000000E+00 -0.45593999997E+02  0.45594000000E+02  0.51100000000E-03 0.  1.
    9900012    2    1    2    0    0 -0.40161444505E+02 -0.38267630312E+01  0.50576625830E+01  0.50528859689E+02  0.29999999509E+02 0.  0.
         12    1    1    2    0    0  0.40161444505E+02  0.38267630312E+01 -0.50576625830E+01  0.40659140311E+02  0.00000000000E+00 0. -1.
         11    1    3    3    0    0 -0.33200196817E+02 -0.11860780711E+01  0.37200057172E+01  0.33429003765E+02  0.51100000000E-03 0. -1.
        -11    1    3    3    0    0 -0.26114839427E+01  0.90026544602E+00 -0.67295678502E+01  0.72744353711E+01  0.51100000000E-03 0.  1.
         12    1    3    3    0    0 -0.43497637453E+01 -0.35409504062E+01  0.80672247161E+01  0.98254205528E+01  0.00000000000E+00 0. -1.
</event>
<event>
 7    1  0.2900470E-011  0.5052886E+02  0.7816164E-02  0.1300439E+00
        -11   -1    0    0    0    0  0.00000000000E+00  0.00000000000E+00  0.45593999997E+02  0.45594000000E+02  0.51100000000E-03 0.  1.
         11   -1    0    0    0    0 -0.00000000000E+00 -0.00000000000E+00 -0.45593999997E+02  0.45594000000E+02  0.51100000000E-03 0. -1.
    9900012    2    1    2    0    0 -0.60115379157E+01  0.39145837650E+02 -0.91994782855E+01  0.50528860878E+02  0.30000003125E+02 0.  0.
         12    1    1    2    0    0  0.60115379157E+01 -0.39145837650E+02  0.91994782855E+01  0.40659139122E+02  0.00000000000E+00 0. -1.
         11    1    3    3    0    0  0.98023433916E-01  0.12482430403E+02 -0.15434157241E+02  0.19850286833E+02  0.51100000000E-03 0. -1.
        -11    1    3    3    0    0  0.15876023147E+00  0.31358726822E+01  0.54833990121E+01  0.63187472870E+01  0.51100000000E-03 0.  1.
         12    1    3    3    0    0 -0.62683215811E+01  0.23527534564E+02  0.75127994307E+00  0.24359826758E+02  0.00000000000E+00 0. -1.
</event>
<event>
 7    1  0.2900470E-011  0.5052894E+02  0.7816164E-02  0.1300438E+00
        -11   -1    0    0    0    0  0.00000000000E+00  0.00000000000E+00  0.45593999997E+02  0.45594000000E+02  0.51100000000E-03 0. -1.
         11   -1    0    0    0    0 -0.00000000000E+00 -0.00000000000E+00 -0.45593999997E+02  0.45594000000E+02  0.51100000000E-03 0.  1.
    9900012    2    1    2    0    0  0.19930896247E+02  0.12986303661E+02 -0.32973839561E+02  0.50528944387E+02  0.30000256956E+02 0.  0.
         12    1    1    2    0    0 -0.19930896247E+02 -0.12986303661E+02  0.32973839561E+02  0.40659055613E+02  0.00000000000E+00 0. -1.
         11    1    3    3    0    0  0.18397672723E+02 -0.44740172712E+01 -0.11212553361E+02  0.22004830044E+02  0.51100000000E-03 0. -1.
        -11    1    3    3    0    0 -0.18627913171E+01  0.10525376515E+02 -0.13434663595E+02  0.17168102063E+02  0.51100000000E-03 0.  1.
         12    1    3    3    0    0  0.33960148412E+01  0.69349444176E+01 -0.83266226058E+01  0.11356012280E+02  0.00000000000E+00 0. -1.
</event>
<event>
 7    1  0.2900470E-011  0.5052886E+02  0.7816164E-02  0.1300439E+00
        -11   -1    0    0    0    0  0.00000000000E+00  0.00000000000E+00  0.45593999997E+02  0.45594000000E+02  0.51100000000E-03 0.  1.
         11   -1    0    0    0    0 -0.00000000000E+00 -0.00000000000E+00 -0.45593999997E+02  0.45594000000E+02  0.51100000000E-03 0. -1.
    9900012    2    1    2    0    0  0.23629661272E+02  0.53795955021E+01  0.32647584931E+02  0.50528859067E+02  0.29999997620E+02 0.  0.
         12    1    1    2    0    0 -0.23629661272E+02 -0.53795955021E+01 -0.32647584931E+02  0.40659140933E+02  0.00000000000E+00 0. -1.
         11    1    3    3    0    0  0.19220436810E+02 -0.86416761862E+01  0.18313527580E+02  0.27919331137E+02  0.51100000000E-03 0. -1.
        -11    1    3    3    0    0 -0.15356242343E+01  0.26001171125E+01  0.73844418774E+01  0.79780155985E+01  0.51100000000E-03 0.  1.
         12    1    3    3    0    0  0.59448486965E+01  0.11421154576E+02  0.69496154738E+01  0.14631512331E+02  0.00000000000E+00 0. -1.
</event>
<event>
 7    1  0.2900470E-011  0.5052888E+02  0.7816164E-02  0.1300439E+00
        -11   -1    0    0    0    0  0.00000000000E+00  0.00000000000E+00  0.45593999997E+02  0.45594000000E+02  0.51100000000E-03 0. -1.
         11   -1    0    0    0    0 -0.00000000000E+00 -0.00000000000E+00 -0.45593999997E+02  0.45594000000E+02  0.51100000000E-03 0.  1.
    9900012    2    1    2    0    0  0.21643533406E+02 -0.32088262306E+02  0.12452500514E+02  0.50528881894E+02  0.30000067004E+02 0.  0.
         12    1    1    2    0    0 -0.21643533406E+02  0.32088262306E+02 -0.12452500514E+02  0.40659118106E+02  0.00000000000E+00 0. -1.
         11    1    3    3    0    0  0.85556393716E+01  0.15817871795E+01  0.85564237305E+01  0.12203007951E+02  0.51100000000E-03 0. -1.
        -11    1    3    3    0    0  0.29316823087E+01 -0.23446821602E+02  0.11595479823E+01  0.23657826531E+02  0.51100000000E-03 0.  1.
         12    1    3    3    0    0  0.10156211726E+02 -0.10223227884E+02  0.27365288010E+01  0.14668047411E+02  0.00000000000E+00 0. -1.
</event>
<event>
 7    1  0.2900470E-011  0.5052885E+02  0.7816164E-02  0.1300439E+00
        -11   -1    0    0    0    0  0.00000000000E+00  0.00000000000E+00  0.45593999997E+02  0.45594000000E+02  0.51100000000E-03 0.  1.
         11   -1    0    0    0    0 -0.00000000000E+00 -0.00000000000E+00 -0.45593999997E+02  0.45594000000E+02  0.51100000000E-03 0. -1.
    9900012    2    1    2    0    0  0.47758404019E+01  0.99665146505E+01  0.39128328141E+02  0.50528854301E+02  0.29999983134E+02 0.  0.
         12    1    1    2    0    0 -0.47758404019E+01 -0.99665146505E+01 -0.39128328141E+02  0.40659145699E+02  0.00000000000E+00 0. -1.
         11    1    3    3    0    0 -0.63141366122E+01  0.35095464407E+01  0.10276275183E+01  0.72966606029E+01  0.51100000000E-03 0. -1.
        -11    1    3    3    0    0  0.10828894918E+02  0.10903629116E+02  0.33347991518E+02  0.36718423599E+02  0.51100000000E-03 0.  1.
        -12    1    3    3    0    0  0.26108209603E+00 -0.44466609057E+01  0.47527091051E+01  0.65137700995E+01  0.00000000000E+00 0.  1.
</event>
<event>
 7    1  0.2900470E-011  0.5052886E+02  0.7816164E-02  0.1300439E+00
        -11   -1    0    0    0    0  0.00000000000E+00  0.00000000000E+00  0.45593999997E+02  0.45594000000E+02  0.51100000000E-03 0.  1.
         11   -1    0    0    0    0 -0.00000000000E+00 -0.00000000000E+00 -0.45593999997E+02  0.45594000000E+02  0.51100000000E-03 0. -1.
    9900012    2    1    2    0    0 -0.10097733441E+02  0.35452595063E+02  0.17155603257E+02  0.50528862768E+02  0.30000008870E+02 0.  0.
         12    1    1    2    0    0  0.10097733441E+02 -0.35452595063E+02 -0.17155603257E+02  0.40659137232E+02  0.00000000000E+00 0. -1.
         11    1    3    3    0    0  0.40741940837E+01  0.14909604330E+02  0.10234995145E+02  0.18537812292E+02  0.51100000000E-03 0. -1.
        -11    1    3    3    0    0 -0.14415929810E+02  0.45249426302E+01  0.20548082694E+01  0.15248487642E+02  0.51100000000E-03 0.  1.
        -12    1    3    3    0    0  0.24400228524E+00  0.16018048103E+02  0.48657998422E+01  0.16742562834E+02  0.00000000000E+00 0.  1.
</event>
<event>
 7    1  0.2900470E-011  0.5052887E+02  0.7816164E-02  0.1300439E+00
        -11   -1    0    0    0    0  0.00000000000E+00  0.00000000000E+00  0.45593999997E+02  0.45594000000E+02  0.51100000000E-03 0.  1.
         11   -1    0    0    0    0 -0.00000000000E+00 -0.00000000000E+00 -0.45593999997E+02  0.45594000000E+02  0.51100000000E-03 0. -1.
    9900012    2    1    2    0    0  0.34874117417E+02  0.18932107028E+02  0.88620807495E+01  0.50528865512E+02  0.30000017209E+02 0.  0.
         12    1    1    2    0    0 -0.34874117417E+02 -0.18932107028E+02 -0.88620807495E+01  0.40659134488E+02  0.00000000000E+00 0. -1.
         11    1    3    3    0    0  0.92078167503E+01 -0.72427114437E+01  0.52128021230E+01  0.12822404790E+02  0.51100000000E-03 0. -1.
        -11    1    3    3    0    0  0.80739126357E+01  0.66458014244E+01  0.45552455805E+01  0.11406358068E+02  0.51100000000E-03 0.  1.
         12    1    3    3    0    0  0.17592388031E+02  0.19529017047E+02 -0.90596695399E+00  0.26300102653E+02  0.00000000000E+00 0. -1.
</event>
<event>
 7    1  0.2900470E-011  0.5052886E+02  0.7816164E-02  0.1300439E+00
        -11   -1    0    0    0    0  0.00000000000E+00  0.00000000000E+00  0.45593999997E+02  0.45594000000E+02  0.51100000000E-03 0.  1.
         11   -1    0    0    0    0 -0.00000000000E+00 -0.00000000000E+00 -0.45593999997E+02  0.45594000000E+02  0.51100000000E-03 0. -1.
    9900012    2    1    2    0    0 -0.15173236082E+02  0.37639072515E+02 -0.24978387142E+01  0.50528855011E+02  0.29999985292E+02 0.  0.
         12    1    1    2    0    0  0.15173236082E+02 -0.37639072515E+02  0.24978387142E+01  0.40659144989E+02  0.00000000000E+00 0. -1.
         11    1    3    3    0    0 -0.19543729326E+02  0.17828871523E+02 -0.10829654777E+02  0.28585091195E+02  0.51100000000E-03 0. -1.
        -11    1    3    3    0    0  0.32204034890E+01  0.12944321016E+02  0.54946728723E+01  0.14426291119E+02  0.51100000000E-03 0.  1.
         12    1    3    3    0    0  0.11500897549E+01  0.68658799755E+01  0.28371431904E+01  0.75174726980E+01  0.00000000000E+00 0. -1.
</event>
<event>
 7    1  0.2900470E-011  0.5052883E+02  0.7816164E-02  0.1300439E+00
        -11   -1    0    0    0    0  0.00000000000E+00  0.00000000000E+00  0.45593999997E+02  0.45594000000E+02  0.51100000000E-03 0. -1.
         11   -1    0    0    0    0 -0.00000000000E+00 -0.00000000000E+00 -0.45593999997E+02  0.45594000000E+02  0.51100000000E-03 0.  1.
    9900012    2    1    2    0    0  0.36974161057E+02  0.10136261194E+02 -0.13540161602E+02  0.50528826950E+02  0.29999899998E+02 0.  0.
         12    1    1    2    0    0 -0.36974161057E+02 -0.10136261194E+02  0.13540161602E+02  0.40659173050E+02  0.00000000000E+00 0. -1.
         11    1    3    3    0    0 -0.10512390469E+01  0.35292564649E+01 -0.70051243130E+01  0.79140711161E+01  0.51100000000E-03 0. -1.
        -11    1    3    3    0    0  0.29625811189E+02 -0.69367262074E+00 -0.94610993330E+01  0.31107591857E+02  0.51100000000E-03 0.  1.
         12    1    3    3    0    0  0.83995889151E+01  0.73006773494E+01  0.29260620441E+01  0.11507163977E+02  0.00000000000E+00 0. -1.
</event>
<event>
 7    1  0.2900470E-011  0.5052885E+02  0.7816164E-02  0.1300439E+00
        -11   -1    0    0    0    0  0.00000000000E+00  0.00000000000E+00  0.45593999997E+02  0.45594000000E+02  0.51100000000E-03 0.  1.
         11   -1    0    0    0    0 -0.00000000000E+00 -0.00000000000E+00 -0.45593999997E+02  0.45594000000E+02  0.51100000000E-03 0. -1.
    9900012    2    1    2    0    0  0.19369613459E+02 -0.27197019971E+01  0.35645303851E+02  0.50528851077E+02  0.29999973334E+02 0.  0.
         12    1    1    2    0    0 -0.19369613459E+02  0.27197019971E+01 -0.35645303851E+02  0.40659148923E+02  0.00000000000E+00 0. -1.
         11    1    3    3    0    0  0.35033633430E+01  0.20319919924E+01  0.16259771671E+01  0.43642122060E+01  0.51100000000E-03 0. -1.
        -11    1    3    3    0    0  0.14992709996E+02 -0.13395710949E+02  0.14468207208E+02  0.24770051371E+02  0.51100000000E-03 0.  1.
        -12    1    3    3    0    0  0.87354011949E+00  0.86440169590E+01  0.19551119476E+02  0.21394587500E+02  0.00000000000E+00 0.  1.
</event>
<event>
 7    1  0.2900470E-011  0.5052886E+02  0.7816164E-02  0.1300439E+00
        -11   -1    0    0    0    0  0.00000000000E+00  0.00000000000E+00  0.45593999997E+02  0.45594000000E+02  0.51100000000E-03 0.  1.
         11   -1    0    0    0    0 -0.00000000000E+00 -0.00000000000E+00 -0.45593999997E+02  0.45594000000E+02  0.51100000000E-03 0. -1.
    9900012    2    1    2    0    0  0.37271651073E+01  0.40039132808E+02  0.60118020233E+01  0.50528859831E+02  0.29999999942E+02 0.  0.
         12    1    1    2    0    0 -0.37271651073E+01 -0.40039132808E+02 -0.60118020233E+01  0.40659140169E+02  0.00000000000E+00 0. -1.
         11    1    3    3    0    0 -0.50781265458E+01  0.37070214795E+02  0.11468714347E+02  0.39134634318E+02  0.51100000000E-03 0. -1.
        -11    1    3    3    0    0  0.33429342265E+01 -0.54109573071E+00 -0.10442038778E+01  0.35437770573E+01  0.51100000000E-03 0.  1.
         12    1    3    3    0    0  0.54623574266E+01  0.35100137435E+01 -0.44127084455E+01  0.78504484560E+01  0.00000000000E+00 0. -1.
</event>
<event>
 7    1  0.2900470E-011  0.5052886E+02  0.7816164E-02  0.1300439E+00
        -11   -1    0    0    0    0  0.00000000000E+00  0.00000000000E+00  0.45593999997E+02  0.45594000000E+02  0.51100000000E-03 0.  1.
         11   -1    0    0    0    0 -0.00000000000E+00 -0.00000000000E+00 -0.45593999997E+02  0.45594000000E+02  0.51100000000E-03 0. -1.
    9900012    2    1    2    0    0  0.96564841730E+01  0.29172713107E+02  0.26624624951E+02  0.50528861662E+02  0.30000005507E+02 0.  0.
         12    1    1    2    0    0 -0.96564841730E+01 -0.29172713107E+02 -0.26624624951E+02  0.40659138338E+02  0.00000000000E+00 0. -1.
         11    1    3    3    0    0  0.13421333309E+02  0.19966489336E+02  0.19451508420E+02  0.30937906591E+02  0.51100000000E-03 0.  1.
        -11    1    3    3    0    0 -0.86206103590E+01  0.48021806289E+01 -0.76441322275E-02  0.98679238165E+01  0.51100000000E-03 0. -1.
         12    1    3    3    0    0  0.48557612227E+01  0.44040431427E+01  0.71807606636E+01  0.97230312538E+01  0.00000000000E+00 0. -1.
</event>
<event>
 7    1  0.2900470E-011  0.5052887E+02  0.7816164E-02  0.1300439E+00
        -11   -1    0    0    0    0  0.00000000000E+00  0.00000000000E+00  0.45593999997E+02  0.45594000000E+02  0.51100000000E-03 0. -1.
         11   -1    0    0    0    0 -0.00000000000E+00 -0.00000000000E+00 -0.45593999997E+02  0.45594000000E+02  0.51100000000E-03 0.  1.
    9900012    2    1    2    0    0 -0.11714501278E+02  0.17907649804E+02  0.34572413521E+02  0.50528865253E+02  0.30000016423E+02 0.  0.
         12    1    1    2    0    0  0.11714501278E+02 -0.17907649804E+02 -0.34572413521E+02  0.40659134747E+02  0.00000000000E+00 0. -1.
         11    1    3    3    0    0  0.45453824739E+00 -0.62976224738E+01  0.14317774865E+02  0.15648173414E+02  0.51100000000E-03 0. -1.
        -11    1    3    3    0    0 -0.75105257168E+01  0.14289235872E+02  0.17018904851E+02  0.23457053970E+02  0.51100000000E-03 0.  1.
         12    1    3    3    0    0 -0.46585138083E+01  0.99160364065E+01  0.32357338045E+01  0.11423637869E+02  0.00000000000E+00 0. -1.
</event>
<event>
 7    1  0.2900470E-011  0.5052886E+02  0.7816164E-02  0.1300439E+00
        -11   -1    0    0    0    0  0.00000000000E+00  0.00000000000E+00  0.45593999997E+02  0.45594000000E+02  0.51100000000E-03 0.  1.
         11   -1    0    0    0    0 -0.00000000000E+00 -0.00000000000E+00 -0.45593999997E+02  0.45594000000E+02  0.51100000000E-03 0. -1.
    9900012    2    1    2    0    0  0.12343504053E+02 -0.37879584995E+02  0.81203921257E+01  0.50528858101E+02  0.29999994684E+02 0.  0.
         12    1    1    2    0    0 -0.12343504053E+02  0.37879584995E+02 -0.81203921257E+01  0.40659141899E+02  0.00000000000E+00 0. -1.
         11    1    3    3    0    0  0.17869745693E+02 -0.28300823501E+02 -0.11893264328E+01  0.33491475327E+02  0.51100000000E-03 0.  1.
        -11    1    3    3    0    0 -0.50065192162E+01 -0.10691573794E+01  0.60119870040E+01  0.78963485334E+01  0.51100000000E-03 0. -1.
        -12    1    3    3    0    0 -0.51972242348E+00 -0.85096041142E+01  0.32977315545E+01  0.91410342404E+01  0.00000000000E+00 0.  1.
</event>
<event>
 7    1  0.2900470E-011  0.5052889E+02  0.7816164E-02  0.1300439E+00
        -11   -1    0    0    0    0  0.00000000000E+00  0.00000000000E+00  0.45593999997E+02  0.45594000000E+02  0.51100000000E-03 0.  1.
         11   -1    0    0    0    0 -0.00000000000E+00 -0.00000000000E+00 -0.45593999997E+02  0.45594000000E+02  0.51100000000E-03 0. -1.
    9900012    2    1    2    0    0 -0.21165921565E+01 -0.36705520421E+02 -0.17360521886E+02  0.50528893862E+02  0.30000103384E+02 0.  0.
         12    1    1    2    0    0  0.21165921565E+01  0.36705520421E+02  0.17360521886E+02  0.40659106138E+02  0.00000000000E+00 0. -1.
         11    1    3    3    0    0  0.95927772033E+00 -0.11734111469E+02 -0.77662996722E+01  0.14104077303E+02  0.51100000000E-03 0. -1.
        -11    1    3    3    0    0  0.83771155589E+01 -0.16859804183E+01  0.55025658800E+00  0.85627902948E+01  0.51100000000E-03 0.  1.
        -12    1    3    3    0    0 -0.11452985436E+02 -0.23285428534E+02 -0.10144478802E+02  0.27862026265E+02  0.00000000000E+00 0.  1.
</event>
<event>
 7    1  0.2900470E-011  0.5052885E+02  0.7816164E-02  0.1300439E+00
        -11   -1    0    0    0    0  0.00000000000E+00  0.00000000000E+00  0.45593999997E+02  0.45594000000E+02  0.51100000000E-03 0.  1.
         11   -1    0    0    0    0 -0.00000000000E+00 -0.00000000000E+00 -0.45593999997E+02  0.45594000000E+02  0.51100000000E-03 0. -1.
    9900012    2    1    2    0    0 -0.29680377204E+02  0.25283056680E+02 -0.11532955373E+02  0.50528845979E+02  0.29999957837E+02 0.  0.
         12    1    1    2    0    0  0.29680377204E+02 -0.25283056680E+02  0.11532955373E+02  0.40659154021E+02  0.00000000000E+00 0. -1.
         11    1    3    3    0    0 -0.24168317727E+01  0.82742130992E+01  0.19819834294E+01  0.88448819554E+01  0.51100000000E-03 0. -1.
        -11    1    3    3    0    0 -0.29243939062E+02  0.13699782490E+02 -0.54582228471E+01  0.32751858101E+02  0.51100000000E-03 0.  1.
        -12    1    3    3    0    0  0.19803936301E+01  0.33090610902E+01 -0.80567159557E+01  0.89321059230E+01  0.00000000000E+00 0.  1.
</event>
<event>
 7    1  0.2900470E-011  0.5052886E+02  0.7816164E-02  0.1300439E+00
        -11   -1    0    0    0    0  0.00000000000E+00  0.00000000000E+00  0.45593999997E+02  0.45594000000E+02  0.51100000000E-03 0.  1.
         11   -1    0    0    0    0 -0.00000000000E+00 -0.00000000000E+00 -0.45593999997E+02  0.45594000000E+02  0.51100000000E-03 0. -1.
    9900012    2    1    2    0    0 -0.38571756747E+01 -0.99807576788E+01  0.39225918415E+02  0.50528855843E+02  0.29999987821E+02 0.  0.
         12    1    1    2    0    0  0.38571756747E+01  0.99807576788E+01 -0.39225918415E+02  0.40659144157E+02  0.00000000000E+00 0. -1.
         11    1    3    3    0    0  0.64341613595E+01  0.13343866889E+01  0.14962229757E+02  0.16341583148E+02  0.51100000000E-03 0. -1.
        -11    1    3    3    0    0 -0.10575551724E+02 -0.62765498498E+01  0.26071704313E+02  0.28826570007E+02  0.51100000000E-03 0.  1.
        -12    1    3    3    0    0  0.28421468952E+00 -0.50385945179E+01 -0.18080156549E+01  0.53607026884E+01  0.00000000000E+00 0.  1.
</event>
<event>
 7    1  0.2900470E-011  0.5052885E+02  0.7816164E-02  0.1300439E+00
        -11   -1    0    0    0    0  0.00000000000E+00  0.00000000000E+00  0.45593999997E+02  0.45594000000E+02  0.51100000000E-03 0. -1.
         11   -1    0    0    0    0 -0.00000000000E+00 -0.00000000000E+00 -0.45593999997E+02  0.45594000000E+02  0.51100000000E-03 0.  1.
    9900012    2    1    2    0    0 -0.26326831159E+02  0.60669683274E+01 -0.30385129440E+02  0.50528853001E+02  0.29999979183E+02 0.  0.
         12    1    1    2    0    0  0.26326831159E+02 -0.60669683274E+01  0.30385129440E+02  0.40659146999E+02  0.00000000000E+00 0. -1.
         11    1    3    3    0    0  0.41673243239E+01  0.22033621258E+01 -0.18002201851E+01  0.50460072982E+01  0.51100000000E-03 0. -1.
        -11    1    3    3    0    0 -0.29771981139E+02 -0.14003528812E+01 -0.22129571418E+02  0.37122092890E+02  0.51100000000E-03 0.  1.
         12    1    3    3    0    0 -0.72217434398E+00  0.52639590828E+01 -0.64553378366E+01  0.83607528126E+01  0.00000000000E+00 0. -1.
</event>
<event>
 7    1  0.2900470E-011  0.5052888E+02  0.7816164E-02  0.1300439E+00
        -11   -1    0    0    0    0  0.00000000000E+00  0.00000000000E+00  0.45593999997E+02  0.45594000000E+02  0.51100000000E-03 0.  1.
         11   -1    0    0    0    0 -0.00000000000E+00 -0.00000000000E+00 -0.45593999997E+02  0.45594000000E+02  0.51100000000E-03 0. -1.
    9900012    2    1    2    0    0  0.28292366050E+01  0.12576226483E+02  0.38561611519E+02  0.50528881278E+02  0.30000065131E+02 0.  0.
         12    1    1    2    0    0 -0.28292366050E+01 -0.12576226483E+02 -0.38561611519E+02  0.40659118722E+02  0.00000000000E+00 0. -1.
         11    1    3    3    0    0 -0.18378407884E+01 -0.44643135517E+01  0.85644523875E+01  0.98314596683E+01  0.51100000000E-03 0. -1.
        -11    1    3    3    0    0  0.96213430357E+01  0.19633595769E+02  0.22893512008E+02  0.31656929999E+02  0.51100000000E-03 0.  1.
        -12    1    3    3    0    0 -0.49542656423E+01 -0.25930557343E+01  0.71036471242E+01  0.90404916105E+01  0.00000000000E+00 0.  1.
</event>
<event>
 7    1  0.2900470E-011  0.5052886E+02  0.7816164E-02  0.1300439E+00
        -11   -1    0    0    0    0  0.00000000000E+00  0.00000000000E+00  0.45593999997E+02  0.45594000000E+02  0.51100000000E-03 0.  1.
         11   -1    0    0    0    0 -0.00000000000E+00 -0.00000000000E+00 -0.45593999997E+02  0.45594000000E+02  0.51100000000E-03 0. -1.
    9900012    2    1    2    0    0  0.12839054579E+01  0.35345270947E+02  0.20055648720E+02  0.50528860349E+02  0.30000001517E+02 0.  0.
         12    1    1    2    0    0 -0.12839054579E+01 -0.35345270947E+02 -0.20055648720E+02  0.40659139651E+02  0.00000000000E+00 0. -1.
         11    1    3    3    0    0 -0.13376042051E+01  0.71550690825E+00  0.13544408917E+02  0.13629091984E+02  0.51100000000E-03 0. -1.
        -11    1    3    3    0    0  0.59420431433E+01  0.29138554029E+02  0.66847669430E+01  0.30480310316E+02  0.51100000000E-03 0.  1.
         12    1    3    3    0    0 -0.33205334804E+01  0.54912100098E+01 -0.17352713940E+00  0.64194580483E+01  0.00000000000E+00 0. -1.
</event>
<event>
 7    1  0.2900470E-011  0.5052886E+02  0.7816164E-02  0.1300439E+00
        -11   -1    0    0    0    0  0.00000000000E+00  0.00000000000E+00  0.45593999997E+02  0.45594000000E+02  0.51100000000E-03 0. -1.
         11   -1    0    0    0    0 -0.00000000000E+00 -0.00000000000E+00 -0.45593999997E+02  0.45594000000E+02  0.51100000000E-03 0.  1.
    9900012    2    1    2    0    0  0.14656907950E+02  0.31677515498E+02  0.20853664483E+02  0.50528864973E+02  0.30000015573E+02 0.  0.
         12    1    1    2    0    0 -0.14656907950E+02 -0.31677515498E+02 -0.20853664483E+02  0.40659135027E+02  0.00000000000E+00 0. -1.
         11    1    3    3    0    0  0.16207142825E+02  0.33501136176E+02  0.16971262258E+02  0.40902583617E+02  0.51100000000E-03 0. -1.
        -11    1    3    3    0    0  0.10768783826E+00 -0.26985920776E+01  0.61305572345E+01  0.66990841268E+01  0.51100000000E-03 0.  1.
        -12    1    3    3    0    0 -0.16579227133E+01  0.87497139924E+00 -0.22481550100E+01  0.29271972297E+01  0.00000000000E+00 0.  1.
</event>
<event>
 7    1  0.2900470E-011  0.5052886E+02  0.7816164E-02  0.1300439E+00
        -11   -1    0    0    0    0  0.00000000000E+00  0.00000000000E+00  0.45593999997E+02  0.45594000000E+02  0.51100000000E-03 0. -1.
         11   -1    0    0    0    0 -0.00000000000E+00 -0.00000000000E+00 -0.45593999997E+02  0.45594000000E+02  0.51100000000E-03 0.  1.
    9900012    2    1    2    0    0 -0.18010212669E+02  0.21718297583E+02 -0.29276505985E+02  0.50528855728E+02  0.29999987469E+02 0.  0.
         12    1    1    2    0    0  0.18010212669E+02 -0.21718297583E+02  0.29276505985E+02  0.40659144272E+02  0.00000000000E+00 0. -1.
         11    1    3    3    0    0 -0.20774159348E+02  0.61483785675E+01 -0.21695308870E+02  0.30660311199E+02  0.51100000000E-03 0. -1.
        -11    1    3    3    0    0 -0.19572849784E+01  0.87090509572E+01 -0.73070724506E+01  0.11535676882E+02  0.51100000000E-03 0.  1.
         12    1    3    3    0    0  0.47212316573E+01  0.68608680586E+01 -0.27412466400E+00  0.83328676463E+01  0.00000000000E+00 0. -1.
</event>
<event>
 7    1  0.2900470E-011  0.5052887E+02  0.7816164E-02  0.1300439E+00
        -11   -1    0    0    0    0  0.00000000000E+00  0.00000000000E+00  0.45593999997E+02  0.45594000000E+02  0.51100000000E-03 0.  1.
         11   -1    0    0    0    0 -0.00000000000E+00 -0.00000000000E+00 -0.45593999997E+02  0.45594000000E+02  0.51100000000E-03 0. -1.
    9900012    2    1    2    0    0  0.24229799851E+02  0.59787928577E+01  0.32098838750E+02  0.50528872931E+02  0.30000039762E+02 0.  0.
         12    1    1    2    0    0 -0.24229799851E+02 -0.59787928577E+01 -0.32098838750E+02  0.40659127069E+02  0.00000000000E+00 0. -1.
         11    1    3    3    0    0  0.15001484948E+02 -0.63244148418E+01  0.38467608147E+01  0.16728429178E+02  0.51100000000E-03 0. -1.
        -11    1    3    3    0    0  0.67705270323E+01  0.94174168747E+01  0.27621345153E+02  0.29957744996E+02  0.51100000000E-03 0.  1.
         12    1    3    3    0    0  0.24577878708E+01  0.28857908248E+01  0.63073278253E+00  0.38426987581E+01  0.00000000000E+00 0. -1.
</event>
<event>
 7    1  0.2900470E-011  0.5052886E+02  0.7816164E-02  0.1300439E+00
        -11   -1    0    0    0    0  0.00000000000E+00  0.00000000000E+00  0.45593999997E+02  0.45594000000E+02  0.51100000000E-03 0. -1.
         11   -1    0    0    0    0 -0.00000000000E+00 -0.00000000000E+00 -0.45593999997E+02  0.45594000000E+02  0.51100000000E-03 0.  1.
    9900012    2    1    2    0    0  0.61884340541E+01 -0.39797970798E+02  0.55668816777E+01  0.50528863668E+02  0.30000011604E+02 0.  0.
         12    1    1    2    0    0 -0.61884340541E+01  0.39797970798E+02 -0.55668816777E+01  0.40659136332E+02  0.00000000000E+00 0. -1.
         11    1    3    3    0    0  0.42875454392E+01 -0.10135486691E+02 -0.10774375734E+02  0.15401243751E+02  0.51100000000E-03 0. -1.
        -11    1    3    3    0    0  0.51526316001E+00 -0.29557741890E+02  0.16252322804E+02  0.33735198214E+02  0.51100000000E-03 0.  1.
         12    1    3    3    0    0  0.13856254549E+01 -0.10474221676E+00  0.88934607871E-01  0.13924217026E+01  0.00000000000E+00 0. -1.
</event>
<event>
 7    1  0.2900470E-011  0.5052886E+02  0.7816164E-02  0.1300439E+00
        -11   -1    0    0    0    0  0.00000000000E+00  0.00000000000E+00  0.45593999997E+02  0.45594000000E+02  0.51100000000E-03 0.  1.
         11   -1    0    0    0    0 -0.00000000000E+00 -0.00000000000E+00 -0.45593999997E+02  0.45594000000E+02  0.51100000000E-03 0. -1.
    9900012    2    1    2    0    0  0.20135394078E+02 -0.32876648338E+02  0.12917329772E+02  0.50528861924E+02  0.30000006304E+02 0.  0.
         12    1    1    2    0    0 -0.20135394078E+02  0.32876648338E+02 -0.12917329772E+02  0.40659138076E+02  0.00000000000E+00 0. -1.
         11    1    3    3    0    0 -0.71983678268E+01 -0.21897755655E+01  0.12195210095E+01  0.76222600422E+01  0.51100000000E-03 0. -1.
        -11    1    3    3    0    0  0.99163202289E+01 -0.10653508882E+02  0.60751647843E+01  0.15771438926E+02  0.51100000000E-03 0.  1.
         12    1    3    3    0    0  0.17417441676E+02 -0.20033363891E+02  0.56226439787E+01  0.27135162956E+02  0.00000000000E+00 0. -1.
</event>
<event>
 7    1  0.2900470E-011  0.5052886E+02  0.7816164E-02  0.1300439E+00
        -11   -1    0    0    0    0  0.00000000000E+00  0.00000000000E+00  0.45593999997E+02  0.45594000000E+02  0.51100000000E-03 0.  1.
         11   -1    0    0    0    0 -0.00000000000E+00 -0.00000000000E+00 -0.45593999997E+02  0.45594000000E+02  0.51100000000E-03 0. -1.
    9900012    2    1    2    0    0 -0.21663575832E+01  0.18483755764E+02  0.36150009865E+02  0.50528861475E+02  0.30000004940E+02 0.  0.
         12    1    1    2    0    0  0.21663575832E+01 -0.18483755764E+02 -0.36150009865E+02  0.40659138525E+02  0.00000000000E+00 0. -1.
         11    1    3    3    0    0  0.57619884743E+01 -0.27320619906E+01  0.73850654704E+00  0.64195066851E+01  0.51100000000E-03 0. -1.
        -11    1    3    3    0    0 -0.67244292178E+01  0.18433724878E+02  0.18633519730E+02  0.27059715796E+02  0.51100000000E-03 0.  1.
         12    1    3    3    0    0 -0.12039168397E+01  0.27820928770E+01  0.16777983589E+02  0.17049638994E+02  0.00000000000E+00 0. -1.
</event>
<event>
 7    1  0.2900470E-011  0.5052887E+02  0.7816164E-02  0.1300439E+00
        -11   -1    0    0    0    0  0.00000000000E+00  0.00000000000E+00  0.45593999997E+02  0.45594000000E+02  0.51100000000E-03 0.  1.
         11   -1    0    0    0    0 -0.00000000000E+00 -0.00000000000E+00 -0.45593999997E+02  0.45594000000E+02  0.51100000000E-03 0. -1.
    9900012    2    1    2    0    0 -0.32966481972E+01 -0.37946399831E+02  0.14225603907E+02  0.50528868726E+02  0.30000026978E+02 0.  0.
         12    1    1    2    0    0  0.32966481972E+01  0.37946399831E+02 -0.14225603907E+02  0.40659131274E+02  0.00000000000E+00 0. -1.
         11    1    3    3    0    0 -0.51766359208E-01 -0.86123097736E+01 -0.65045343089E-01  0.86127109873E+01  0.51100000000E-03 0. -1.
        -11    1    3    3    0    0  0.70160317274E+01 -0.25898593444E+01  0.10688974139E+02  0.13045544873E+02  0.51100000000E-03 0.  1.
        -12    1    3    3    0    0 -0.10260913565E+02 -0.26744230713E+02  0.36016751113E+01  0.28870612866E+02  0.00000000000E+00 0.  1.
</event>
<event>
 7    1  0.2900470E-011  0.5052886E+02  0.7816164E-02  0.1300439E+00
        -11   -1    0    0    0    0  0.00000000000E+00  0.00000000000E+00  0.45593999997E+02  0.45594000000E+02  0.51100000000E-03 0.  1.
         11   -1    0    0    0    0 -0.00000000000E+00 -0.00000000000E+00 -0.45593999997E+02  0.45594000000E+02  0.51100000000E-03 0. -1.
    9900012    2    1    2    0    0 -0.36178954703E+02 -0.16478366473E+01  0.18480632050E+02  0.50528857240E+02  0.29999992068E+02 0.  0.
         12    1    1    2    0    0  0.36178954703E+02  0.16478366473E+01 -0.18480632050E+02  0.40659142760E+02  0.00000000000E+00 0. -1.
         11    1    3    3    0    0 -0.30755056064E+02  0.52832826493E+01  0.38473902836E+01  0.31441834573E+02  0.51100000000E-03 0. -1.
        -11    1    3    3    0    0 -0.65835702501E+01 -0.26297635059E+01  0.56706121229E+01  0.90782650019E+01  0.51100000000E-03 0.  1.
         12    1    3    3    0    0  0.11596716117E+01 -0.43013557906E+01  0.89626296431E+01  0.10008757665E+02  0.00000000000E+00 0. -1.
</event>
<event>
 7    1  0.2900470E-011  0.5052886E+02  0.7816164E-02  0.1300439E+00
        -11   -1    0    0    0    0  0.00000000000E+00  0.00000000000E+00  0.45593999997E+02  0.45594000000E+02  0.51100000000E-03 0.  1.
         11   -1    0    0    0    0 -0.00000000000E+00 -0.00000000000E+00 -0.45593999997E+02  0.45594000000E+02  0.51100000000E-03 0. -1.
    9900012    2    1    2    0    0 -0.69175858233E+01 -0.31452329247E+02  0.24820626744E+02  0.50528861782E+02  0.30000005872E+02 0.  0.
         12    1    1    2    0    0  0.69175858233E+01  0.31452329247E+02 -0.24820626744E+02  0.40659138218E+02  0.00000000000E+00 0. -1.
         11    1    3    3    0    0 -0.17852868525E+01  0.21928093213E-01 -0.57621042957E+01  0.60323773226E+01  0.51100000000E-03 0. -1.
        -11    1    3    3    0    0  0.48334559531E+00 -0.12385778301E+02  0.12649114526E+02  0.17709918849E+02  0.51100000000E-03 0.  1.
         12    1    3    3    0    0 -0.56156445661E+01 -0.19088479039E+02  0.17933616514E+02  0.26786565610E+02  0.00000000000E+00 0. -1.
</event>
<event>
 7    1  0.2900470E-011  0.5052887E+02  0.7816164E-02  0.1300439E+00
        -11   -1    0    0    0    0  0.00000000000E+00  0.00000000000E+00  0.45593999997E+02  0.45594000000E+02  0.51100000000E-03 0.  1.
         11   -1    0    0    0    0 -0.00000000000E+00 -0.00000000000E+00 -0.45593999997E+02  0.45594000000E+02  0.51100000000E-03 0. -1.
    9900012    2    1    2    0    0  0.13037079086E+02  0.26986160543E+02  0.27476294883E+02  0.50528867293E+02  0.30000022624E+02 0.  0.
         12    1    1    2    0    0 -0.13037079086E+02 -0.26986160543E+02 -0.27476294883E+02  0.40659132707E+02  0.00000000000E+00 0. -1.
         11    1    3    3    0    0 -0.13609281958E+00  0.34456180047E+01  0.56831214602E+01  0.66474562415E+01  0.51100000000E-03 0. -1.
        -11    1    3    3    0    0  0.14181171431E+02  0.23043673989E+02  0.55771048410E+01  0.27626448066E+02  0.51100000000E-03 0.  1.
        -12    1    3    3    0    0 -0.10079995255E+01  0.49686854917E+00  0.16216068582E+02  0.16254962985E+02  0.00000000000E+00 0.  1.
</event>
<event>
 7    1  0.2900470E-011  0.5052886E+02  0.7816164E-02  0.1300439E+00
        -11   -1    0    0    0    0  0.00000000000E+00  0.00000000000E+00  0.45593999997E+02  0.45594000000E+02  0.51100000000E-03 0. -1.
         11   -1    0    0    0    0 -0.00000000000E+00 -0.00000000000E+00 -0.45593999997E+02  0.45594000000E+02  0.51100000000E-03 0.  1.
    9900012    2    1    2    0    0  0.18429333606E+02 -0.24704539699E+02 -0.26518123471E+02  0.50528862143E+02  0.30000006970E+02 0.  0.
         12    1    1    2    0    0 -0.18429333606E+02  0.24704539699E+02  0.26518123471E+02  0.40659137857E+02  0.00000000000E+00 0. -1.
         11    1    3    3    0    0 -0.17279053001E+01 -0.12239225049E+02 -0.11967418000E+02  0.17204748773E+02  0.51100000000E-03 0.  1.
        -11    1    3    3    0    0  0.11498429039E+02 -0.10701919688E+02  0.67206271130E+00  0.15722487841E+02  0.51100000000E-03 0. -1.
         12    1    3    3    0    0  0.86588098671E+01 -0.17633949619E+01 -0.15222768182E+02  0.17601625528E+02  0.00000000000E+00 0. -1.
</event>
<event>
 7    1  0.2900470E-011  0.5052886E+02  0.7816164E-02  0.1300439E+00
        -11   -1    0    0    0    0  0.00000000000E+00  0.00000000000E+00  0.45593999997E+02  0.45594000000E+02  0.51100000000E-03 0.  1.
         11   -1    0    0    0    0 -0.00000000000E+00 -0.00000000000E+00 -0.45593999997E+02  0.45594000000E+02  0.51100000000E-03 0. -1.
    9900012    2    1    2    0    0 -0.32864859534E+02  0.23157152251E+02  0.60673724444E+01  0.50528859565E+02  0.29999999134E+02 0.  0.
         12    1    1    2    0    0  0.32864859534E+02 -0.23157152251E+02 -0.60673724444E+01  0.40659140435E+02  0.00000000000E+00 0. -1.
         11    1    3    3    0    0 -0.13506782405E+00 -0.14488582277E+01 -0.60213933256E+01  0.61947244752E+01  0.51100000000E-03 0. -1.
        -11    1    3    3    0    0 -0.57807537012E+01  0.10954098061E+02  0.45775189707E+01  0.13204660460E+02  0.51100000000E-03 0.  1.
         12    1    3    3    0    0 -0.26949038008E+02  0.13651912417E+02  0.75112467993E+01  0.31129474630E+02  0.00000000000E+00 0. -1.
</event>
<event>
 7    1  0.2900470E-011  0.5052886E+02  0.7816164E-02  0.1300439E+00
        -11   -1    0    0    0    0  0.00000000000E+00  0.00000000000E+00  0.45593999997E+02  0.45594000000E+02  0.51100000000E-03 0.  1.
         11   -1    0    0    0    0 -0.00000000000E+00 -0.00000000000E+00 -0.45593999997E+02  0.45594000000E+02  0.51100000000E-03 0. -1.
    9900012    2    1    2    0    0 -0.24347901463E+02 -0.22658979115E+01  0.32484006404E+02  0.50528864851E+02  0.30000015202E+02 0.  0.
         12    1    1    2    0    0  0.24347901463E+02  0.22658979115E+01 -0.32484006404E+02  0.40659135149E+02  0.00000000000E+00 0. -1.
         11    1    3    3    0    0  0.26701064674E+01 -0.13994150626E+01 -0.97928460439E+00  0.31696734315E+01  0.51100000000E-03 0. -1.
        -11    1    3    3    0    0 -0.17874019707E+02  0.87452161629E+01  0.23342881628E+02  0.30673270272E+02  0.51100000000E-03 0.  1.
        -12    1    3    3    0    0 -0.91439882235E+01 -0.96116990118E+01  0.10120409380E+02  0.16685921147E+02  0.00000000000E+00 0.  1.
</event>
<event>
 7    1  0.2900470E-011  0.5052886E+02  0.7816164E-02  0.1300439E+00
        -11   -1    0    0    0    0  0.00000000000E+00  0.00000000000E+00  0.45593999997E+02  0.45594000000E+02  0.51100000000E-03 0.  1.
         11   -1    0    0    0    0 -0.00000000000E+00 -0.00000000000E+00 -0.45593999997E+02  0.45594000000E+02  0.51100000000E-03 0. -1.
    9900012    2    1    2    0    0  0.14394715108E+02  0.50333287092E+01  0.37691160144E+02  0.50528858667E+02  0.29999996404E+02 0.  0.
         12    1    1    2    0    0 -0.14394715108E+02 -0.50333287092E+01 -0.37691160144E+02  0.40659141333E+02  0.00000000000E+00 0. -1.
         11    1    3    3    0    0 -0.81706693945E+01  0.25357805070E+01  0.13089096862E+02  0.15636958721E+02  0.51100000000E-03 0. -1.
        -11    1    3    3    0    0  0.22186431649E+02  0.43274902987E+01  0.23897808539E+02  0.32894835078E+02  0.51100000000E-03 0.  1.
        -12    1    3    3    0    0  0.37895285364E+00 -0.18299420965E+01  0.70425474328E+00  0.19970648675E+01  0.00000000000E+00 0.  1.
</event>
<event>
 7    1  0.2900470E-011  0.5052886E+02  0.7816164E-02  0.1300439E+00
        -11   -1    0    0    0    0  0.00000000000E+00  0.00000000000E+00  0.45593999997E+02  0.45594000000E+02  0.51100000000E-03 0.  1.
         11   -1    0    0    0    0 -0.00000000000E+00 -0.00000000000E+00 -0.45593999997E+02  0.45594000000E+02  0.51100000000E-03 0. -1.
    9900012    2    1    2    0    0  0.17252911887E+02  0.19218854758E+02  0.31402842695E+02  0.50528857410E+02  0.29999992584E+02 0.  0.
         12    1    1    2    0    0 -0.17252911887E+02 -0.19218854758E+02 -0.31402842695E+02  0.40659142590E+02  0.00000000000E+00 0. -1.
         11    1    3    3    0    0  0.12416296121E+02  0.17513580456E+01  0.67580204302E+01  0.14244385026E+02  0.51100000000E-03 0. -1.
        -11    1    3    3    0    0 -0.66627340470E+01  0.39093237971E+01  0.30305883581E+01  0.82981506125E+01  0.51100000000E-03 0.  1.
        -12    1    3    3    0    0  0.11499349813E+02  0.13558172915E+02  0.21614233907E+02  0.27986321772E+02  0.00000000000E+00 0.  1.
</event>
<event>
 7    1  0.2900470E-011  0.5052886E+02  0.7816164E-02  0.1300439E+00
        -11   -1    0    0    0    0  0.00000000000E+00  0.00000000000E+00  0.45593999997E+02  0.45594000000E+02  0.51100000000E-03 0.  1.
         11   -1    0    0    0    0 -0.00000000000E+00 -0.00000000000E+00 -0.45593999997E+02  0.45594000000E+02  0.51100000000E-03 0. -1.
    9900012    2    1    2    0    0  0.14053859171E+01 -0.39058430928E+02 -0.11208440069E+02  0.50528864927E+02  0.30000015432E+02 0.  0.
         12    1    1    2    0    0 -0.14053859171E+01  0.39058430928E+02  0.11208440069E+02  0.40659135073E+02  0.00000000000E+00 0. -1.
         11    1    3    3    0    0 -0.48382628614E+01 -0.90696338385E+01 -0.11203316163E+02  0.15204648591E+02  0.51100000000E-03 0. -1.
        -11    1    3    3    0    0  0.11732025322E+02 -0.14729690176E+02 -0.22048511549E+01  0.18959576992E+02  0.51100000000E-03 0.  1.
        -12    1    3    3    0    0 -0.54883765437E+01 -0.15259106914E+02  0.21997272488E+01  0.16364639344E+02  0.00000000000E+00 0.  1.
</event>
<event>
 7    1  0.2900470E-011  0.5052885E+02  0.7816164E-02  0.1300439E+00
        -11   -1    0    0    0    0  0.00000000000E+00  0.00000000000E+00  0.45593999997E+02  0.45594000000E+02  0.51100000000E-03 0.  1.
         11   -1    0    0    0    0 -0.00000000000E+00 -0.00000000000E+00 -0.45593999997E+02  0.45594000000E+02  0.51100000000E-03 0. -1.
    9900012    2    1    2    0    0 -0.23673362155E+02 -0.18805401889E+01  0.33003056047E+02  0.50528853236E+02  0.29999979897E+02 0.  0.
         12    1    1    2    0    0  0.23673362155E+02  0.18805401889E+01 -0.33003056047E+02  0.40659146764E+02  0.00000000000E+00 0. -1.
         11    1    3    3    0    0  0.51672920641E+00 -0.30561696034E+01 -0.85936665217E+00  0.32164721391E+01  0.51100000000E-03 0. -1.
        -11    1    3    3    0    0 -0.10693522949E+02 -0.55507214142E+01  0.29104526102E+02  0.31499767954E+02  0.51100000000E-03 0.  1.
        -12    1    3    3    0    0 -0.13496568412E+02  0.67263508288E+01  0.47578965970E+01  0.15812613143E+02  0.00000000000E+00 0.  1.
</event>
<event>
 7    1  0.2900470E-011  0.5052886E+02  0.7816164E-02  0.1300439E+00
        -11   -1    0    0    0    0  0.00000000000E+00  0.00000000000E+00  0.45593999997E+02  0.45594000000E+02  0.51100000000E-03 0.  1.
         11   -1    0    0    0    0 -0.00000000000E+00 -0.00000000000E+00 -0.45593999997E+02  0.45594000000E+02  0.51100000000E-03 0. -1.
    9900012    2    1    2    0    0  0.77693825065E+01 -0.20876350886E+02  0.34014413641E+02  0.50528859992E+02  0.30000000432E+02 0.  0.
         12    1    1    2    0    0 -0.77693825065E+01  0.20876350886E+02 -0.34014413641E+02  0.40659140008E+02  0.00000000000E+00 0. -1.
         11    1    3    3    0    0 -0.89367947298E+00 -0.11051017014E+02  0.75021062993E+01  0.13386756113E+02  0.51100000000E-03 0. -1.
        -11    1    3    3    0    0 -0.21860759012E+01  0.53446161319E+01  0.12645828560E+02  0.13901828286E+02  0.51100000000E-03 0.  1.
        -12    1    3    3    0    0  0.10849137881E+02 -0.15169950004E+02  0.13866478781E+02  0.23240275594E+02  0.00000000000E+00 0.  1.
</event>
<event>
 7    1  0.2900470E-011  0.5052886E+02  0.7816164E-02  0.1300439E+00
        -11   -1    0    0    0    0  0.00000000000E+00  0.00000000000E+00  0.45593999997E+02  0.45594000000E+02  0.51100000000E-03 0. -1.
         11   -1    0    0    0    0 -0.00000000000E+00 -0.00000000000E+00 -0.45593999997E+02  0.45594000000E+02  0.51100000000E-03 0.  1.
    9900012    2    1    2    0    0 -0.35165774687E+02 -0.92225261729E+01 -0.18206558715E+02  0.50528862299E+02  0.30000007445E+02 0.  0.
         12    1    1    2    0    0  0.35165774687E+02  0.92225261729E+01  0.18206558715E+02  0.40659137701E+02  0.00000000000E+00 0. -1.
         11    1    3    3    0    0 -0.54742877187E+01  0.74006642987E+01 -0.70525664245E+01  0.11596393902E+02  0.51100000000E-03 0.  1.
        -11    1    3    3    0    0 -0.75218316491E+01 -0.12576169213E+02 -0.58655847384E+01  0.15784266471E+02  0.51100000000E-03 0. -1.
        -12    1    3    3    0    0 -0.22169655319E+02 -0.40470212588E+01 -0.52884075523E+01  0.23148201927E+02  0.00000000000E+00 0.  1.
</event>
<event>
 7    1  0.2900470E-011  0.5052886E+02  0.7816164E-02  0.1300439E+00
        -11   -1    0    0    0    0  0.00000000000E+00  0.00000000000E+00  0.45593999997E+02  0.45594000000E+02  0.51100000000E-03 0.  1.
         11   -1    0    0    0    0 -0.00000000000E+00 -0.00000000000E+00 -0.45593999997E+02  0.45594000000E+02  0.51100000000E-03 0. -1.
    9900012    2    1    2    0    0  0.73111271476E+01  0.19965231622E+02  0.34656924858E+02  0.50528862103E+02  0.30000006849E+02 0.  0.
         12    1    1    2    0    0 -0.73111271476E+01 -0.19965231622E+02 -0.34656924858E+02  0.40659137897E+02  0.00000000000E+00 0. -1.
         11    1    3    3    0    0  0.12851592719E+02  0.51610540368E+01  0.27094328696E+01  0.14111730614E+02  0.51100000000E-03 0. -1.
        -11    1    3    3    0    0 -0.20909995403E+01  0.12445873333E+02  0.27795961060E+02  0.30526832355E+02  0.51100000000E-03 0.  1.
        -12    1    3    3    0    0 -0.34494660309E+01  0.23583042526E+01  0.41515309282E+01  0.58902991345E+01  0.00000000000E+00 0.  1.
</event>
<event>
 7    1  0.2900470E-011  0.5052885E+02  0.7816164E-02  0.1300439E+00
        -11   -1    0    0    0    0  0.00000000000E+00  0.00000000000E+00  0.45593999997E+02  0.45594000000E+02  0.51100000000E-03 0. -1.
         11   -1    0    0    0    0 -0.00000000000E+00 -0.00000000000E+00 -0.45593999997E+02  0.45594000000E+02  0.51100000000E-03 0.  1.
    9900012    2    1    2    0    0 -0.37372749228E+02 -0.14727652052E+02  0.62880873053E+01  0.50528853897E+02  0.29999981906E+02 0.  0.
         12    1    1    2    0    0  0.37372749228E+02  0.14727652052E+02 -0.62880873053E+01  0.40659146103E+02  0.00000000000E+00 0. -1.
         11    1    3    3    0    0  0.11276370097E+00  0.51889165555E+00  0.26206629148E+01  0.26739182068E+01  0.51100000000E-03 0. -1.
        -11    1    3    3    0    0 -0.24417844177E+02 -0.21500691249E+02 -0.12421231234E+01  0.32558466004E+02  0.51100000000E-03 0.  1.
        -12    1    3    3    0    0 -0.13067668752E+02  0.62541475410E+01  0.49095475139E+01  0.15296469686E+02  0.00000000000E+00 0.  1.
</event>
<event>
 7    1  0.2900470E-011  0.5052883E+02  0.7816164E-02  0.1300439E+00
        -11   -1    0    0    0    0  0.00000000000E+00  0.00000000000E+00  0.45593999997E+02  0.45594000000E+02  0.51100000000E-03 0. -1.
         11   -1    0    0    0    0 -0.00000000000E+00 -0.00000000000E+00 -0.45593999997E+02  0.45594000000E+02  0.51100000000E-03 0.  1.
    9900012    2    1    2    0    0  0.34086890880E+02 -0.21463894586E+02  0.55275313314E+01  0.50528825104E+02  0.29999894385E+02 0.  0.
         12    1    1    2    0    0 -0.34086890880E+02  0.21463894586E+02 -0.55275313314E+01  0.40659174896E+02  0.00000000000E+00 0. -1.
         11    1    3    3    0    0  0.11957169334E+02 -0.61120472381E+01  0.59585377501E+01  0.14691330515E+02  0.51100000000E-03 0. -1.
        -11    1    3    3    0    0  0.38548088192E+01  0.44872185763E+00 -0.93199233134E+01  0.10095636343E+02  0.51100000000E-03 0.  1.
        -12    1    3    3    0    0  0.18274912726E+02 -0.15800569206E+02  0.88889168947E+01  0.25741858246E+02  0.00000000000E+00 0.  1.
</event>
<event>
 7    1  0.2900470E-011  0.5052886E+02  0.7816164E-02  0.1300439E+00
        -11   -1    0    0    0    0  0.00000000000E+00  0.00000000000E+00  0.45593999997E+02  0.45594000000E+02  0.51100000000E-03 0.  1.
         11   -1    0    0    0    0 -0.00000000000E+00 -0.00000000000E+00 -0.45593999997E+02  0.45594000000E+02  0.51100000000E-03 0. -1.
    9900012    2    1    2    0    0  0.15797862271E+02 -0.16669303003E+02  0.33551868925E+02  0.50528855600E+02  0.29999987083E+02 0.  0.
         12    1    1    2    0    0 -0.15797862271E+02  0.16669303003E+02 -0.33551868925E+02  0.40659144400E+02  0.00000000000E+00 0. -1.
         11    1    3    3    0    0  0.11867651119E+02 -0.88360541569E+01  0.48972298450E+00  0.14803946265E+02  0.51100000000E-03 0. -1.
        -11    1    3    3    0    0  0.37278749253E+01 -0.78213884009E+01  0.33834567363E+02  0.34926338441E+02  0.51100000000E-03 0.  1.
        -12    1    3    3    0    0  0.20233622682E+00 -0.11860445619E-01 -0.77242142290E+00  0.79857089441E+00  0.00000000000E+00 0.  1.
</event>
<event>
 7    1  0.2900470E-011  0.5052895E+02  0.7816164E-02  0.1300438E+00
        -11   -1    0    0    0    0  0.00000000000E+00  0.00000000000E+00  0.45593999997E+02  0.45594000000E+02  0.51100000000E-03 0.  1.
         11   -1    0    0    0    0 -0.00000000000E+00 -0.00000000000E+00 -0.45593999997E+02  0.45594000000E+02  0.51100000000E-03 0. -1.
    9900012    2    1    2    0    0  0.21886195333E+02 -0.18050725998E+02  0.29126002005E+02  0.50528951216E+02  0.30000277715E+02 0.  0.
         12    1    1    2    0    0 -0.21886195333E+02  0.18050725998E+02 -0.29126002005E+02  0.40659048784E+02  0.00000000000E+00 0. -1.
         11    1    3    3    0    0  0.11824932335E+02  0.17027827630E+01  0.31602262288E+01  0.12357812263E+02  0.51100000000E-03 0. -1.
        -11    1    3    3    0    0  0.13709808063E+02 -0.11968684042E+02  0.22406149395E+02  0.28865962062E+02  0.51100000000E-03 0.  1.
        -12    1    3    3    0    0 -0.36485450645E+01 -0.77848247188E+01  0.35596263818E+01  0.93051768907E+01  0.00000000000E+00 0.  1.
</event>
<event>
 7    1  0.2900470E-011  0.5052886E+02  0.7816164E-02  0.1300439E+00
        -11   -1    0    0    0    0  0.00000000000E+00  0.00000000000E+00  0.45593999997E+02  0.45594000000E+02  0.51100000000E-03 0.  1.
         11   -1    0    0    0    0 -0.00000000000E+00 -0.00000000000E+00 -0.45593999997E+02  0.45594000000E+02  0.51100000000E-03 0. -1.
    9900012    2    1    2    0    0 -0.40870568024E+00 -0.36504248563E+02  0.17900789758E+02  0.50528862313E+02  0.30000007486E+02 0.  0.
         12    1    1    2    0    0  0.40870568024E+00  0.36504248563E+02 -0.17900789758E+02  0.40659137687E+02  0.00000000000E+00 0. -1.
         11    1    3    3    0    0 -0.58569271776E+01 -0.31951006949E+01 -0.56633810308E+01  0.87513512885E+01  0.51100000000E-03 0. -1.
        -11    1    3    3    0    0  0.25963077658E+01 -0.26497654492E+02  0.21168194877E+02  0.34014099756E+02  0.51100000000E-03 0.  1.
         12    1    3    3    0    0  0.28519137315E+01 -0.68114933766E+01  0.23959759114E+01  0.77634112682E+01  0.00000000000E+00 0. -1.
</event>
<event>
 7    1  0.2900470E-011  0.5052891E+02  0.7816164E-02  0.1300439E+00
        -11   -1    0    0    0    0  0.00000000000E+00  0.00000000000E+00  0.45593999997E+02  0.45594000000E+02  0.51100000000E-03 0.  1.
         11   -1    0    0    0    0 -0.00000000000E+00 -0.00000000000E+00 -0.45593999997E+02  0.45594000000E+02  0.51100000000E-03 0. -1.
    9900012    2    1    2    0    0 -0.30595852671E+02 -0.26777895013E+02  0.11031688250E-01  0.50528905277E+02  0.30000138079E+02 0.  0.
         12    1    1    2    0    0  0.30595852671E+02  0.26777895013E+02 -0.11031688250E-01  0.40659094723E+02  0.00000000000E+00 0. -1.
         11    1    3    3    0    0 -0.59618376885E+01 -0.23779074553E+02  0.25566002767E+01  0.24648003986E+02  0.51100000000E-03 0. -1.
        -11    1    3    3    0    0 -0.10470096656E+02 -0.30119941760E+01  0.18498312126E+01  0.11050651957E+02  0.51100000000E-03 0.  1.
         12    1    3    3    0    0 -0.14163918326E+02  0.13173716001E-01 -0.43953998010E+01  0.14830249334E+02  0.00000000000E+00 0. -1.
</event>
<event>
 7    1  0.2900470E-011  0.5052887E+02  0.7816164E-02  0.1300439E+00
        -11   -1    0    0    0    0  0.00000000000E+00  0.00000000000E+00  0.45593999997E+02  0.45594000000E+02  0.51100000000E-03 0.  1.
         11   -1    0    0    0    0 -0.00000000000E+00 -0.00000000000E+00 -0.45593999997E+02  0.45594000000E+02  0.51100000000E-03 0. -1.
    9900012    2    1    2    0    0  0.35186310700E+02 -0.14665544148E+02  0.14142494569E+02  0.50528870663E+02  0.30000032866E+02 0.  0.
         12    1    1    2    0    0 -0.35186310700E+02  0.14665544148E+02 -0.14142494569E+02  0.40659129337E+02  0.00000000000E+00 0. -1.
         11    1    3    3    0    0  0.67832568665E+01 -0.50598956650E+01 -0.58207796978E+01  0.10271153509E+02  0.51100000000E-03 0. -1.
        -11    1    3    3    0    0  0.29692975802E+02 -0.92923784459E+01  0.13945759161E+02  0.34095532083E+02  0.51100000000E-03 0.  1.
        -12    1    3    3    0    0 -0.12899219684E+01 -0.31327003723E+00  0.60175151058E+01  0.61621850710E+01  0.00000000000E+00 0.  1.
</event>
<event>
 7    1  0.2900470E-011  0.5052885E+02  0.7816164E-02  0.1300439E+00
        -11   -1    0    0    0    0  0.00000000000E+00  0.00000000000E+00  0.45593999997E+02  0.45594000000E+02  0.51100000000E-03 0.  1.
         11   -1    0    0    0    0 -0.00000000000E+00 -0.00000000000E+00 -0.45593999997E+02  0.45594000000E+02  0.51100000000E-03 0. -1.
    9900012    2    1    2    0    0  0.76680773486E+01 -0.71585538361E-01  0.39929459319E+02  0.50528852736E+02  0.29999978378E+02 0.  0.
         12    1    1    2    0    0 -0.76680773486E+01  0.71585538361E-01 -0.39929459319E+02  0.40659147264E+02  0.00000000000E+00 0. -1.
         11    1    3    3    0    0 -0.13782418933E+01 -0.10199357499E+01  0.33554692805E+01  0.37681552520E+01  0.51100000000E-03 0. -1.
        -11    1    3    3    0    0  0.23805075995E+01 -0.13163891908E+02  0.19267082360E+02  0.23455816540E+02  0.51100000000E-03 0.  1.
        -12    1    3    3    0    0  0.66658116423E+01  0.14112242119E+02  0.17306907678E+02  0.23304880945E+02  0.00000000000E+00 0.  1.
</event>
<event>
 7    1  0.2900470E-011  0.5052884E+02  0.7816164E-02  0.1300439E+00
        -11   -1    0    0    0    0  0.00000000000E+00  0.00000000000E+00  0.45593999997E+02  0.45594000000E+02  0.51100000000E-03 0. -1.
         11   -1    0    0    0    0 -0.00000000000E+00 -0.00000000000E+00 -0.45593999997E+02  0.45594000000E+02  0.51100000000E-03 0.  1.
    9900012    2    1    2    0    0  0.37538589664E+02  0.47496666195E+01  0.14881604874E+02  0.50528841000E+02  0.29999942705E+02 0.  0.
         12    1    1    2    0    0 -0.37538589664E+02 -0.47496666195E+01 -0.14881604874E+02  0.40659159000E+02  0.00000000000E+00 0. -1.
         11    1    3    3    0    0  0.17370030890E+02  0.83910153543E+01  0.17934298646E+02  0.26339441528E+02  0.51100000000E-03 0. -1.
        -11    1    3    3    0    0  0.16690830783E+02 -0.75123646721E+00 -0.70687951243E+01  0.18141555975E+02  0.51100000000E-03 0.  1.
        -12    1    3    3    0    0  0.34777279909E+01 -0.28901122677E+01  0.40161013517E+01  0.60478434971E+01  0.00000000000E+00 0.  1.
</event>
<event>
 7    1  0.2900470E-011  0.5052886E+02  0.7816164E-02  0.1300439E+00
        -11   -1    0    0    0    0  0.00000000000E+00  0.00000000000E+00  0.45593999997E+02  0.45594000000E+02  0.51100000000E-03 0.  1.
         11   -1    0    0    0    0 -0.00000000000E+00 -0.00000000000E+00 -0.45593999997E+02  0.45594000000E+02  0.51100000000E-03 0. -1.
    9900012    2    1    2    0    0  0.22872652067E+02 -0.55005589134E+01  0.33162495035E+02  0.50528862799E+02  0.30000008965E+02 0.  0.
         12    1    1    2    0    0 -0.22872652067E+02  0.55005589134E+01 -0.33162495035E+02  0.40659137201E+02  0.00000000000E+00 0. -1.
         11    1    3    3    0    0  0.14203128462E+02 -0.75441941563E+01  0.11721384623E+02  0.19900617612E+02  0.51100000000E-03 0.  1.
        -11    1    3    3    0    0  0.20505886908E+01  0.12547706402E+01  0.23522529174E+02  0.23645057461E+02  0.51100000000E-03 0. -1.
        -12    1    3    3    0    0  0.66189349143E+01  0.78886460266E+00 -0.20814187623E+01  0.69831877266E+01  0.00000000000E+00 0.  1.
</event>
<event>
 7    1  0.2900470E-011  0.5052886E+02  0.7816164E-02  0.1300439E+00
        -11   -1    0    0    0    0  0.00000000000E+00  0.00000000000E+00  0.45593999997E+02  0.45594000000E+02  0.51100000000E-03 0.  1.
         11   -1    0    0    0    0 -0.00000000000E+00 -0.00000000000E+00 -0.45593999997E+02  0.45594000000E+02  0.51100000000E-03 0. -1.
    9900012    2    1    2    0    0 -0.13685382453E+02 -0.37905416168E+02  0.53903057406E+01  0.50528860022E+02  0.30000000523E+02 0.  0.
         12    1    1    2    0    0  0.13685382453E+02  0.37905416168E+02 -0.53903057406E+01  0.40659139978E+02  0.00000000000E+00 0. -1.
         11    1    3    3    0    0  0.37641701341E+01 -0.31460285552E+01 -0.32020132809E+01  0.58582729350E+01  0.51100000000E-03 0. -1.
        -11    1    3    3    0    0 -0.19001820739E+02 -0.25904016177E+02 -0.15566282436E+00  0.32126491821E+02  0.51100000000E-03 0.  1.
         12    1    3    3    0    0  0.15522681522E+01 -0.88553714355E+01  0.87479818459E+01  0.12544095266E+02  0.00000000000E+00 0. -1.
</event>
<event>
 7    1  0.2900470E-011  0.5052885E+02  0.7816164E-02  0.1300439E+00
        -11   -1    0    0    0    0  0.00000000000E+00  0.00000000000E+00  0.45593999997E+02  0.45594000000E+02  0.51100000000E-03 0.  1.
         11   -1    0    0    0    0 -0.00000000000E+00 -0.00000000000E+00 -0.45593999997E+02  0.45594000000E+02  0.51100000000E-03 0. -1.
    9900012    2    1    2    0    0 -0.97039324876E+01  0.11089385075E+02  0.37894930153E+02  0.50528849759E+02  0.29999969327E+02 0.  0.
         12    1    1    2    0    0  0.97039324876E+01 -0.11089385075E+02 -0.37894930153E+02  0.40659150241E+02  0.00000000000E+00 0. -1.
         11    1    3    3    0    0 -0.74796305347E+01 -0.64746719754E+01  0.21342642980E+01  0.10120342607E+02  0.51100000000E-03 0. -1.
        -11    1    3    3    0    0 -0.11039004262E+01  0.40001061943E+01  0.15162194384E+02  0.15719783221E+02  0.51100000000E-03 0.  1.
         12    1    3    3    0    0 -0.11204015267E+01  0.13563950856E+02  0.20598471471E+02  0.24688723931E+02  0.00000000000E+00 0. -1.
</event>
<event>
 7    1  0.2900470E-011  0.5052886E+02  0.7816164E-02  0.1300439E+00
        -11   -1    0    0    0    0  0.00000000000E+00  0.00000000000E+00  0.45593999997E+02  0.45594000000E+02  0.51100000000E-03 0.  1.
         11   -1    0    0    0    0 -0.00000000000E+00 -0.00000000000E+00 -0.45593999997E+02  0.45594000000E+02  0.51100000000E-03 0. -1.
    9900012    2    1    2    0    0 -0.19822873736E+00  0.29093079470E+02  0.28402798787E+02  0.50528861463E+02  0.30000004902E+02 0.  0.
         12    1    1    2    0    0  0.19822873736E+00 -0.29093079470E+02 -0.28402798787E+02  0.40659138537E+02  0.00000000000E+00 0. -1.
         11    1    3    3    0    0 -0.24351991981E+01 -0.27645842270E+01  0.12248248913E+02  0.12790337086E+02  0.51100000000E-03 0. -1.
        -11    1    3    3    0    0 -0.25256731683E+01  0.27418550390E+02  0.13934475756E+02  0.30859772282E+02  0.51100000000E-03 0.  1.
        -12    1    3    3    0    0  0.47626436291E+01  0.44391133069E+01  0.22200741185E+01  0.68787520947E+01  0.00000000000E+00 0.  1.
</event>
<event>
 7    1  0.2900470E-011  0.5052886E+02  0.7816164E-02  0.1300439E+00
        -11   -1    0    0    0    0  0.00000000000E+00  0.00000000000E+00  0.45593999997E+02  0.45594000000E+02  0.51100000000E-03 0.  1.
         11   -1    0    0    0    0 -0.00000000000E+00 -0.00000000000E+00 -0.45593999997E+02  0.45594000000E+02  0.51100000000E-03 0. -1.
    9900012    2    1    2    0    0  0.28097223307E+02  0.24022209985E+02  0.16930605976E+02  0.50528856516E+02  0.29999989867E+02 0.  0.
         12    1    1    2    0    0 -0.28097223307E+02 -0.24022209985E+02 -0.16930605976E+02  0.40659143484E+02  0.00000000000E+00 0. -1.
         11    1    3    3    0    0  0.22636031164E+01  0.51566097568E+01 -0.38452976079E+01  0.68191522352E+01  0.51100000000E-03 0. -1.
        -11    1    3    3    0    0  0.26867996707E+02  0.21645753546E+02  0.21504071989E+02  0.40655294932E+02  0.51100000000E-03 0.  1.
        -12    1    3    3    0    0 -0.10343765165E+01 -0.27801533175E+01 -0.72816840505E+00  0.30544093493E+01  0.00000000000E+00 0.  1.
</event>
<event>
 7    1  0.2900470E-011  0.5052884E+02  0.7816164E-02  0.1300439E+00
        -11   -1    0    0    0    0  0.00000000000E+00  0.00000000000E+00  0.45593999997E+02  0.45594000000E+02  0.51100000000E-03 0. -1.
         11   -1    0    0    0    0 -0.00000000000E+00 -0.00000000000E+00 -0.45593999997E+02  0.45594000000E+02  0.51100000000E-03 0.  1.
    9900012    2    1    2    0    0 -0.20684682951E+02 -0.85456509069E+01 -0.33945294913E+02  0.50528839840E+02  0.29999939177E+02 0.  0.
         12    1    1    2    0    0  0.20684682951E+02  0.85456509069E+01  0.33945294913E+02  0.40659160160E+02  0.00000000000E+00 0. -1.
         11    1    3    3    0    0 -0.56885519672E+01  0.53864805294E+00  0.18373286269E-01  0.57140268679E+01  0.51100000000E-03 0. -1.
        -11    1    3    3    0    0 -0.15811426129E+02 -0.14831151349E+02 -0.32069067929E+02  0.38709034665E+02  0.51100000000E-03 0.  1.
        -12    1    3    3    0    0  0.81529514434E+00  0.57468523893E+01 -0.18946002695E+01  0.61057783073E+01  0.00000000000E+00 0.  1.
</event>
<event>
 7    1  0.2900470E-011  0.5052886E+02  0.7816164E-02  0.1300439E+00
        -11   -1    0    0    0    0  0.00000000000E+00  0.00000000000E+00  0.45593999997E+02  0.45594000000E+02  0.51100000000E-03 0.  1.
         11   -1    0    0    0    0 -0.00000000000E+00 -0.00000000000E+00 -0.45593999997E+02  0.45594000000E+02  0.51100000000E-03 0. -1.
    9900012    2    1    2    0    0  0.36541238734E+02  0.17737304902E+02 -0.18142786283E+01  0.50528859325E+02  0.29999998406E+02 0.  0.
         12    1    1    2    0    0 -0.36541238734E+02 -0.17737304902E+02  0.18142786283E+01  0.40659140675E+02  0.00000000000E+00 0. -1.
         11    1    3    3    0    0 -0.10848136941E+01  0.95156988583E+01 -0.28541337752E+01  0.99935692012E+01  0.51100000000E-03 0. -1.
        -11    1    3    3    0    0  0.25702652365E+02  0.10632088009E+02  0.37667717572E+01  0.28068776314E+02  0.51100000000E-03 0.  1.
         12    1    3    3    0    0  0.11923400064E+02 -0.24104819652E+01 -0.27269166103E+01  0.12466513810E+02  0.00000000000E+00 0. -1.
</event>
<event>
 7    1  0.2900470E-011  0.5052886E+02  0.7816164E-02  0.1300439E+00
        -11   -1    0    0    0    0  0.00000000000E+00  0.00000000000E+00  0.45593999997E+02  0.45594000000E+02  0.51100000000E-03 0.  1.
         11   -1    0    0    0    0 -0.00000000000E+00 -0.00000000000E+00 -0.45593999997E+02  0.45594000000E+02  0.51100000000E-03 0. -1.
    9900012    2    1    2    0    0 -0.34094887884E+02  0.14394865559E+01  0.22105022458E+02  0.50528861799E+02  0.30000005925E+02 0.  0.
         12    1    1    2    0    0  0.34094887884E+02 -0.14394865559E+01 -0.22105022458E+02  0.40659138201E+02  0.00000000000E+00 0. -1.
         11    1    3    3    0    0 -0.27698565766E+02 -0.45712475777E+01  0.37560065681E+01  0.28323390254E+02  0.51100000000E-03 0. -1.
        -11    1    3    3    0    0  0.61131572719E+00  0.36070938154E+01  0.18073759431E+01  0.40806176949E+01  0.51100000000E-03 0.  1.
         12    1    3    3    0    0 -0.70076378452E+01  0.24036403182E+01  0.16541639947E+02  0.18124853850E+02  0.00000000000E+00 0. -1.
</event>
<event>
 7    1  0.2900470E-011  0.5052885E+02  0.7816164E-02  0.1300439E+00
        -11   -1    0    0    0    0  0.00000000000E+00  0.00000000000E+00  0.45593999997E+02  0.45594000000E+02  0.51100000000E-03 0.  1.
         11   -1    0    0    0    0 -0.00000000000E+00 -0.00000000000E+00 -0.45593999997E+02  0.45594000000E+02  0.51100000000E-03 0. -1.
    9900012    2    1    2    0    0  0.26599223661E+02 -0.25337476252E+02  0.17425841833E+02  0.50528851389E+02  0.29999974281E+02 0.  0.
         12    1    1    2    0    0 -0.26599223661E+02  0.25337476252E+02 -0.17425841833E+02  0.40659148611E+02  0.00000000000E+00 0. -1.
         11    1    3    3    0    0  0.15331582799E+02 -0.15293020598E+02 -0.11234102069E+01  0.21684002419E+02  0.51100000000E-03 0. -1.
        -11    1    3    3    0    0  0.15146981610E+02 -0.86103899980E+01  0.17229218121E+02  0.24503383953E+02  0.51100000000E-03 0.  1.
         12    1    3    3    0    0 -0.38793407480E+01 -0.14340656559E+01  0.13200339186E+01  0.43414650167E+01  0.00000000000E+00 0. -1.
</event>
<event>
 7    1  0.2900470E-011  0.5052886E+02  0.7816164E-02  0.1300439E+00
        -11   -1    0    0    0    0  0.00000000000E+00  0.00000000000E+00  0.45593999997E+02  0.45594000000E+02  0.51100000000E-03 0.  1.
         11   -1    0    0    0    0 -0.00000000000E+00 -0.00000000000E+00 -0.45593999997E+02  0.45594000000E+02  0.51100000000E-03 0. -1.
    9900012    2    1    2    0    0  0.13476325404E+02 -0.23969833561E+02  0.29949978076E+02  0.50528862600E+02  0.30000008359E+02 0.  0.
         12    1    1    2    0    0 -0.13476325404E+02  0.23969833561E+02 -0.29949978076E+02  0.40659137400E+02  0.00000000000E+00 0. -1.
         11    1    3    3    0    0  0.41063126391E+01 -0.40775416991E+00 -0.49834243669E+01  0.64701302641E+01  0.51100000000E-03 0. -1.
        -11    1    3    3    0    0  0.10135375575E+02 -0.17599126004E+02  0.22907607226E+02  0.30613943607E+02  0.51100000000E-03 0.  1.
        -12    1    3    3    0    0 -0.76536281009E+00 -0.59629533880E+01  0.12025795218E+02  0.13444788729E+02  0.00000000000E+00 0.  1.
</event>
<event>
 7    1  0.2900470E-011  0.5052889E+02  0.7816164E-02  0.1300439E+00
        -11   -1    0    0    0    0  0.00000000000E+00  0.00000000000E+00  0.45593999997E+02  0.45594000000E+02  0.51100000000E-03 0. -1.
         11   -1    0    0    0    0 -0.00000000000E+00 -0.00000000000E+00 -0.45593999997E+02  0.45594000000E+02  0.51100000000E-03 0.  1.
    9900012    2    1    2    0    0  0.31779794549E+02 -0.80354839198E+01  0.24054916680E+02  0.50528888354E+02  0.30000086639E+02 0.  0.
         12    1    1    2    0    0 -0.31779794549E+02  0.80354839198E+01 -0.24054916680E+02  0.40659111646E+02  0.00000000000E+00 0. -1.
         11    1    3    3    0    0  0.22216905183E+02 -0.11875004010E+02  0.23841824416E+02  0.34684855311E+02  0.51100000000E-03 0. -1.
        -11    1    3    3    0    0  0.51579891620E+01  0.80322390569E+01 -0.11412880037E+01  0.96137534310E+01  0.51100000000E-03 0.  1.
        -12    1    3    3    0    0  0.44049002037E+01 -0.41927189663E+01  0.13543802675E+01  0.62302796120E+01  0.00000000000E+00 0.  1.
</event>
<event>
 7    1  0.2900470E-011  0.5052886E+02  0.7816164E-02  0.1300439E+00
        -11   -1    0    0    0    0  0.00000000000E+00  0.00000000000E+00  0.45593999997E+02  0.45594000000E+02  0.51100000000E-03 0. -1.
         11   -1    0    0    0    0 -0.00000000000E+00 -0.00000000000E+00 -0.45593999997E+02  0.45594000000E+02  0.51100000000E-03 0.  1.
    9900012    2    1    2    0    0 -0.29772721110E+02  0.66132462501E+01 -0.26888950507E+02  0.50528860712E+02  0.30000002622E+02 0.  0.
         12    1    1    2    0    0  0.29772721110E+02 -0.66132462501E+01  0.26888950507E+02  0.40659139288E+02  0.00000000000E+00 0. -1.
         11    1    3    3    0    0 -0.19917524599E+02  0.14760740841E+02 -0.17113130126E+02  0.30123852332E+02  0.51100000000E-03 0. -1.
        -11    1    3    3    0    0 -0.12012864799E+02 -0.40338374960E+01 -0.93344772440E+01  0.15738908199E+02  0.51100000000E-03 0.  1.
         12    1    3    3    0    0  0.21576682882E+01 -0.41136570951E+01 -0.44134313677E+00  0.46661001814E+01  0.00000000000E+00 0. -1.
</event>
<event>
 7    1  0.2900470E-011  0.5052886E+02  0.7816164E-02  0.1300439E+00
        -11   -1    0    0    0    0  0.00000000000E+00  0.00000000000E+00  0.45593999997E+02  0.45594000000E+02  0.51100000000E-03 0. -1.
         11   -1    0    0    0    0 -0.00000000000E+00 -0.00000000000E+00 -0.45593999997E+02  0.45594000000E+02  0.51100000000E-03 0.  1.
    9900012    2    1    2    0    0  0.33750303763E+01  0.32598274541E+02 -0.24065057469E+02  0.50528864199E+02  0.30000013218E+02 0.  0.
         12    1    1    2    0    0 -0.33750303763E+01 -0.32598274541E+02  0.24065057469E+02  0.40659135801E+02  0.00000000000E+00 0. -1.
         11    1    3    3    0    0  0.91658926519E+01  0.12351780517E+01 -0.48089420244E+01  0.10424259042E+02  0.51100000000E-03 0. -1.
        -11    1    3    3    0    0 -0.64262792920E+01  0.30460745118E+02 -0.12974405832E+02  0.33726684770E+02  0.51100000000E-03 0.  1.
        -12    1    3    3    0    0  0.63541701635E+00  0.90235137197E+00 -0.62817096132E+01  0.63779203858E+01  0.00000000000E+00 0.  1.
</event>
<event>
 7    1  0.2900470E-011  0.5052886E+02  0.7816164E-02  0.1300439E+00
        -11   -1    0    0    0    0  0.00000000000E+00  0.00000000000E+00  0.45593999997E+02  0.45594000000E+02  0.51100000000E-03 0. -1.
         11   -1    0    0    0    0 -0.00000000000E+00 -0.00000000000E+00 -0.45593999997E+02  0.45594000000E+02  0.51100000000E-03 0.  1.
    9900012    2    1    2    0    0 -0.17269010359E+02  0.30287519888E+02 -0.20919210680E+02  0.50528856437E+02  0.29999989627E+02 0.  0.
         12    1    1    2    0    0  0.17269010359E+02 -0.30287519888E+02  0.20919210680E+02  0.40659143563E+02  0.00000000000E+00 0. -1.
         11    1    3    3    0    0  0.27574895002E+01  0.13425439630E+02 -0.77635472837E+01  0.15751788606E+02  0.51100000000E-03 0. -1.
        -11    1    3    3    0    0 -0.19893877731E+02  0.18378824325E+02 -0.63705344150E+01  0.27823214475E+02  0.51100000000E-03 0.  1.
         12    1    3    3    0    0 -0.13262212845E+00 -0.15167440671E+01 -0.67851289818E+01  0.69538533558E+01  0.00000000000E+00 0. -1.
</event>
<event>
 7    1  0.2900470E-011  0.5052885E+02  0.7816164E-02  0.1300439E+00
        -11   -1    0    0    0    0  0.00000000000E+00  0.00000000000E+00  0.45593999997E+02  0.45594000000E+02  0.51100000000E-03 0.  1.
         11   -1    0    0    0    0 -0.00000000000E+00 -0.00000000000E+00 -0.45593999997E+02  0.45594000000E+02  0.51100000000E-03 0. -1.
    9900012    2    1    2    0    0 -0.15867549217E+02 -0.11580772660E+01  0.37417187528E+02  0.50528853629E+02  0.29999981090E+02 0.  0.
         12    1    1    2    0    0  0.15867549217E+02  0.11580772660E+01 -0.37417187528E+02  0.40659146371E+02  0.00000000000E+00 0. -1.
         11    1    3    3    0    0 -0.10350174784E+01 -0.11485464118E+02  0.82955397824E+01  0.14205742773E+02  0.51100000000E-03 0. -1.
        -11    1    3    3    0    0 -0.13492752468E+02  0.24548674420E+01  0.17884948353E+02  0.22537793174E+02  0.51100000000E-03 0.  1.
         12    1    3    3    0    0 -0.13397792710E+01  0.78725194096E+01  0.11236699393E+02  0.13785317682E+02  0.00000000000E+00 0. -1.
</event>
<event>
 7    1  0.2900470E-011  0.5052882E+02  0.7816164E-02  0.1300439E+00
        -11   -1    0    0    0    0  0.00000000000E+00  0.00000000000E+00  0.45593999997E+02  0.45594000000E+02  0.51100000000E-03 0.  1.
         11   -1    0    0    0    0 -0.00000000000E+00 -0.00000000000E+00 -0.45593999997E+02  0.45594000000E+02  0.51100000000E-03 0. -1.
    9900012    2    1    2    0    0  0.50058123881E+01 -0.38763652116E+02  0.11202215787E+02  0.50528824879E+02  0.29999893701E+02 0.  0.
         12    1    1    2    0    0 -0.50058123881E+01  0.38763652116E+02 -0.11202215787E+02  0.40659175121E+02  0.00000000000E+00 0. -1.
         11    1    3    3    0    0  0.25540248418E+00  0.37488183048E+01  0.16670928201E+01  0.41107259509E+01  0.51100000000E-03 0. -1.
        -11    1    3    3    0    0  0.31650572010E+01 -0.10438625786E+02 -0.39328443083E+01  0.11595247303E+02  0.51100000000E-03 0.  1.
         12    1    3    3    0    0  0.15853527028E+01 -0.32073844634E+02  0.13467967275E+02  0.34822851625E+02  0.00000000000E+00 0. -1.
</event>
<event>
 7    1  0.2900470E-011  0.5052886E+02  0.7816164E-02  0.1300439E+00
        -11   -1    0    0    0    0  0.00000000000E+00  0.00000000000E+00  0.45593999997E+02  0.45594000000E+02  0.51100000000E-03 0.  1.
         11   -1    0    0    0    0 -0.00000000000E+00 -0.00000000000E+00 -0.45593999997E+02  0.45594000000E+02  0.51100000000E-03 0. -1.
    9900012    2    1    2    0    0  0.62918807656E+01 -0.14670866318E+02  0.37394433039E+02  0.50528859522E+02  0.29999999003E+02 0.  0.
         12    1    1    2    0    0 -0.62918807656E+01  0.14670866318E+02 -0.37394433039E+02  0.40659140478E+02  0.00000000000E+00 0. -1.
         11    1    3    3    0    0 -0.43124260683E+01 -0.11256659349E+02  0.33083536622E+02  0.35211216877E+02  0.51100000000E-03 0. -1.
        -11    1    3    3    0    0  0.54125461182E+01 -0.52546479587E+01  0.59087028732E+01  0.95822622880E+01  0.51100000000E-03 0.  1.
         12    1    3    3    0    0  0.51917607157E+01  0.18404409904E+01 -0.15978064558E+01  0.57353803569E+01  0.00000000000E+00 0. -1.
</event>
<event>
 7    1  0.2900470E-011  0.5052887E+02  0.7816164E-02  0.1300439E+00
        -11   -1    0    0    0    0  0.00000000000E+00  0.00000000000E+00  0.45593999997E+02  0.45594000000E+02  0.51100000000E-03 0.  1.
         11   -1    0    0    0    0 -0.00000000000E+00 -0.00000000000E+00 -0.45593999997E+02  0.45594000000E+02  0.51100000000E-03 0. -1.
    9900012    2    1    2    0    0 -0.16067572170E+02 -0.34746477984E+02  0.13699650871E+02  0.50528867672E+02  0.30000023775E+02 0.  0.
         12    1    1    2    0    0  0.16067572170E+02  0.34746477984E+02 -0.13699650871E+02  0.40659132328E+02  0.00000000000E+00 0. -1.
         11    1    3    3    0    0  0.61880491557E+01 -0.17418712019E+01 -0.20172103103E+01  0.67375964064E+01  0.51100000000E-03 0. -1.
        -11    1    3    3    0    0 -0.17787677618E+02 -0.20508983500E+02  0.13561823591E+02  0.30347041678E+02  0.51100000000E-03 0.  1.
         12    1    3    3    0    0 -0.44679437080E+01 -0.12495623282E+02  0.21550375903E+01  0.13444229587E+02  0.00000000000E+00 0. -1.
</event>
<event>
 7    1  0.2900470E-011  0.5052885E+02  0.7816164E-02  0.1300439E+00
        -11   -1    0    0    0    0  0.00000000000E+00  0.00000000000E+00  0.45593999997E+02  0.45594000000E+02  0.51100000000E-03 0. -1.
         11   -1    0    0    0    0 -0.00000000000E+00 -0.00000000000E+00 -0.45593999997E+02  0.45594000000E+02  0.51100000000E-03 0.  1.
    9900012    2    1    2    0    0  0.34515601207E+02  0.69062932055E+01 -0.20350506588E+02  0.50528846899E+02  0.29999960634E+02 0.  0.
         12    1    1    2    0    0 -0.34515601207E+02 -0.69062932055E+01  0.20350506588E+02  0.40659153101E+02  0.00000000000E+00 0. -1.
         11    1    3    3    0    0  0.18674658452E+02 -0.81597717714E+01 -0.14016508982E+02  0.24734333789E+02  0.51100000000E-03 0. -1.
        -11    1    3    3    0    0  0.88541571294E+01  0.84134593816E+01 -0.96785008899E+01  0.15583830626E+02  0.51100000000E-03 0.  1.
         12    1    3    3    0    0  0.69867856254E+01  0.66526055952E+01  0.33445032840E+01  0.10210682484E+02  0.00000000000E+00 0. -1.
</event>
<event>
 7    1  0.2900470E-011  0.5052885E+02  0.7816164E-02  0.1300439E+00
        -11   -1    0    0    0    0  0.00000000000E+00  0.00000000000E+00  0.45593999997E+02  0.45594000000E+02  0.51100000000E-03 0.  1.
         11   -1    0    0    0    0 -0.00000000000E+00 -0.00000000000E+00 -0.45593999997E+02  0.45594000000E+02  0.51100000000E-03 0. -1.
    9900012    2    1    2    0    0 -0.38211869082E+02 -0.53035735087E+01 -0.12841016019E+02  0.50528849454E+02  0.29999968400E+02 0.  0.
         12    1    1    2    0    0  0.38211869082E+02  0.53035735087E+01  0.12841016019E+02  0.40659150546E+02  0.00000000000E+00 0. -1.
         11    1    3    3    0    0 -0.64340070975E+01  0.23435127562E+01 -0.54651253647E+01  0.87610555804E+01  0.51100000000E-03 0. -1.
        -11    1    3    3    0    0 -0.24442241966E+02 -0.14718784680E+02 -0.11517793815E+02  0.30768902961E+02  0.51100000000E-03 0.  1.
        -12    1    3    3    0    0 -0.73356200186E+01  0.70716984148E+01  0.41419031602E+01  0.10998890913E+02  0.00000000000E+00 0.  1.
</event>
<event>
 7    1  0.2900470E-011  0.5052886E+02  0.7816164E-02  0.1300439E+00
        -11   -1    0    0    0    0  0.00000000000E+00  0.00000000000E+00  0.45593999997E+02  0.45594000000E+02  0.51100000000E-03 0.  1.
         11   -1    0    0    0    0 -0.00000000000E+00 -0.00000000000E+00 -0.45593999997E+02  0.45594000000E+02  0.51100000000E-03 0. -1.
    9900012    2    1    2    0    0 -0.28086227861E+02  0.23042395006E+02  0.18258628298E+02  0.50528859941E+02  0.30000000276E+02 0.  0.
         12    1    1    2    0    0  0.28086227861E+02 -0.23042395006E+02 -0.18258628298E+02  0.40659140059E+02  0.00000000000E+00 0. -1.
         11    1    3    3    0    0 -0.11327061048E+02 -0.29615026118E+01  0.28813635177E+00  0.11711354854E+02  0.51100000000E-03 0. -1.
        -11    1    3    3    0    0 -0.18038033670E+02  0.18508507435E+02  0.97573750048E+01  0.27625022595E+02  0.51100000000E-03 0.  1.
         12    1    3    3    0    0  0.12788668570E+01  0.74953901827E+01  0.82131169412E+01  0.11192482491E+02  0.00000000000E+00 0. -1.
</event>
<event>
 7    1  0.2900470E-011  0.5052886E+02  0.7816164E-02  0.1300439E+00
        -11   -1    0    0    0    0  0.00000000000E+00  0.00000000000E+00  0.45593999997E+02  0.45594000000E+02  0.51100000000E-03 0. -1.
         11   -1    0    0    0    0 -0.00000000000E+00 -0.00000000000E+00 -0.45593999997E+02  0.45594000000E+02  0.51100000000E-03 0.  1.
    9900012    2    1    2    0    0 -0.12691107085E+02  0.26842206035E+02 -0.27777644510E+02  0.50528858858E+02  0.29999996985E+02 0.  0.
         12    1    1    2    0    0  0.12691107085E+02 -0.26842206035E+02  0.27777644510E+02  0.40659141142E+02  0.00000000000E+00 0. -1.
         11    1    3    3    0    0  0.63473037227E+01  0.17912853708E+01 -0.53036660829E+01  0.84632051852E+01  0.51100000000E-03 0. -1.
        -11    1    3    3    0    0 -0.15808960881E+02  0.22846921510E+02 -0.10892684008E+02  0.29842178737E+02  0.51100000000E-03 0.  1.
        -12    1    3    3    0    0 -0.32294499263E+01  0.22039991551E+01 -0.11581294418E+02  0.12223474936E+02  0.00000000000E+00 0.  1.
</event>
<event>
 7    1  0.2900470E-011  0.5052885E+02  0.7816164E-02  0.1300439E+00
        -11   -1    0    0    0    0  0.00000000000E+00  0.00000000000E+00  0.45593999997E+02  0.45594000000E+02  0.51100000000E-03 0.  1.
         11   -1    0    0    0    0 -0.00000000000E+00 -0.00000000000E+00 -0.45593999997E+02  0.45594000000E+02  0.51100000000E-03 0. -1.
    9900012    2    1    2    0    0  0.47804270594E+01 -0.87370069361E+01  0.39420535023E+02  0.50528851527E+02  0.29999974701E+02 0.  0.
         12    1    1    2    0    0 -0.47804270594E+01  0.87370069361E+01 -0.39420535023E+02  0.40659148473E+02  0.00000000000E+00 0. -1.
         11    1    3    3    0    0 -0.21799724145E+01  0.34770366786E+01  0.10198465726E+02  0.10993214599E+02  0.51100000000E-03 0. -1.
        -11    1    3    3    0    0  0.12616887305E+02 -0.15221726637E+02  0.18681063803E+02  0.27200532204E+02  0.51100000000E-03 0.  1.
        -12    1    3    3    0    0 -0.56564878315E+01  0.30076830219E+01  0.10541005493E+02  0.12335104724E+02  0.00000000000E+00 0.  1.
</event>
<event>
 7    1  0.2900470E-011  0.5052884E+02  0.7816164E-02  0.1300439E+00
        -11   -1    0    0    0    0  0.00000000000E+00  0.00000000000E+00  0.45593999997E+02  0.45594000000E+02  0.51100000000E-03 0.  1.
         11   -1    0    0    0    0 -0.00000000000E+00 -0.00000000000E+00 -0.45593999997E+02  0.45594000000E+02  0.51100000000E-03 0. -1.
    9900012    2    1    2    0    0 -0.91649666017E+01  0.17215674358E+02  0.35676196185E+02  0.50528843213E+02  0.29999949430E+02 0.  0.
         12    1    1    2    0    0  0.91649666017E+01 -0.17215674358E+02 -0.35676196185E+02  0.40659156787E+02  0.00000000000E+00 0. -1.
         11    1    3    3    0    0 -0.15796914473E+01 -0.71377759045E+01  0.12741827689E+02  0.14690045713E+02  0.51100000000E-03 0. -1.
        -11    1    3    3    0    0 -0.78344976848E+01  0.20964991001E+02  0.14298397347E+02  0.26558508403E+02  0.51100000000E-03 0.  1.
         12    1    3    3    0    0  0.24922253040E+00  0.33884592610E+01  0.86359711489E+01  0.92802890966E+01  0.00000000000E+00 0. -1.
</event>
<event>
 7    1  0.2900470E-011  0.5052886E+02  0.7816164E-02  0.1300439E+00
        -11   -1    0    0    0    0  0.00000000000E+00  0.00000000000E+00  0.45593999997E+02  0.45594000000E+02  0.51100000000E-03 0.  1.
         11   -1    0    0    0    0 -0.00000000000E+00 -0.00000000000E+00 -0.45593999997E+02  0.45594000000E+02  0.51100000000E-03 0. -1.
    9900012    2    1    2    0    0  0.15194493056E+02  0.36693167178E+02  0.87123359821E+01  0.50528856686E+02  0.29999990383E+02 0.  0.
         12    1    1    2    0    0 -0.15194493056E+02 -0.36693167178E+02 -0.87123359821E+01  0.40659143314E+02  0.00000000000E+00 0. -1.
         11    1    3    3    0    0  0.15946916767E+01 -0.26433939958E+01  0.10305433322E+01  0.32546264273E+01  0.51100000000E-03 0. -1.
        -11    1    3    3    0    0  0.15344642218E+02  0.36832924515E+02  0.98348768737E+00  0.39913526798E+02  0.51100000000E-03 0.  1.
        -12    1    3    3    0    0 -0.17448408390E+01  0.25036366585E+01  0.66983049625E+01  0.73607034611E+01  0.00000000000E+00 0.  1.
</event>
<event>
 7    1  0.2900470E-011  0.5052886E+02  0.7816164E-02  0.1300439E+00
        -11   -1    0    0    0    0  0.00000000000E+00  0.00000000000E+00  0.45593999997E+02  0.45594000000E+02  0.51100000000E-03 0.  1.
         11   -1    0    0    0    0 -0.00000000000E+00 -0.00000000000E+00 -0.45593999997E+02  0.45594000000E+02  0.51100000000E-03 0. -1.
    9900012    2    1    2    0    0  0.12823888988E+02 -0.38365409914E+02 -0.40998260967E+01  0.50528863503E+02  0.30000011105E+02 0.  0.
         12    1    1    2    0    0 -0.12823888988E+02  0.38365409914E+02  0.40998260967E+01  0.40659136497E+02  0.00000000000E+00 0. -1.
         11    1    3    3    0    0 -0.41290948379E+01 -0.11480163367E+02 -0.88815452878E+01  0.15090573948E+02  0.51100000000E-03 0. -1.
        -11    1    3    3    0    0  0.92886534086E+01 -0.30767410777E+01  0.35057728580E+01  0.10394030084E+02  0.51100000000E-03 0.  1.
        -12    1    3    3    0    0  0.76643304169E+01 -0.23808505469E+02  0.12759463331E+01  0.25044259471E+02  0.00000000000E+00 0.  1.
</event>
<event>
 7    1  0.2900470E-011  0.5052885E+02  0.7816164E-02  0.1300439E+00
        -11   -1    0    0    0    0  0.00000000000E+00  0.00000000000E+00  0.45593999997E+02  0.45594000000E+02  0.51100000000E-03 0.  1.
         11   -1    0    0    0    0 -0.00000000000E+00 -0.00000000000E+00 -0.45593999997E+02  0.45594000000E+02  0.51100000000E-03 0. -1.
    9900012    2    1    2    0    0 -0.40763165016E+01  0.84624827765E+01  0.39559274054E+02  0.50528854231E+02  0.29999982921E+02 0.  0.
         12    1    1    2    0    0  0.40763165016E+01 -0.84624827765E+01 -0.39559274054E+02  0.40659145769E+02  0.00000000000E+00 0. -1.
         11    1    3    3    0    0  0.53638400668E+00 -0.61543888024E+01  0.45989332987E+01  0.77015840631E+01  0.51100000000E-03 0. -1.
        -11    1    3    3    0    0 -0.73164594005E+01  0.13741590110E+02  0.11907079501E+02  0.19599500489E+02  0.51100000000E-03 0.  1.
         12    1    3    3    0    0  0.27037588922E+01  0.87528146900E+00  0.23053261254E+02  0.23227769679E+02  0.00000000000E+00 0. -1.
</event>
<event>
 7    1  0.2900470E-011  0.5052886E+02  0.7816164E-02  0.1300439E+00
        -11   -1    0    0    0    0  0.00000000000E+00  0.00000000000E+00  0.45593999997E+02  0.45594000000E+02  0.51100000000E-03 0.  1.
         11   -1    0    0    0    0 -0.00000000000E+00 -0.00000000000E+00 -0.45593999997E+02  0.45594000000E+02  0.51100000000E-03 0. -1.
    9900012    2    1    2    0    0 -0.26288534083E+02 -0.58857303774E+01  0.30453850646E+02  0.50528857542E+02  0.29999992983E+02 0.  0.
         12    1    1    2    0    0  0.26288534083E+02  0.58857303774E+01 -0.30453850646E+02  0.40659142458E+02  0.00000000000E+00 0. -1.
         11    1    3    3    0    0 -0.12748228781E+00 -0.12130701065E+02  0.14631510622E+02  0.19006611044E+02  0.51100000000E-03 0. -1.
        -11    1    3    3    0    0 -0.62660699209E+01 -0.40760640545E+00  0.39378744099E+01  0.74119248758E+01  0.51100000000E-03 0.  1.
         12    1    3    3    0    0 -0.19894981874E+02  0.66525770928E+01  0.11884465614E+02  0.24110321621E+02  0.00000000000E+00 0. -1.
</event>
<event>
 7    1  0.2900470E-011  0.5052886E+02  0.7816164E-02  0.1300439E+00
        -11   -1    0    0    0    0  0.00000000000E+00  0.00000000000E+00  0.45593999997E+02  0.45594000000E+02  0.51100000000E-03 0. -1.
         11   -1    0    0    0    0 -0.00000000000E+00 -0.00000000000E+00 -0.45593999997E+02  0.45594000000E+02  0.51100000000E-03 0.  1.
    9900012    2    1    2    0    0 -0.29257209882E+02 -0.99185050185E+01 -0.26434906659E+02  0.50528863733E+02  0.30000011802E+02 0.  0.
         12    1    1    2    0    0  0.29257209882E+02  0.99185050185E+01  0.26434906659E+02  0.40659136267E+02  0.00000000000E+00 0. -1.
         11    1    3    3    0    0  0.30383147163E+01  0.39005938821E+01 -0.24173120239E+01  0.55035794380E+01  0.51100000000E-03 0. -1.
        -11    1    3    3    0    0 -0.28232679784E+02 -0.12350525481E+02 -0.13477610593E+02  0.33634293140E+02  0.51100000000E-03 0.  1.
         12    1    3    3    0    0 -0.40628448143E+01 -0.14685734201E+01 -0.10539984043E+02  0.11390991155E+02  0.00000000000E+00 0. -1.
</event>
<event>
 7    1  0.2900470E-011  0.5052886E+02  0.7816164E-02  0.1300439E+00
        -11   -1    0    0    0    0  0.00000000000E+00  0.00000000000E+00  0.45593999997E+02  0.45594000000E+02  0.51100000000E-03 0.  1.
         11   -1    0    0    0    0 -0.00000000000E+00 -0.00000000000E+00 -0.45593999997E+02  0.45594000000E+02  0.51100000000E-03 0. -1.
    9900012    2    1    2    0    0  0.12710620926E+02 -0.17969447126E+02  0.34186324441E+02  0.50528859661E+02  0.29999999425E+02 0.  0.
         12    1    1    2    0    0 -0.12710620926E+02  0.17969447126E+02 -0.34186324441E+02  0.40659140339E+02  0.00000000000E+00 0. -1.
         11    1    3    3    0    0 -0.65011692606E+01 -0.11782214256E+02  0.14242420436E+02  0.19594190840E+02  0.51100000000E-03 0. -1.
        -11    1    3    3    0    0  0.13577525138E+02 -0.13242064726E+01  0.55447337929E+01  0.14725718480E+02  0.51100000000E-03 0.  1.
        -12    1    3    3    0    0  0.56342650488E+01 -0.48630263976E+01  0.14399170212E+02  0.16208950341E+02  0.00000000000E+00 0.  1.
</event>
<event>
 7    1  0.2900470E-011  0.5052886E+02  0.7816164E-02  0.1300439E+00
        -11   -1    0    0    0    0  0.00000000000E+00  0.00000000000E+00  0.45593999997E+02  0.45594000000E+02  0.51100000000E-03 0. -1.
         11   -1    0    0    0    0 -0.00000000000E+00 -0.00000000000E+00 -0.45593999997E+02  0.45594000000E+02  0.51100000000E-03 0.  1.
    9900012    2    1    2    0    0  0.75465408186E+01 -0.35796990036E+01 -0.39791970042E+02  0.50528863228E+02  0.30000010266E+02 0.  0.
         12    1    1    2    0    0 -0.75465408186E+01  0.35796990036E+01  0.39791970042E+02  0.40659136772E+02  0.00000000000E+00 0. -1.
         11    1    3    3    0    0 -0.66157122765E+01 -0.62570984069E+01 -0.13846383541E+02  0.16572304210E+02  0.51100000000E-03 0. -1.
        -11    1    3    3    0    0  0.36617497503E+01  0.80088461047E+01 -0.55620855281E+01  0.10415700785E+02  0.51100000000E-03 0.  1.
        -12    1    3    3    0    0  0.10500503345E+02 -0.53314467013E+01 -0.20383500973E+02  0.23540858233E+02  0.00000000000E+00 0.  1.
</event>
<event>
 7    1  0.2900470E-011  0.5052884E+02  0.7816164E-02  0.1300439E+00
        -11   -1    0    0    0    0  0.00000000000E+00  0.00000000000E+00  0.45593999997E+02  0.45594000000E+02  0.51100000000E-03 0. -1.
         11   -1    0    0    0    0 -0.00000000000E+00 -0.00000000000E+00 -0.45593999997E+02  0.45594000000E+02  0.51100000000E-03 0.  1.
    9900012    2    1    2    0    0 -0.12643660933E+02 -0.23187296559E+02 -0.30913659903E+02  0.50528840490E+02  0.29999941153E+02 0.  0.
         12    1    1    2    0    0  0.12643660933E+02  0.23187296559E+02  0.30913659903E+02  0.40659159510E+02  0.00000000000E+00 0. -1.
         11    1    3    3    0    0 -0.46864157417E+01  0.39272218262E+01  0.82621830255E+00  0.61699433321E+01  0.51100000000E-03 0. -1.
        -11    1    3    3    0    0 -0.22328646392E+01 -0.15181925088E+02 -0.25420231830E+02  0.29692839548E+02  0.51100000000E-03 0.  1.
         12    1    3    3    0    0 -0.57243805524E+01 -0.11932593297E+02 -0.63196463753E+01  0.14666057610E+02  0.00000000000E+00 0. -1.
</event>
<event>
 7    1  0.2900470E-011  0.5052886E+02  0.7816164E-02  0.1300439E+00
        -11   -1    0    0    0    0  0.00000000000E+00  0.00000000000E+00  0.45593999997E+02  0.45594000000E+02  0.51100000000E-03 0.  1.
         11   -1    0    0    0    0 -0.00000000000E+00 -0.00000000000E+00 -0.45593999997E+02  0.45594000000E+02  0.51100000000E-03 0. -1.
    9900012    2    1    2    0    0 -0.16941252183E+02 -0.12513050325E+02  0.34779066967E+02  0.50528856464E+02  0.29999989709E+02 0.  0.
         12    1    1    2    0    0  0.16941252183E+02  0.12513050325E+02 -0.34779066967E+02  0.40659143536E+02  0.00000000000E+00 0. -1.
         11    1    3    3    0    0 -0.53249707365E+01 -0.61419209768E+01  0.10587044763E+00  0.81295581333E+01  0.51100000000E-03 0. -1.
        -11    1    3    3    0    0 -0.96432177080E+01  0.58684880965E+01  0.21664552593E+02  0.24429155524E+02  0.51100000000E-03 0.  1.
        -12    1    3    3    0    0 -0.19730637387E+01 -0.12239617445E+02  0.13008643926E+02  0.17970142807E+02  0.00000000000E+00 0.  1.
</event>
<event>
 7    1  0.2900470E-011  0.5052886E+02  0.7816164E-02  0.1300439E+00
        -11   -1    0    0    0    0  0.00000000000E+00  0.00000000000E+00  0.45593999997E+02  0.45594000000E+02  0.51100000000E-03 0. -1.
         11   -1    0    0    0    0 -0.00000000000E+00 -0.00000000000E+00 -0.45593999997E+02  0.45594000000E+02  0.51100000000E-03 0.  1.
    9900012    2    1    2    0    0 -0.33626427113E+01 -0.30425536558E+02 -0.26760887115E+02  0.50528859330E+02  0.29999998420E+02 0.  0.
         12    1    1    2    0    0  0.33626427113E+01  0.30425536558E+02  0.26760887115E+02  0.40659140670E+02  0.00000000000E+00 0. -1.
         11    1    3    3    0    0  0.82076519708E+01 -0.18234262915E+02 -0.12458823654E+02  0.23560054797E+02  0.51100000000E-03 0. -1.
        -11    1    3    3    0    0 -0.74192092716E+01 -0.69995945999E+01  0.10358825595E+01  0.10252416482E+02  0.51100000000E-03 0.  1.
        -12    1    3    3    0    0 -0.41510854105E+01 -0.51916790428E+01 -0.15337946020E+02  0.16716388052E+02  0.00000000000E+00 0.  1.
</event>
<event>
 7    1  0.2900470E-011  0.5052886E+02  0.7816164E-02  0.1300439E+00
        -11   -1    0    0    0    0  0.00000000000E+00  0.00000000000E+00  0.45593999997E+02  0.45594000000E+02  0.51100000000E-03 0.  1.
         11   -1    0    0    0    0 -0.00000000000E+00 -0.00000000000E+00 -0.45593999997E+02  0.45594000000E+02  0.51100000000E-03 0. -1.
    9900012    2    1    2    0    0  0.29619714353E+02 -0.25617865540E+02  0.10934490438E+02  0.50528860875E+02  0.30000003117E+02 0.  0.
         12    1    1    2    0    0 -0.29619714353E+02  0.25617865540E+02 -0.10934490438E+02  0.40659139125E+02  0.00000000000E+00 0. -1.
         11    1    3    3    0    0  0.16464478017E+02 -0.11268739878E+02 -0.14315832343E+01  0.20002823941E+02  0.51100000000E-03 0. -1.
        -11    1    3    3    0    0  0.61447764112E+01 -0.10140090745E+01  0.14048237262E+02  0.15366829926E+02  0.51100000000E-03 0.  1.
        -12    1    3    3    0    0  0.70104599253E+01 -0.13335116588E+02 -0.16821635896E+01  0.15159207008E+02  0.00000000000E+00 0.  1.
</event>
<event>
 7    1  0.2900470E-011  0.5052886E+02  0.7816164E-02  0.1300439E+00
        -11   -1    0    0    0    0  0.00000000000E+00  0.00000000000E+00  0.45593999997E+02  0.45594000000E+02  0.51100000000E-03 0. -1.
         11   -1    0    0    0    0 -0.00000000000E+00 -0.00000000000E+00 -0.45593999997E+02  0.45594000000E+02  0.51100000000E-03 0.  1.
    9900012    2    1    2    0    0 -0.31327251594E+01  0.36237541068E+02 -0.18171191794E+02  0.50528861288E+02  0.30000004371E+02 0.  0.
         12    1    1    2    0    0  0.31327251594E+01 -0.36237541068E+02  0.18171191794E+02  0.40659138712E+02  0.00000000000E+00 0. -1.
         11    1    3    3    0    0 -0.34828815759E+01  0.31573413601E+02 -0.16780596571E+02  0.35924912415E+02  0.51100000000E-03 0. -1.
        -11    1    3    3    0    0  0.43486035224E+01 -0.18640770877E+01 -0.43203682002E+01  0.64070833950E+01  0.51100000000E-03 0.  1.
         12    1    3    3    0    0 -0.39984471059E+01  0.65282045547E+01  0.29297729767E+01  0.81968654778E+01  0.00000000000E+00 0. -1.
</event>
<event>
 7    1  0.2900470E-011  0.5052886E+02  0.7816164E-02  0.1300439E+00
        -11   -1    0    0    0    0  0.00000000000E+00  0.00000000000E+00  0.45593999997E+02  0.45594000000E+02  0.51100000000E-03 0.  1.
         11   -1    0    0    0    0 -0.00000000000E+00 -0.00000000000E+00 -0.45593999997E+02  0.45594000000E+02  0.51100000000E-03 0. -1.
    9900012    2    1    2    0    0  0.69579282660E+01  0.31537671951E+02  0.24700771276E+02  0.50528860566E+02  0.30000002178E+02 0.  0.
         12    1    1    2    0    0 -0.69579282660E+01 -0.31537671951E+02 -0.24700771276E+02  0.40659139434E+02  0.00000000000E+00 0. -1.
         11    1    3    3    0    0  0.13077979370E+00 -0.31718966041E+01  0.19224407318E+01  0.37113084013E+01  0.51100000000E-03 0. -1.
        -11    1    3    3    0    0 -0.48370940516E+01  0.20568700153E+02  0.18287592179E+02  0.27944676288E+02  0.51100000000E-03 0.  1.
        -12    1    3    3    0    0  0.11664242524E+02  0.14140868402E+02  0.44907383652E+01  0.18872875877E+02  0.00000000000E+00 0.  1.
</event>
<event>
 7    1  0.2900470E-011  0.5052886E+02  0.7816164E-02  0.1300439E+00
        -11   -1    0    0    0    0  0.00000000000E+00  0.00000000000E+00  0.45593999997E+02  0.45594000000E+02  0.51100000000E-03 0.  1.
         11   -1    0    0    0    0 -0.00000000000E+00 -0.00000000000E+00 -0.45593999997E+02  0.45594000000E+02  0.51100000000E-03 0. -1.
    9900012    2    1    2    0    0  0.34818050076E+02 -0.20656077193E+02  0.37676802593E+01  0.50528861413E+02  0.30000004751E+02 0.  0.
         12    1    1    2    0    0 -0.34818050076E+02  0.20656077193E+02 -0.37676802593E+01  0.40659138587E+02  0.00000000000E+00 0. -1.
         11    1    3    3    0    0  0.57540834474E+01  0.23337853834E+01 -0.67512164106E+01  0.91725107696E+01  0.51100000000E-03 0. -1.
        -11    1    3    3    0    0  0.15476851654E+02 -0.30626237854E+01  0.55997683214E+01  0.16741266591E+02  0.51100000000E-03 0.  1.
         12    1    3    3    0    0  0.13587114975E+02 -0.19927238791E+02  0.49191283486E+01  0.24615084052E+02  0.00000000000E+00 0. -1.
</event>
<event>
 7    1  0.2900470E-011  0.5052886E+02  0.7816164E-02  0.1300439E+00
        -11   -1    0    0    0    0  0.00000000000E+00  0.00000000000E+00  0.45593999997E+02  0.45594000000E+02  0.51100000000E-03 0. -1.
         11   -1    0    0    0    0 -0.00000000000E+00 -0.00000000000E+00 -0.45593999997E+02  0.45594000000E+02  0.51100000000E-03 0.  1.
    9900012    2    1    2    0    0  0.36775908484E+02 -0.14681673433E+02  0.92274747646E+01  0.50528864863E+02  0.30000015236E+02 0.  0.
         12    1    1    2    0    0 -0.36775908484E+02  0.14681673433E+02 -0.92274747646E+01  0.40659135137E+02  0.00000000000E+00 0. -1.
         11    1    3    3    0    0  0.22983354543E+02 -0.21392470863E+02 -0.19897919225E+01  0.31461590358E+02  0.51100000000E-03 0.  1.
        -11    1    3    3    0    0  0.86444002664E+01  0.49075539611E+01  0.77409871363E+01  0.12598913602E+02  0.51100000000E-03 0. -1.
        -12    1    3    3    0    0  0.51481536737E+01  0.18032434684E+01  0.34762795509E+01  0.64683609029E+01  0.00000000000E+00 0.  1.
</event>
<event>
 7    1  0.2900470E-011  0.5052890E+02  0.7816164E-02  0.1300439E+00
        -11   -1    0    0    0    0  0.00000000000E+00  0.00000000000E+00  0.45593999997E+02  0.45594000000E+02  0.51100000000E-03 0. -1.
         11   -1    0    0    0    0 -0.00000000000E+00 -0.00000000000E+00 -0.45593999997E+02  0.45594000000E+02  0.51100000000E-03 0.  1.
    9900012    2    1    2    0    0  0.10108597057E+01  0.14574319916E+02 -0.37943768733E+02  0.50528902322E+02  0.30000129097E+02 0.  0.
         12    1    1    2    0    0 -0.10108597057E+01 -0.14574319916E+02  0.37943768733E+02  0.40659097678E+02  0.00000000000E+00 0. -1.
         11    1    3    3    0    0  0.30678411565E+00  0.18879105330E+02 -0.36900696330E+02  0.41450888103E+02  0.51100000000E-03 0. -1.
        -11    1    3    3    0    0 -0.21705668193E+01 -0.38108475488E+01 -0.32180085090E+01  0.54396230000E+01  0.51100000000E-03 0.  1.
         12    1    3    3    0    0  0.28746424094E+01 -0.49393786562E+00  0.21749361066E+01  0.36383912193E+01  0.00000000000E+00 0. -1.
</event>
<event>
 7    1  0.2900470E-011  0.5052885E+02  0.7816164E-02  0.1300439E+00
        -11   -1    0    0    0    0  0.00000000000E+00  0.00000000000E+00  0.45593999997E+02  0.45594000000E+02  0.51100000000E-03 0. -1.
         11   -1    0    0    0    0 -0.00000000000E+00 -0.00000000000E+00 -0.45593999997E+02  0.45594000000E+02  0.51100000000E-03 0.  1.
    9900012    2    1    2    0    0  0.58352513222E+01 -0.38779147597E+02 -0.10737489974E+02  0.50528854199E+02  0.29999982823E+02 0.  0.
         12    1    1    2    0    0 -0.58352513222E+01  0.38779147597E+02  0.10737489974E+02  0.40659145801E+02  0.00000000000E+00 0. -1.
         11    1    3    3    0    0  0.10267062619E+02 -0.17518320417E+01 -0.69528066601E+01  0.12522899466E+02  0.51100000000E-03 0. -1.
        -11    1    3    3    0    0 -0.46449356761E+01 -0.30072962510E+02 -0.81338077450E+00  0.30440435117E+02  0.51100000000E-03 0.  1.
        -12    1    3    3    0    0  0.21312437903E+00 -0.69543530449E+01 -0.29713025396E+01  0.75655196157E+01  0.00000000000E+00 0.  1.
</event>
<event>
 7    1  0.2900470E-011  0.5052884E+02  0.7816164E-02  0.1300439E+00
        -11   -1    0    0    0    0  0.00000000000E+00  0.00000000000E+00  0.45593999997E+02  0.45594000000E+02  0.51100000000E-03 0. -1.
         11   -1    0    0    0    0 -0.00000000000E+00 -0.00000000000E+00 -0.45593999997E+02  0.45594000000E+02  0.51100000000E-03 0.  1.
    9900012    2    1    2    0    0 -0.39314602554E+02  0.92564035230E+01  0.46741745050E+01  0.50528844973E+02  0.29999954781E+02 0.  0.
         12    1    1    2    0    0  0.39314602554E+02 -0.92564035230E+01 -0.46741745050E+01  0.40659155027E+02  0.00000000000E+00 0. -1.
         11    1    3    3    0    0 -0.28899129290E+01  0.18443770755E+01 -0.65931640459E+01  0.74312270811E+01  0.51100000000E-03 0.  1.
        -11    1    3    3    0    0 -0.28918058197E+02 -0.15603994538E+01  0.12063202980E+02  0.31372118238E+02  0.51100000000E-03 0. -1.
        -12    1    3    3    0    0 -0.75066314279E+01  0.89724259013E+01 -0.79586442882E+00  0.11725499654E+02  0.00000000000E+00 0.  1.
</event>
<event>
 7    1  0.2900470E-011  0.5052887E+02  0.7816164E-02  0.1300439E+00
        -11   -1    0    0    0    0  0.00000000000E+00  0.00000000000E+00  0.45593999997E+02  0.45594000000E+02  0.51100000000E-03 0. -1.
         11   -1    0    0    0    0 -0.00000000000E+00 -0.00000000000E+00 -0.45593999997E+02  0.45594000000E+02  0.51100000000E-03 0.  1.
    9900012    2    1    2    0    0 -0.35420866680E+02 -0.47720005716E+00  0.19957438081E+02  0.50528870016E+02  0.30000030902E+02 0.  0.
         12    1    1    2    0    0  0.35420866680E+02  0.47720005716E+00 -0.19957438081E+02  0.40659129984E+02  0.00000000000E+00 0. -1.
         11    1    3    3    0    0  0.32455943796E+00 -0.43844386062E+01  0.34815326968E+01  0.56080041815E+01  0.51100000000E-03 0. -1.
        -11    1    3    3    0    0 -0.29479749123E+02 -0.53397719049E+01  0.83292341160E+01  0.31095737868E+02  0.51100000000E-03 0.  1.
        -12    1    3    3    0    0 -0.62656769952E+01  0.92470104539E+01  0.81466712681E+01  0.13825127967E+02  0.00000000000E+00 0.  1.
</event>
<event>
 7    1  0.2900470E-011  0.5052885E+02  0.7816164E-02  0.1300439E+00
        -11   -1    0    0    0    0  0.00000000000E+00  0.00000000000E+00  0.45593999997E+02  0.45594000000E+02  0.51100000000E-03 0.  1.
         11   -1    0    0    0    0 -0.00000000000E+00 -0.00000000000E+00 -0.45593999997E+02  0.45594000000E+02  0.51100000000E-03 0. -1.
    9900012    2    1    2    0    0  0.18726001789E+02  0.18207352780E+02  0.31160801545E+02  0.50528851077E+02  0.29999973333E+02 0.  0.
         12    1    1    2    0    0 -0.18726001789E+02 -0.18207352780E+02 -0.31160801545E+02  0.40659148923E+02  0.00000000000E+00 0. -1.
         11    1    3    3    0    0  0.11973634833E+02  0.14803677646E+02  0.62520156255E+01  0.20040072420E+02  0.51100000000E-03 0. -1.
        -11    1    3    3    0    0  0.96904408052E+00 -0.59517737921E+01  0.12683881694E+02  0.14044340953E+02  0.51100000000E-03 0.  1.
        -12    1    3    3    0    0  0.57833228754E+01  0.93554489262E+01  0.12224904225E+02  0.16444437704E+02  0.00000000000E+00 0.  1.
</event>
<event>
 7    1  0.2900470E-011  0.5052887E+02  0.7816164E-02  0.1300439E+00
        -11   -1    0    0    0    0  0.00000000000E+00  0.00000000000E+00  0.45593999997E+02  0.45594000000E+02  0.51100000000E-03 0. -1.
         11   -1    0    0    0    0 -0.00000000000E+00 -0.00000000000E+00 -0.45593999997E+02  0.45594000000E+02  0.51100000000E-03 0.  1.
    9900012    2    1    2    0    0 -0.18071108033E+02  0.34715664807E+02 -0.11019199499E+02  0.50528867125E+02  0.30000022114E+02 0.  0.
         12    1    1    2    0    0  0.18071108033E+02 -0.34715664807E+02  0.11019199499E+02  0.40659132875E+02  0.00000000000E+00 0. -1.
         11    1    3    3    0    0  0.29005844421E+00  0.65823097711E+01  0.58369410810E+01  0.88023188574E+01  0.51100000000E-03 0. -1.
        -11    1    3    3    0    0 -0.20576252997E+02  0.21290068535E+02 -0.17682276514E+02  0.34486404692E+02  0.51100000000E-03 0.  1.
        -12    1    3    3    0    0  0.22150865194E+01  0.68432865002E+01  0.82613593400E+00  0.72401435755E+01  0.00000000000E+00 0.  1.
</event>
<event>
 7    1  0.2900470E-011  0.5052886E+02  0.7816164E-02  0.1300439E+00
        -11   -1    0    0    0    0  0.00000000000E+00  0.00000000000E+00  0.45593999997E+02  0.45594000000E+02  0.51100000000E-03 0.  1.
         11   -1    0    0    0    0 -0.00000000000E+00 -0.00000000000E+00 -0.45593999997E+02  0.45594000000E+02  0.51100000000E-03 0. -1.
    9900012    2    1    2    0    0 -0.21944744552E+01 -0.84528970038E+01  0.39710179567E+02  0.50528861456E+02  0.30000004881E+02 0.  0.
         12    1    1    2    0    0  0.21944744552E+01  0.84528970038E+01 -0.39710179567E+02  0.40659138544E+02  0.00000000000E+00 0. -1.
         11    1    3    3    0    0 -0.16314672305E+01  0.99863504811E+01  0.80280127721E+01  0.12916573485E+02  0.51100000000E-03 0. -1.
        -11    1    3    3    0    0 -0.21665442711E+01 -0.99162993717E+01  0.99505007732E+01  0.14214055481E+02  0.51100000000E-03 0.  1.
         12    1    3    3    0    0  0.16035370464E+01 -0.85229481132E+01  0.21731666022E+02  0.23398232491E+02  0.00000000000E+00 0. -1.
</event>
<event>
 7    1  0.2900470E-011  0.5052887E+02  0.7816164E-02  0.1300439E+00
        -11   -1    0    0    0    0  0.00000000000E+00  0.00000000000E+00  0.45593999997E+02  0.45594000000E+02  0.51100000000E-03 0.  1.
         11   -1    0    0    0    0 -0.00000000000E+00 -0.00000000000E+00 -0.45593999997E+02  0.45594000000E+02  0.51100000000E-03 0. -1.
    9900012    2    1    2    0    0  0.34921419384E+02 -0.10987108545E+00  0.20824195480E+02  0.50528871617E+02  0.30000035767E+02 0.  0.
         12    1    1    2    0    0 -0.34921419384E+02  0.10987108545E+00 -0.20824195480E+02  0.40659128383E+02  0.00000000000E+00 0. -1.
         11    1    3    3    0    0  0.16171434080E+02 -0.73784181500E+01 -0.29887155183E+00  0.17777673050E+02  0.51100000000E-03 0. -1.
        -11    1    3    3    0    0  0.16729339215E+02 -0.73113935204E+00  0.13351936594E+02  0.21416805701E+02  0.51100000000E-03 0.  1.
         12    1    3    3    0    0  0.20206460889E+01  0.79996864166E+01  0.77711304380E+01  0.11334392867E+02  0.00000000000E+00 0. -1.
</event>
<event>
 7    1  0.2900470E-011  0.5052886E+02  0.7816164E-02  0.1300439E+00
        -11   -1    0    0    0    0  0.00000000000E+00  0.00000000000E+00  0.45593999997E+02  0.45594000000E+02  0.51100000000E-03 0. -1.
         11   -1    0    0    0    0 -0.00000000000E+00 -0.00000000000E+00 -0.45593999997E+02  0.45594000000E+02  0.51100000000E-03 0.  1.
    9900012    2    1    2    0    0  0.10244077684E+02 -0.12147807385E+02 -0.37425332600E+02  0.50528857460E+02  0.29999992736E+02 0.  0.
         12    1    1    2    0    0 -0.10244077684E+02  0.12147807385E+02  0.37425332600E+02  0.40659142540E+02  0.00000000000E+00 0. -1.
         11    1    3    3    0    0  0.82599927822E+01 -0.42937130422E+01 -0.54860965592E+01  0.10805586896E+02  0.51100000000E-03 0. -1.
        -11    1    3    3    0    0 -0.86681573898E+01 -0.92086789872E+01 -0.20025089913E+02  0.23684191933E+02  0.51100000000E-03 0.  1.
        -12    1    3    3    0    0  0.10652242291E+02  0.13545846441E+01 -0.11914146128E+02  0.16039078631E+02  0.00000000000E+00 0.  1.
</event>
<event>
 7    1  0.2900470E-011  0.5052886E+02  0.7816164E-02  0.1300439E+00
        -11   -1    0    0    0    0  0.00000000000E+00  0.00000000000E+00  0.45593999997E+02  0.45594000000E+02  0.51100000000E-03 0. -1.
         11   -1    0    0    0    0 -0.00000000000E+00 -0.00000000000E+00 -0.45593999997E+02  0.45594000000E+02  0.51100000000E-03 0.  1.
    9900012    2    1    2    0    0  0.17155421148E+02 -0.24106502905E+02 -0.27887871387E+02  0.50528864156E+02  0.30000013088E+02 0.  0.
         12    1    1    2    0    0 -0.17155421148E+02  0.24106502905E+02  0.27887871387E+02  0.40659135844E+02  0.00000000000E+00 0. -1.
         11    1    3    3    0    0  0.10424996458E+02 -0.38859374723E+01 -0.24898168710E+02  0.27270861126E+02  0.51100000000E-03 0. -1.
        -11    1    3    3    0    0  0.78835302260E+01 -0.10349228283E+02 -0.28509474078E+01  0.13318576360E+02  0.51100000000E-03 0.  1.
         12    1    3    3    0    0 -0.11531055357E+01 -0.98713371498E+01 -0.13875526980E+00  0.99394266699E+01  0.00000000000E+00 0. -1.
</event>
<event>
 7    1  0.2900470E-011  0.5052886E+02  0.7816164E-02  0.1300439E+00
        -11   -1    0    0    0    0  0.00000000000E+00  0.00000000000E+00  0.45593999997E+02  0.45594000000E+02  0.51100000000E-03 0.  1.
         11   -1    0    0    0    0 -0.00000000000E+00 -0.00000000000E+00 -0.45593999997E+02  0.45594000000E+02  0.51100000000E-03 0. -1.
    9900012    2    1    2    0    0 -0.23518065230E+02 -0.26078931597E+02  0.20492818433E+02  0.50528859911E+02  0.30000000187E+02 0.  0.
         12    1    1    2    0    0  0.23518065230E+02  0.26078931597E+02 -0.20492818433E+02  0.40659140089E+02  0.00000000000E+00 0. -1.
         11    1    3    3    0    0 -0.56446835395E+01 -0.14309293867E+02 -0.25198034377E+01  0.15587422907E+02  0.51100000000E-03 0. -1.
        -11    1    3    3    0    0 -0.79335129707E+01  0.29561371039E+01  0.85502670827E+01  0.12032723801E+02  0.51100000000E-03 0.  1.
        -12    1    3    3    0    0 -0.99398687197E+01 -0.14725774833E+02  0.14462354788E+02  0.22908713203E+02  0.00000000000E+00 0.  1.
</event>
<event>
 7    1  0.3243645E-011  0.5052887E+02  0.7816164E-02  0.1300439E+00
        -11   -1    0    0    0    0  0.00000000000E+00  0.00000000000E+00  0.45593999997E+02  0.45594000000E+02  0.51100000000E-03 0.  1.
         11   -1    0    0    0    0 -0.00000000000E+00 -0.00000000000E+00 -0.45593999997E+02  0.45594000000E+02  0.51100000000E-03 0. -1.
    9900012    2    1    2    0    0 -0.16459308636E+02  0.32138509376E+02 -0.18691506721E+02  0.50528867580E+02  0.30000023496E+02 0.  0.
         12    1    1    2    0    0  0.16459308636E+02 -0.32138509376E+02  0.18691506721E+02  0.40659132420E+02  0.00000000000E+00 0. -1.
         11    1    3    3    0    0 -0.12976853845E+02  0.19602697792E+02 -0.26541407364E+01  0.23658168986E+02  0.51100000000E-03 0.  1.
        -11    1    3    3    0    0  0.45811696314E+00  0.14269007613E+02 -0.17256551935E+02  0.22396496028E+02  0.51100000000E-03 0. -1.
         12    1    3    3    0    0 -0.39405717540E+01 -0.17331960291E+01  0.12191859501E+01  0.44742025664E+01  0.00000000000E+00 0. -1.
</event>
<event>
 7    1  0.2900470E-011  0.5052886E+02  0.7816164E-02  0.1300439E+00
        -11   -1    0    0    0    0  0.00000000000E+00  0.00000000000E+00  0.45593999997E+02  0.45594000000E+02  0.51100000000E-03 0. -1.
         11   -1    0    0    0    0 -0.00000000000E+00 -0.00000000000E+00 -0.45593999997E+02  0.45594000000E+02  0.51100000000E-03 0.  1.
    9900012    2    1    2    0    0  0.30561756958E+02 -0.12089917082E+02 -0.23936971990E+02  0.50528859435E+02  0.29999998739E+02 0.  0.
         12    1    1    2    0    0 -0.30561756958E+02  0.12089917082E+02  0.23936971990E+02  0.40659140565E+02  0.00000000000E+00 0. -1.
         11    1    3    3    0    0  0.41858099744E+01  0.58059923488E+00 -0.13918161734E+01  0.44491856709E+01  0.51100000000E-03 0. -1.
        -11    1    3    3    0    0  0.25149188516E+02 -0.11992327566E+02 -0.47919238009E+01  0.28271189176E+02  0.51100000000E-03 0.  1.
        -12    1    3    3    0    0  0.12267584679E+01 -0.67818875153E+00 -0.17753232015E+02  0.17808484588E+02  0.00000000000E+00 0.  1.
</event>
<event>
 7    1  0.2900470E-011  0.5052886E+02  0.7816164E-02  0.1300439E+00
        -11   -1    0    0    0    0  0.00000000000E+00  0.00000000000E+00  0.45593999997E+02  0.45594000000E+02  0.51100000000E-03 0.  1.
         11   -1    0    0    0    0 -0.00000000000E+00 -0.00000000000E+00 -0.45593999997E+02  0.45594000000E+02  0.51100000000E-03 0. -1.
    9900012    2    1    2    0    0 -0.21869241057E+02  0.25718207869E+02  0.22660007346E+02  0.50528857691E+02  0.29999993437E+02 0.  0.
         12    1    1    2    0    0  0.21869241057E+02 -0.25718207869E+02 -0.22660007346E+02  0.40659142309E+02  0.00000000000E+00 0. -1.
         11    1    3    3    0    0  0.19800460716E+01  0.41800361374E+01  0.11441870916E+01  0.47647086917E+01  0.51100000000E-03 0. -1.
        -11    1    3    3    0    0 -0.12334605762E+02 -0.30513652420E+01  0.10419361508E+02  0.16432176473E+02  0.51100000000E-03 0.  1.
        -12    1    3    3    0    0 -0.11514681366E+02  0.24589536974E+02  0.11096458746E+02  0.29331972526E+02  0.00000000000E+00 0.  1.
</event>
<event>
 7    1  0.2900470E-011  0.5052887E+02  0.7816164E-02  0.1300439E+00
        -11   -1    0    0    0    0  0.00000000000E+00  0.00000000000E+00  0.45593999997E+02  0.45594000000E+02  0.51100000000E-03 0. -1.
         11   -1    0    0    0    0 -0.00000000000E+00 -0.00000000000E+00 -0.45593999997E+02  0.45594000000E+02  0.51100000000E-03 0.  1.
    9900012    2    1    2    0    0 -0.13238783001E+02  0.38260637010E+02 -0.37447885291E+01  0.50528866205E+02  0.30000019318E+02 0.  0.
         12    1    1    2    0    0  0.13238783001E+02 -0.38260637010E+02  0.37447885291E+01  0.40659133795E+02  0.00000000000E+00 0. -1.
         11    1    3    3    0    0 -0.40380024520E+01  0.13803146037E+02  0.97163980609E+01  0.17356286926E+02  0.51100000000E-03 0. -1.
        -11    1    3    3    0    0 -0.81527834228E+01  0.16388063000E+02 -0.16344811153E+02  0.24539546417E+02  0.51100000000E-03 0.  1.
         12    1    3    3    0    0 -0.10479971266E+01  0.80694279728E+01  0.28836245630E+01  0.86330328625E+01  0.00000000000E+00 0. -1.
</event>
<event>
 7    1  0.2900470E-011  0.5052886E+02  0.7816164E-02  0.1300439E+00
        -11   -1    0    0    0    0  0.00000000000E+00  0.00000000000E+00  0.45593999997E+02  0.45594000000E+02  0.51100000000E-03 0. -1.
         11   -1    0    0    0    0 -0.00000000000E+00 -0.00000000000E+00 -0.45593999997E+02  0.45594000000E+02  0.51100000000E-03 0.  1.
    9900012    2    1    2    0    0 -0.30322604241E+02 -0.28236404996E+01 -0.26939419905E+02  0.50528860580E+02  0.30000002217E+02 0.  0.
         12    1    1    2    0    0  0.30322604241E+02  0.28236404996E+01  0.26939419905E+02  0.40659139420E+02  0.00000000000E+00 0. -1.
         11    1    3    3    0    0  0.10604410820E+01 -0.53495737462E+01 -0.11256902302E+02  0.12508410141E+02  0.51100000000E-03 0. -1.
        -11    1    3    3    0    0 -0.24560317922E+02  0.80597128061E+01 -0.11868515890E+02  0.28443450153E+02  0.51100000000E-03 0.  1.
        -12    1    3    3    0    0 -0.68227274009E+01 -0.55337795595E+01 -0.38140017135E+01  0.95770002856E+01  0.00000000000E+00 0.  1.
</event>
<event>
 7    1  0.2900470E-011  0.5052880E+02  0.7816164E-02  0.1300439E+00
        -11   -1    0    0    0    0  0.00000000000E+00  0.00000000000E+00  0.45593999997E+02  0.45594000000E+02  0.51100000000E-03 0.  1.
         11   -1    0    0    0    0 -0.00000000000E+00 -0.00000000000E+00 -0.45593999997E+02  0.45594000000E+02  0.51100000000E-03 0. -1.
    9900012    2    1    2    0    0  0.85675083556E+01  0.14234300814E+02  0.37110016329E+02  0.50528796478E+02  0.29999807375E+02 0.  0.
         12    1    1    2    0    0 -0.85675083556E+01 -0.14234300814E+02 -0.37110016329E+02  0.40659203522E+02  0.00000000000E+00 0. -1.
         11    1    3    3    0    0  0.38240763788E+01 -0.20316499902E+01 -0.13783564238E+01  0.45443402739E+01  0.51100000000E-03 0. -1.
        -11    1    3    3    0    0 -0.43609009816E+01  0.14546391588E+02  0.18363999872E+02  0.23829634012E+02  0.51100000000E-03 0.  1.
        -12    1    3    3    0    0  0.91043329585E+01  0.17195592163E+01  0.20124372881E+02  0.22154822192E+02  0.00000000000E+00 0.  1.
</event>
<event>
 7    1  0.2900470E-011  0.5052886E+02  0.7816164E-02  0.1300439E+00
        -11   -1    0    0    0    0  0.00000000000E+00  0.00000000000E+00  0.45593999997E+02  0.45594000000E+02  0.51100000000E-03 0.  1.
         11   -1    0    0    0    0 -0.00000000000E+00 -0.00000000000E+00 -0.45593999997E+02  0.45594000000E+02  0.51100000000E-03 0. -1.
    9900012    2    1    2    0    0  0.40598412139E+02 -0.10013170435E+01  0.19829387113E+01  0.50528858962E+02  0.29999997302E+02 0.  0.
         12    1    1    2    0    0 -0.40598412139E+02  0.10013170435E+01 -0.19829387113E+01  0.40659141038E+02  0.00000000000E+00 0. -1.
         11    1    3    3    0    0  0.10404037880E+01 -0.17717240935E+01 -0.56669564416E+01  0.60279218540E+01  0.51100000000E-03 0. -1.
        -11    1    3    3    0    0  0.39876022740E+02 -0.16923622059E+01  0.40350928445E+01  0.40115374284E+02  0.51100000000E-03 0.  1.
        -12    1    3    3    0    0 -0.31801438949E+00  0.24627692559E+01  0.36148023085E+01  0.43855628246E+01  0.00000000000E+00 0.  1.
</event>
<event>
 7    1  0.2900470E-011  0.5052893E+02  0.7816164E-02  0.1300439E+00
        -11   -1    0    0    0    0  0.00000000000E+00  0.00000000000E+00  0.45593999997E+02  0.45594000000E+02  0.51100000000E-03 0.  1.
         11   -1    0    0    0    0 -0.00000000000E+00 -0.00000000000E+00 -0.45593999997E+02  0.45594000000E+02  0.51100000000E-03 0. -1.
    9900012    2    1    2    0    0 -0.36640571312E+02 -0.78486132384E+01  0.15780615923E+02  0.50528929244E+02  0.30000210929E+02 0.  0.
         12    1    1    2    0    0  0.36640571312E+02  0.78486132384E+01 -0.15780615923E+02  0.40659070756E+02  0.00000000000E+00 0. -1.
         11    1    3    3    0    0  0.21631838298E+01 -0.42061849851E+01  0.23809904721E+01  0.52953255141E+01  0.51100000000E-03 0. -1.
        -11    1    3    3    0    0 -0.29139308732E+02 -0.83276418097E+01  0.15874628116E+02  0.34211880240E+02  0.51100000000E-03 0.  1.
         12    1    3    3    0    0 -0.96644464106E+01  0.46852135564E+01 -0.24750026655E+01  0.11021723490E+02  0.00000000000E+00 0. -1.
</event>
<event>
 7    1  0.2900470E-011  0.5052887E+02  0.7816164E-02  0.1300439E+00
        -11   -1    0    0    0    0  0.00000000000E+00  0.00000000000E+00  0.45593999997E+02  0.45594000000E+02  0.51100000000E-03 0.  1.
         11   -1    0    0    0    0 -0.00000000000E+00 -0.00000000000E+00 -0.45593999997E+02  0.45594000000E+02  0.51100000000E-03 0. -1.
    9900012    2    1    2    0    0  0.31846228003E+01  0.15154472953E+02  0.37594749586E+02  0.50528867332E+02  0.30000022742E+02 0.  0.
         12    1    1    2    0    0 -0.31846228003E+01 -0.15154472953E+02 -0.37594749586E+02  0.40659132668E+02  0.00000000000E+00 0. -1.
         11    1    3    3    0    0 -0.32950628544E+01  0.71530092819E+01  0.46702330796E+01  0.91560940515E+01  0.51100000000E-03 0. -1.
        -11    1    3    3    0    0  0.89951093852E+01  0.11442727151E+02  0.33993271732E+02  0.36978243885E+02  0.51100000000E-03 0.  1.
        -12    1    3    3    0    0 -0.25154237305E+01 -0.34412634795E+01 -0.10687552250E+01  0.43945293958E+01  0.00000000000E+00 0.  1.
</event>
<event>
 7    1  0.2900470E-011  0.5052881E+02  0.7816164E-02  0.1300439E+00
        -11   -1    0    0    0    0  0.00000000000E+00  0.00000000000E+00  0.45593999997E+02  0.45594000000E+02  0.51100000000E-03 0. -1.
         11   -1    0    0    0    0 -0.00000000000E+00 -0.00000000000E+00 -0.45593999997E+02  0.45594000000E+02  0.51100000000E-03 0.  1.
    9900012    2    1    2    0    0 -0.33689948214E+02  0.22346308538E+02 -0.43358298742E+01  0.50528812396E+02  0.29999855758E+02 0.  0.
         12    1    1    2    0    0  0.33689948214E+02 -0.22346308538E+02  0.43358298742E+01  0.40659187604E+02  0.00000000000E+00 0. -1.
         11    1    3    3    0    0 -0.22185353129E+02  0.15738304077E+02  0.72975235510E+01  0.28162705106E+02  0.51100000000E-03 0. -1.
        -11    1    3    3    0    0 -0.13454612494E+02  0.22075076060E+01 -0.10985593632E+02  0.17509510413E+02  0.51100000000E-03 0.  1.
         12    1    3    3    0    0  0.19500174090E+01  0.44004968552E+01 -0.64775979304E+00  0.48565968761E+01  0.00000000000E+00 0. -1.
</event>
<event>
 7    1  0.2900470E-011  0.5052883E+02  0.7816164E-02  0.1300439E+00
        -11   -1    0    0    0    0  0.00000000000E+00  0.00000000000E+00  0.45593999997E+02  0.45594000000E+02  0.51100000000E-03 0.  1.
         11   -1    0    0    0    0 -0.00000000000E+00 -0.00000000000E+00 -0.45593999997E+02  0.45594000000E+02  0.51100000000E-03 0. -1.
    9900012    2    1    2    0    0 -0.14398814941E+02  0.37403550004E+02  0.68422629136E+01  0.50528831460E+02  0.29999913705E+02 0.  0.
         12    1    1    2    0    0  0.14398814941E+02 -0.37403550004E+02 -0.68422629136E+01  0.40659168540E+02  0.00000000000E+00 0. -1.
         11    1    3    3    0    0  0.31803607797E+01 -0.21230886583E+01  0.15515222739E+01  0.41266719966E+01  0.51100000000E-03 0. -1.
        -11    1    3    3    0    0 -0.17097770262E+02  0.19452539083E+02  0.13110658268E+01  0.25931716460E+02  0.51100000000E-03 0.  1.
         12    1    3    3    0    0 -0.48140545879E+00  0.20074099580E+02  0.39796748129E+01  0.20470443004E+02  0.00000000000E+00 0. -1.
</event>
<event>
 7    1  0.2900470E-011  0.5052877E+02  0.7816164E-02  0.1300439E+00
        -11   -1    0    0    0    0  0.00000000000E+00  0.00000000000E+00  0.45593999997E+02  0.45594000000E+02  0.51100000000E-03 0.  1.
         11   -1    0    0    0    0 -0.00000000000E+00 -0.00000000000E+00 -0.45593999997E+02  0.45594000000E+02  0.51100000000E-03 0. -1.
    9900012    2    1    2    0    0  0.13279274781E+02  0.38375067449E+02  0.20465149598E+01  0.50528767790E+02  0.29999720173E+02 0.  0.
         12    1    1    2    0    0 -0.13279274781E+02 -0.38375067449E+02 -0.20465149598E+01  0.40659232210E+02  0.00000000000E+00 0. -1.
         11    1    3    3    0    0  0.12636171592E+01  0.14218479648E+02  0.74894366046E+01  0.16119973720E+02  0.51100000000E-03 0.  1.
        -11    1    3    3    0    0  0.10011794273E+02  0.38427861454E+01 -0.86093873621E+01  0.13752257303E+02  0.51100000000E-03 0. -1.
         12    1    3    3    0    0  0.20038633484E+01  0.20313801656E+02  0.31664657173E+01  0.20656536766E+02  0.00000000000E+00 0. -1.
</event>
<event>
 7    1  0.2900470E-011  0.5052886E+02  0.7816164E-02  0.1300439E+00
        -11   -1    0    0    0    0  0.00000000000E+00  0.00000000000E+00  0.45593999997E+02  0.45594000000E+02  0.51100000000E-03 0.  1.
         11   -1    0    0    0    0 -0.00000000000E+00 -0.00000000000E+00 -0.45593999997E+02  0.45594000000E+02  0.51100000000E-03 0. -1.
    9900012    2    1    2    0    0 -0.22219642517E+02  0.19093444767E+02  0.28193856857E+02  0.50528859440E+02  0.29999998754E+02 0.  0.
         12    1    1    2    0    0  0.22219642517E+02 -0.19093444767E+02 -0.28193856857E+02  0.40659140560E+02  0.00000000000E+00 0. -1.
         11    1    3    3    0    0 -0.41071436374E+01  0.37477844720E+00 -0.60435596563E+01  0.73166728315E+01  0.51100000000E-03 0. -1.
        -11    1    3    3    0    0 -0.15266078572E+02  0.13562953402E+02  0.25375021182E+02  0.32571437797E+02  0.51100000000E-03 0.  1.
         12    1    3    3    0    0 -0.28464203070E+01  0.51557129172E+01  0.88623953314E+01  0.10640748811E+02  0.00000000000E+00 0. -1.
</event>
<event>
 7    1  0.2900470E-011  0.5052883E+02  0.7816164E-02  0.1300439E+00
        -11   -1    0    0    0    0  0.00000000000E+00  0.00000000000E+00  0.45593999997E+02  0.45594000000E+02  0.51100000000E-03 0. -1.
         11   -1    0    0    0    0 -0.00000000000E+00 -0.00000000000E+00 -0.45593999997E+02  0.45594000000E+02  0.51100000000E-03 0.  1.
    9900012    2    1    2    0    0  0.36815707638E+01 -0.38948695864E+02 -0.11073089651E+02  0.50528828990E+02  0.29999906197E+02 0.  0.
         12    1    1    2    0    0 -0.36815707638E+01  0.38948695864E+02  0.11073089651E+02  0.40659171010E+02  0.00000000000E+00 0. -1.
         11    1    3    3    0    0 -0.15487565404E+01 -0.53397736795E+01  0.62712760266E+01  0.83809744680E+01  0.51100000000E-03 0. -1.
        -11    1    3    3    0    0  0.35472499375E+01 -0.31249957427E+02 -0.81241671784E+01  0.32482994227E+02  0.51100000000E-03 0.  1.
        -12    1    3    3    0    0  0.16830773667E+01 -0.23589647574E+01 -0.92201984997E+01  0.96648602951E+01  0.00000000000E+00 0.  1.
</event>
<event>
 7    1  0.2900470E-011  0.5052886E+02  0.7816164E-02  0.1300439E+00
        -11   -1    0    0    0    0  0.00000000000E+00  0.00000000000E+00  0.45593999997E+02  0.45594000000E+02  0.51100000000E-03 0.  1.
         11   -1    0    0    0    0 -0.00000000000E+00 -0.00000000000E+00 -0.45593999997E+02  0.45594000000E+02  0.51100000000E-03 0. -1.
    9900012    2    1    2    0    0  0.26412470425E+02 -0.30781218506E+02  0.28395929187E+01  0.50528864561E+02  0.30000014320E+02 0.  0.
         12    1    1    2    0    0 -0.26412470425E+02  0.30781218506E+02 -0.28395929187E+01  0.40659135439E+02  0.00000000000E+00 0. -1.
         11    1    3    3    0    0 -0.58203816889E+01 -0.36625042379E+01  0.35724224009E+01  0.77493859350E+01  0.51100000000E-03 0. -1.
        -11    1    3    3    0    0  0.10961769546E+02 -0.11924821073E+02  0.26785327487E+01  0.16417560329E+02  0.51100000000E-03 0.  1.
         12    1    3    3    0    0  0.21271082568E+02 -0.15193893195E+02 -0.34113622309E+01  0.26361918297E+02  0.00000000000E+00 0. -1.
</event>
<event>
 7    1  0.2900470E-011  0.5052887E+02  0.7816164E-02  0.1300439E+00
        -11   -1    0    0    0    0  0.00000000000E+00  0.00000000000E+00  0.45593999997E+02  0.45594000000E+02  0.51100000000E-03 0.  1.
         11   -1    0    0    0    0 -0.00000000000E+00 -0.00000000000E+00 -0.45593999997E+02  0.45594000000E+02  0.51100000000E-03 0. -1.
    9900012    2    1    2    0    0  0.34252677293E+02 -0.59156537387E+01  0.21093221164E+02  0.50528870152E+02  0.30000031314E+02 0.  0.
         12    1    1    2    0    0 -0.34252677293E+02  0.59156537387E+01 -0.21093221164E+02  0.40659129848E+02  0.00000000000E+00 0. -1.
         11    1    3    3    0    0  0.25731189065E+02  0.98818282348E+00  0.20060596959E+02  0.32641969099E+02  0.51100000000E-03 0. -1.
        -11    1    3    3    0    0 -0.39520488658E+01 -0.21959971126E+01  0.41531116919E+00  0.45402177464E+01  0.51100000000E-03 0.  1.
        -12    1    3    3    0    0  0.12473537094E+02 -0.47078394496E+01  0.61731303600E+00  0.13346683307E+02  0.00000000000E+00 0.  1.
</event>
<event>
 7    1  0.2900470E-011  0.5052885E+02  0.7816164E-02  0.1300439E+00
        -11   -1    0    0    0    0  0.00000000000E+00  0.00000000000E+00  0.45593999997E+02  0.45594000000E+02  0.51100000000E-03 0.  1.
         11   -1    0    0    0    0 -0.00000000000E+00 -0.00000000000E+00 -0.45593999997E+02  0.45594000000E+02  0.51100000000E-03 0. -1.
    9900012    2    1    2    0    0  0.20715819252E+02 -0.65273750716E+01  0.34371713830E+02  0.50528849686E+02  0.29999969107E+02 0.  0.
         12    1    1    2    0    0 -0.20715819252E+02  0.65273750716E+01 -0.34371713830E+02  0.40659150314E+02  0.00000000000E+00 0. -1.
         11    1    3    3    0    0  0.11065894112E+02  0.10418326162E+02  0.11197516479E+02  0.18878027123E+02  0.51100000000E-03 0. -1.
        -11    1    3    3    0    0  0.10318769935E+02 -0.96003127651E+01  0.13827901001E+02  0.19744717382E+02  0.51100000000E-03 0.  1.
         12    1    3    3    0    0 -0.66884479434E+00 -0.73453884686E+01  0.93462963501E+01  0.11906105181E+02  0.00000000000E+00 0. -1.
</event>
<event>
 7    1  0.2900470E-011  0.5052885E+02  0.7816164E-02  0.1300439E+00
        -11   -1    0    0    0    0  0.00000000000E+00  0.00000000000E+00  0.45593999997E+02  0.45594000000E+02  0.51100000000E-03 0.  1.
         11   -1    0    0    0    0 -0.00000000000E+00 -0.00000000000E+00 -0.45593999997E+02  0.45594000000E+02  0.51100000000E-03 0. -1.
    9900012    2    1    2    0    0 -0.14089409673E+02 -0.51828345129E+01  0.37786147297E+02  0.50528853844E+02  0.29999981746E+02 0.  0.
         12    1    1    2    0    0  0.14089409673E+02  0.51828345129E+01 -0.37786147297E+02  0.40659146156E+02  0.00000000000E+00 0. -1.
         11    1    3    3    0    0 -0.14436030131E+02 -0.11440461221E+02  0.17786564035E+02  0.25605565398E+02  0.51100000000E-03 0. -1.
        -11    1    3    3    0    0  0.54579137951E+01 -0.78166225701E+00  0.11537440233E+02  0.12787194620E+02  0.51100000000E-03 0.  1.
         12    1    3    3    0    0 -0.51112933366E+01  0.70392889651E+01  0.84621430293E+01  0.12136093826E+02  0.00000000000E+00 0. -1.
</event>
<event>
 7    1  0.2900470E-011  0.5052885E+02  0.7816164E-02  0.1300439E+00
        -11   -1    0    0    0    0  0.00000000000E+00  0.00000000000E+00  0.45593999997E+02  0.45594000000E+02  0.51100000000E-03 0.  1.
         11   -1    0    0    0    0 -0.00000000000E+00 -0.00000000000E+00 -0.45593999997E+02  0.45594000000E+02  0.51100000000E-03 0. -1.
    9900012    2    1    2    0    0 -0.27993486551E+02 -0.20963549651E+02  0.20737898771E+02  0.50528854058E+02  0.29999982395E+02 0.  0.
         12    1    1    2    0    0  0.27993486551E+02  0.20963549651E+02 -0.20737898771E+02  0.40659145942E+02  0.00000000000E+00 0. -1.
         11    1    3    3    0    0 -0.14532457589E+02 -0.32396746023E+01 -0.55500563654E+01  0.15889963531E+02  0.51100000000E-03 0. -1.
        -11    1    3    3    0    0 -0.10793878513E+02 -0.16241749504E+02  0.22508261131E+02  0.29781270283E+02  0.51100000000E-03 0.  1.
         12    1    3    3    0    0 -0.26671504496E+01 -0.14821255443E+01  0.37796940062E+01  0.48576202435E+01  0.00000000000E+00 0. -1.
</event>
<event>
 7    1  0.2900470E-011  0.5052886E+02  0.7816164E-02  0.1300439E+00
        -11   -1    0    0    0    0  0.00000000000E+00  0.00000000000E+00  0.45593999997E+02  0.45594000000E+02  0.51100000000E-03 0.  1.
         11   -1    0    0    0    0 -0.00000000000E+00 -0.00000000000E+00 -0.45593999997E+02  0.45594000000E+02  0.51100000000E-03 0. -1.
    9900012    2    1    2    0    0 -0.14353229877E+01 -0.65691820729E+01  0.40099267757E+02  0.50528861054E+02  0.30000003659E+02 0.  0.
         12    1    1    2    0    0  0.14353229877E+01  0.65691820729E+01 -0.40099267757E+02  0.40659138946E+02  0.00000000000E+00 0. -1.
         11    1    3    3    0    0 -0.44509754550E+01  0.70732657797E+01  0.35752344515E+01  0.90898059900E+01  0.51100000000E-03 0. -1.
        -11    1    3    3    0    0  0.39055531257E+01  0.30500350691E+00  0.16893287290E+02  0.17341554950E+02  0.51100000000E-03 0.  1.
         12    1    3    3    0    0 -0.88990065832E+00 -0.13947451359E+02  0.19630746016E+02  0.24097500114E+02  0.00000000000E+00 0. -1.
</event>
<event>
 7    1  0.2900470E-011  0.5052885E+02  0.7816164E-02  0.1300439E+00
        -11   -1    0    0    0    0  0.00000000000E+00  0.00000000000E+00  0.45593999997E+02  0.45594000000E+02  0.51100000000E-03 0.  1.
         11   -1    0    0    0    0 -0.00000000000E+00 -0.00000000000E+00 -0.45593999997E+02  0.45594000000E+02  0.51100000000E-03 0. -1.
    9900012    2    1    2    0    0  0.25387359493E+02  0.16975605748E+02  0.26841705150E+02  0.50528851609E+02  0.29999974951E+02 0.  0.
         12    1    1    2    0    0 -0.25387359493E+02 -0.16975605748E+02 -0.26841705150E+02  0.40659148391E+02  0.00000000000E+00 0. -1.
         11    1    3    3    0    0  0.24138455557E+02  0.20444963889E+02  0.11455555812E+02  0.33643592917E+02  0.51100000000E-03 0.  1.
        -11    1    3    3    0    0 -0.22049466259E+01 -0.23255171017E+01  0.57119979876E+01  0.65495603429E+01  0.51100000000E-03 0. -1.
        -12    1    3    3    0    0  0.34538505620E+01 -0.11438410400E+01  0.96741513500E+01  0.10335698349E+02  0.00000000000E+00 0.  1.
</event>
<event>
 7    1  0.2900470E-011  0.5052883E+02  0.7816164E-02  0.1300439E+00
        -11   -1    0    0    0    0  0.00000000000E+00  0.00000000000E+00  0.45593999997E+02  0.45594000000E+02  0.51100000000E-03 0.  1.
         11   -1    0    0    0    0 -0.00000000000E+00 -0.00000000000E+00 -0.45593999997E+02  0.45594000000E+02  0.51100000000E-03 0. -1.
    9900012    2    1    2    0    0  0.61223498811E+01  0.23215547793E+01  0.40128482380E+02  0.50528832733E+02  0.29999917576E+02 0.  0.
         12    1    1    2    0    0 -0.61223498811E+01 -0.23215547793E+01 -0.40128482380E+02  0.40659167267E+02  0.00000000000E+00 0. -1.
         11    1    3    3    0    0 -0.19136129840E+01  0.50817908056E+01  0.75009626508E+01  0.92601810670E+01  0.51100000000E-03 0. -1.
        -11    1    3    3    0    0  0.12802765397E+02 -0.10655492678E+01  0.60255741742E+01  0.14189916893E+02  0.51100000000E-03 0.  1.
        -12    1    3    3    0    0 -0.47668025317E+01 -0.16946867585E+01  0.26601945555E+02  0.27078734773E+02  0.00000000000E+00 0.  1.
</event>
<event>
 7    1  0.2900470E-011  0.5052886E+02  0.7816164E-02  0.1300439E+00
        -11   -1    0    0    0    0  0.00000000000E+00  0.00000000000E+00  0.45593999997E+02  0.45594000000E+02  0.51100000000E-03 0.  1.
         11   -1    0    0    0    0 -0.00000000000E+00 -0.00000000000E+00 -0.45593999997E+02  0.45594000000E+02  0.51100000000E-03 0. -1.
    9900012    2    1    2    0    0  0.38336112089E+02  0.65457976532E+01  0.11860043155E+02  0.50528861043E+02  0.30000003628E+02 0.  0.
         12    1    1    2    0    0 -0.38336112089E+02 -0.65457976532E+01 -0.11860043155E+02  0.40659138957E+02  0.00000000000E+00 0. -1.
         11    1    3    3    0    0  0.13716521840E+02  0.28595844880E+01  0.18553536202E+02  0.23249815068E+02  0.51100000000E-03 0. -1.
        -11    1    3    3    0    0  0.14037295368E+02  0.60571358441E+01 -0.59620317042E+01  0.16409764720E+02  0.51100000000E-03 0.  1.
         12    1    3    3    0    0  0.10582294882E+02 -0.23709226789E+01 -0.73146134224E+00  0.10869281256E+02  0.00000000000E+00 0. -1.
</event>
<event>
 7    1  0.2900470E-011  0.5052885E+02  0.7816164E-02  0.1300439E+00
        -11   -1    0    0    0    0  0.00000000000E+00  0.00000000000E+00  0.45593999997E+02  0.45594000000E+02  0.51100000000E-03 0.  1.
         11   -1    0    0    0    0 -0.00000000000E+00 -0.00000000000E+00 -0.45593999997E+02  0.45594000000E+02  0.51100000000E-03 0. -1.
    9900012    2    1    2    0    0 -0.30780259875E+01 -0.60058486077E+01  0.40095160576E+02  0.50528851422E+02  0.29999974383E+02 0.  0.
         12    1    1    2    0    0  0.30780259875E+01  0.60058486077E+01 -0.40095160576E+02  0.40659148578E+02  0.00000000000E+00 0. -1.
         11    1    3    3    0    0  0.33703353485E+01 -0.16821732104E+02  0.17704573721E+02  0.24653230260E+02  0.51100000000E-03 0. -1.
        -11    1    3    3    0    0 -0.50087383360E+01  0.69503254264E+01  0.17448965391E+02  0.19438643901E+02  0.51100000000E-03 0.  1.
         12    1    3    3    0    0 -0.14396230001E+01  0.38655580696E+01  0.49416214633E+01  0.64369772610E+01  0.00000000000E+00 0. -1.
</event>
<event>
 7    1  0.2900470E-011  0.5052885E+02  0.7816164E-02  0.1300439E+00
        -11   -1    0    0    0    0  0.00000000000E+00  0.00000000000E+00  0.45593999997E+02  0.45594000000E+02  0.51100000000E-03 0.  1.
         11   -1    0    0    0    0 -0.00000000000E+00 -0.00000000000E+00 -0.45593999997E+02  0.45594000000E+02  0.51100000000E-03 0. -1.
    9900012    2    1    2    0    0 -0.23173699957E+02  0.23233286951E+02  0.24007503325E+02  0.50528853328E+02  0.29999980175E+02 0.  0.
         12    1    1    2    0    0  0.23173699957E+02 -0.23233286951E+02 -0.24007503325E+02  0.40659146672E+02  0.00000000000E+00 0. -1.
         11    1    3    3    0    0 -0.28255232941E+02  0.19432481993E+02  0.11231766210E+02  0.36085067790E+02  0.51100000000E-03 0. -1.
        -11    1    3    3    0    0  0.36120815314E+01  0.14635014627E+01  0.85465016989E+01  0.93931709806E+01  0.51100000000E-03 0.  1.
         12    1    3    3    0    0  0.14694514527E+01  0.23373034953E+01  0.42292354158E+01  0.50506145570E+01  0.00000000000E+00 0. -1.
</event>
<event>
 7    1  0.2900470E-011  0.5052883E+02  0.7816164E-02  0.1300439E+00
        -11   -1    0    0    0    0  0.00000000000E+00  0.00000000000E+00  0.45593999997E+02  0.45594000000E+02  0.51100000000E-03 0. -1.
         11   -1    0    0    0    0 -0.00000000000E+00 -0.00000000000E+00 -0.45593999997E+02  0.45594000000E+02  0.51100000000E-03 0.  1.
    9900012    2    1    2    0    0 -0.40120362446E+01 -0.32929098277E+02 -0.23510560604E+02  0.50528826274E+02  0.29999897942E+02 0.  0.
         12    1    1    2    0    0  0.40120362446E+01  0.32929098277E+02  0.23510560604E+02  0.40659173726E+02  0.00000000000E+00 0. -1.
         11    1    3    3    0    0  0.20858053009E+01 -0.58953209261E+00  0.42465389285E+01  0.47677274433E+01  0.51100000000E-03 0. -1.
        -11    1    3    3    0    0  0.10704878951E-01 -0.25178227103E+02 -0.25986244131E+02  0.36183257439E+02  0.51100000000E-03 0.  1.
        -12    1    3    3    0    0 -0.61085464244E+01 -0.71613390815E+01 -0.17708554018E+01  0.95778413911E+01  0.00000000000E+00 0.  1.
</event>
<event>
 7    1  0.2900470E-011  0.5052886E+02  0.7816164E-02  0.1300439E+00
        -11   -1    0    0    0    0  0.00000000000E+00  0.00000000000E+00  0.45593999997E+02  0.45594000000E+02  0.51100000000E-03 0. -1.
         11   -1    0    0    0    0 -0.00000000000E+00 -0.00000000000E+00 -0.45593999997E+02  0.45594000000E+02  0.51100000000E-03 0.  1.
    9900012    2    1    2    0    0 -0.35374980140E+02  0.19906507001E+02 -0.23468648178E+01  0.50528855698E+02  0.29999987380E+02 0.  0.
         12    1    1    2    0    0  0.35374980140E+02 -0.19906507001E+02  0.23468648178E+01  0.40659144302E+02  0.00000000000E+00 0. -1.
         11    1    3    3    0    0 -0.14069798254E+02  0.85989683152E+01  0.77321643961E+01  0.18212299292E+02  0.51100000000E-03 0. -1.
        -11    1    3    3    0    0 -0.32634020014E+01  0.11856229030E+02 -0.65207263742E+01  0.13919045662E+02  0.51100000000E-03 0.  1.
        -12    1    3    3    0    0 -0.18041779884E+02 -0.54869034350E+00 -0.35583028397E+01  0.18397510744E+02  0.00000000000E+00 0.  1.
</event>
<event>
 7    1  0.2900470E-011  0.5052886E+02  0.7816164E-02  0.1300439E+00
        -11   -1    0    0    0    0  0.00000000000E+00  0.00000000000E+00  0.45593999997E+02  0.45594000000E+02  0.51100000000E-03 0. -1.
         11   -1    0    0    0    0 -0.00000000000E+00 -0.00000000000E+00 -0.45593999997E+02  0.45594000000E+02  0.51100000000E-03 0.  1.
    9900012    2    1    2    0    0  0.33631868645E+02 -0.53350501766E+01 -0.22217112299E+02  0.50528862923E+02  0.30000009342E+02 0.  0.
         12    1    1    2    0    0 -0.33631868645E+02  0.53350501766E+01  0.22217112299E+02  0.40659137077E+02  0.00000000000E+00 0. -1.
         11    1    3    3    0    0  0.36845636898E+01 -0.30208430007E+01 -0.13139228988E+02  0.13976438770E+02  0.51100000000E-03 0. -1.
        -11    1    3    3    0    0  0.32453803871E+02 -0.96797885001E+00 -0.75979628622E+01  0.33345395614E+02  0.51100000000E-03 0.  1.
        -12    1    3    3    0    0 -0.25064989158E+01 -0.13462283258E+01 -0.14799204482E+01  0.32070285395E+01  0.00000000000E+00 0.  1.
</event>
<event>
 7    1  0.2900470E-011  0.5052886E+02  0.7816164E-02  0.1300439E+00
        -11   -1    0    0    0    0  0.00000000000E+00  0.00000000000E+00  0.45593999997E+02  0.45594000000E+02  0.51100000000E-03 0. -1.
         11   -1    0    0    0    0 -0.00000000000E+00 -0.00000000000E+00 -0.45593999997E+02  0.45594000000E+02  0.51100000000E-03 0.  1.
    9900012    2    1    2    0    0  0.37560367457E+02  0.41406067616E+01 -0.15007990672E+02  0.50528860660E+02  0.30000002461E+02 0.  0.
         12    1    1    2    0    0 -0.37560367457E+02 -0.41406067616E+01  0.15007990672E+02  0.40659139340E+02  0.00000000000E+00 0. -1.
         11    1    3    3    0    0  0.90295650462E+01  0.12205068499E+02 -0.93592438691E+01  0.17835139137E+02  0.51100000000E-03 0. -1.
        -11    1    3    3    0    0  0.15497228035E+02 -0.10391610607E+02 -0.10878443198E+01  0.18690453534E+02  0.51100000000E-03 0.  1.
        -12    1    3    3    0    0  0.13033574376E+02  0.23271488699E+01 -0.45609024835E+01  0.14003267988E+02  0.00000000000E+00 0.  1.
</event>
<event>
 7    1  0.2900470E-011  0.5052885E+02  0.7816164E-02  0.1300439E+00
        -11   -1    0    0    0    0  0.00000000000E+00  0.00000000000E+00  0.45593999997E+02  0.45594000000E+02  0.51100000000E-03 0.  1.
         11   -1    0    0    0    0 -0.00000000000E+00 -0.00000000000E+00 -0.45593999997E+02  0.45594000000E+02  0.51100000000E-03 0. -1.
    9900012    2    1    2    0    0 -0.60688898436E+00  0.39810863895E+02  0.82397506313E+01  0.50528847417E+02  0.29999962209E+02 0.  0.
         12    1    1    2    0    0  0.60688898436E+00 -0.39810863895E+02 -0.82397506313E+01  0.40659152583E+02  0.00000000000E+00 0. -1.
         11    1    3    3    0    0 -0.59572232548E+01  0.35590389386E+02  0.27167897220E+01  0.36187639771E+02  0.51100000000E-03 0. -1.
        -11    1    3    3    0    0  0.38674874474E+00 -0.28537783538E+01  0.48914723430E+01  0.56762776031E+01  0.51100000000E-03 0.  1.
        -12    1    3    3    0    0  0.49635855257E+01  0.70742528625E+01  0.63148856637E+00  0.86649300425E+01  0.00000000000E+00 0.  1.
</event>
<event>
 7    1  0.2900470E-011  0.5052886E+02  0.7816164E-02  0.1300439E+00
        -11   -1    0    0    0    0  0.00000000000E+00  0.00000000000E+00  0.45593999997E+02  0.45594000000E+02  0.51100000000E-03 0.  1.
         11   -1    0    0    0    0 -0.00000000000E+00 -0.00000000000E+00 -0.45593999997E+02  0.45594000000E+02  0.51100000000E-03 0. -1.
    9900012    2    1    2    0    0  0.78291496881E+00 -0.28591395339E+02  0.28897834351E+02  0.50528859902E+02  0.30000000159E+02 0.  0.
         12    1    1    2    0    0 -0.78291496881E+00  0.28591395339E+02 -0.28897834351E+02  0.40659140098E+02  0.00000000000E+00 0. -1.
         11    1    3    3    0    0  0.91488256814E+00 -0.60088356765E+00 -0.29418808050E+01  0.31389065145E+01  0.51100000000E-03 0. -1.
        -11    1    3    3    0    0  0.18399526359E+01 -0.97404225313E+01  0.26468712185E+02  0.28264005055E+02  0.51100000000E-03 0.  1.
        -12    1    3    3    0    0 -0.19719202353E+01 -0.18250089240E+02  0.53710029714E+01  0.19125948332E+02  0.00000000000E+00 0.  1.
</event>
<event>
 7    1  0.2900470E-011  0.5052886E+02  0.7816164E-02  0.1300439E+00
        -11   -1    0    0    0    0  0.00000000000E+00  0.00000000000E+00  0.45593999997E+02  0.45594000000E+02  0.51100000000E-03 0.  1.
         11   -1    0    0    0    0 -0.00000000000E+00 -0.00000000000E+00 -0.45593999997E+02  0.45594000000E+02  0.51100000000E-03 0. -1.
    9900012    2    1    2    0    0  0.37626612577E+02 -0.14900866923E+02  0.39201795901E+01  0.50528860596E+02  0.30000002267E+02 0.  0.
         12    1    1    2    0    0 -0.37626612577E+02  0.14900866923E+02 -0.39201795901E+01  0.40659139404E+02  0.00000000000E+00 0. -1.
         11    1    3    3    0    0  0.25434286930E+02  0.10970081928E+01  0.84672638574E+00  0.25472010609E+02  0.51100000000E-03 0. -1.
        -11    1    3    3    0    0  0.14250759298E+02 -0.12440401063E+02 -0.14164438526E+01  0.18969818993E+02  0.51100000000E-03 0.  1.
         12    1    3    3    0    0 -0.20584336517E+01 -0.35574740528E+01  0.44898970570E+01  0.60870309936E+01  0.00000000000E+00 0. -1.
</event>
<event>
 7    1  0.2900470E-011  0.5052886E+02  0.7816164E-02  0.1300439E+00
        -11   -1    0    0    0    0  0.00000000000E+00  0.00000000000E+00  0.45593999997E+02  0.45594000000E+02  0.51100000000E-03 0. -1.
         11   -1    0    0    0    0 -0.00000000000E+00 -0.00000000000E+00 -0.45593999997E+02  0.45594000000E+02  0.51100000000E-03 0.  1.
    9900012    2    1    2    0    0  0.19745814952E+02  0.35112461013E+02  0.55121315626E+01  0.50528859320E+02  0.29999998388E+02 0.  0.
         12    1    1    2    0    0 -0.19745814952E+02 -0.35112461013E+02 -0.55121315626E+01  0.40659140680E+02  0.00000000000E+00 0. -1.
         11    1    3    3    0    0 -0.47151065016E+01  0.55065503520E+01 -0.27979958992E+01  0.77706568200E+01  0.51100000000E-03 0. -1.
        -11    1    3    3    0    0  0.24690835458E+02  0.31319774628E+02  0.67899143080E+01  0.40455760713E+02  0.51100000000E-03 0.  1.
        -12    1    3    3    0    0 -0.22991400454E+00 -0.17138639665E+01  0.15202131538E+01  0.23024417861E+01  0.00000000000E+00 0.  1.
</event>
<event>
 7    1  0.2900470E-011  0.5052886E+02  0.7816164E-02  0.1300439E+00
        -11   -1    0    0    0    0  0.00000000000E+00  0.00000000000E+00  0.45593999997E+02  0.45594000000E+02  0.51100000000E-03 0. -1.
         11   -1    0    0    0    0 -0.00000000000E+00 -0.00000000000E+00 -0.45593999997E+02  0.45594000000E+02  0.51100000000E-03 0.  1.
    9900012    2    1    2    0    0 -0.32582700135E+02 -0.19770373412E+02 -0.14165658168E+02  0.50528857310E+02  0.29999992281E+02 0.  0.
         12    1    1    2    0    0  0.32582700135E+02  0.19770373412E+02  0.14165658168E+02  0.40659142690E+02  0.00000000000E+00 0. -1.
         11    1    3    3    0    0 -0.39552409198E+01  0.21392311809E+01  0.50760398706E+01  0.67813289117E+01  0.51100000000E-03 0. -1.
        -11    1    3    3    0    0 -0.24178578142E+02 -0.20603846844E+02 -0.21727705955E+02  0.38486560668E+02  0.51100000000E-03 0.  1.
        -12    1    3    3    0    0 -0.44488810731E+01 -0.13057577485E+01  0.24860079166E+01  0.52609677305E+01  0.00000000000E+00 0.  1.
</event>
<event>
 7    1  0.2900470E-011  0.5052886E+02  0.7816164E-02  0.1300439E+00
        -11   -1    0    0    0    0  0.00000000000E+00  0.00000000000E+00  0.45593999997E+02  0.45594000000E+02  0.51100000000E-03 0.  1.
         11   -1    0    0    0    0 -0.00000000000E+00 -0.00000000000E+00 -0.45593999997E+02  0.45594000000E+02  0.51100000000E-03 0. -1.
    9900012    2    1    2    0    0 -0.23743634639E+02 -0.14992161823E+02  0.29404775453E+02  0.50528856854E+02  0.29999990892E+02 0.  0.
         12    1    1    2    0    0  0.23743634639E+02  0.14992161823E+02 -0.29404775453E+02  0.40659143146E+02  0.00000000000E+00 0. -1.
         11    1    3    3    0    0 -0.69031990190E+01 -0.15372969722E+02  0.56374383813E+00  0.16861202868E+02  0.51100000000E-03 0. -1.
        -11    1    3    3    0    0 -0.11461020234E+02 -0.11201466933E+01  0.16493363090E+02  0.20115683923E+02  0.51100000000E-03 0.  1.
        -12    1    3    3    0    0 -0.53794153861E+01  0.15009545927E+01  0.12347668525E+02  0.13551970063E+02  0.00000000000E+00 0.  1.
</event>
<event>
 7    1  0.2900470E-011  0.5052886E+02  0.7816164E-02  0.1300439E+00
        -11   -1    0    0    0    0  0.00000000000E+00  0.00000000000E+00  0.45593999997E+02  0.45594000000E+02  0.51100000000E-03 0.  1.
         11   -1    0    0    0    0 -0.00000000000E+00 -0.00000000000E+00 -0.45593999997E+02  0.45594000000E+02  0.51100000000E-03 0. -1.
    9900012    2    1    2    0    0 -0.22696677698E+02 -0.31371000779E+02  0.12405099824E+02  0.50528863634E+02  0.30000011502E+02 0.  0.
         12    1    1    2    0    0  0.22696677698E+02  0.31371000779E+02 -0.12405099824E+02  0.40659136366E+02  0.00000000000E+00 0. -1.
         11    1    3    3    0    0  0.75697953806E+00 -0.71965382163E+01 -0.19895401753E+01  0.75047618677E+01  0.51100000000E-03 0. -1.
        -11    1    3    3    0    0 -0.88116692594E+01  0.32867340495E+01  0.39022473455E+01  0.10182125046E+02  0.51100000000E-03 0.  1.
        -12    1    3    3    0    0 -0.14641987976E+02 -0.27461196612E+02  0.10492392654E+02  0.32841976720E+02  0.00000000000E+00 0.  1.
</event>
<event>
 7    1  0.2900470E-011  0.5052887E+02  0.7816164E-02  0.1300439E+00
        -11   -1    0    0    0    0  0.00000000000E+00  0.00000000000E+00  0.45593999997E+02  0.45594000000E+02  0.51100000000E-03 0.  1.
         11   -1    0    0    0    0 -0.00000000000E+00 -0.00000000000E+00 -0.45593999997E+02  0.45594000000E+02  0.51100000000E-03 0. -1.
    9900012    2    1    2    0    0 -0.36039979886E+02  0.17984466239E+02  0.55537017230E+01  0.50528870904E+02  0.30000033599E+02 0.  0.
         12    1    1    2    0    0  0.36039979886E+02 -0.17984466239E+02 -0.55537017230E+01  0.40659129096E+02  0.00000000000E+00 0. -1.
         11    1    3    3    0    0 -0.16972530198E+02 -0.50796885651E+01 -0.41650515328E+01  0.18199386577E+02  0.51100000000E-03 0. -1.
        -11    1    3    3    0    0 -0.98498261672E+01  0.15103545061E+02  0.25881755157E+01  0.18216333376E+02  0.51100000000E-03 0.  1.
         12    1    3    3    0    0 -0.92176235206E+01  0.79606097431E+01  0.71305777400E+01  0.14113150951E+02  0.00000000000E+00 0. -1.
</event>
<event>
 7    1  0.2900470E-011  0.5052885E+02  0.7816164E-02  0.1300439E+00
        -11   -1    0    0    0    0  0.00000000000E+00  0.00000000000E+00  0.45593999997E+02  0.45594000000E+02  0.51100000000E-03 0. -1.
         11   -1    0    0    0    0 -0.00000000000E+00 -0.00000000000E+00 -0.45593999997E+02  0.45594000000E+02  0.51100000000E-03 0.  1.
    9900012    2    1    2    0    0  0.26143382519E+02 -0.97518349439E+01 -0.29573496218E+02  0.50528850810E+02  0.29999972522E+02 0.  0.
         12    1    1    2    0    0 -0.26143382519E+02  0.97518349439E+01  0.29573496218E+02  0.40659149190E+02  0.00000000000E+00 0. -1.
         11    1    3    3    0    0  0.23298761883E+02  0.72726322991E+00 -0.11780636593E+02  0.26117898382E+02  0.51100000000E-03 0. -1.
        -11    1    3    3    0    0  0.64205084056E+01 -0.10786288835E+02 -0.10835364096E+02  0.16582281820E+02  0.51100000000E-03 0.  1.
         12    1    3    3    0    0 -0.35758877700E+01  0.30719066080E+00 -0.69574955291E+01  0.78286706076E+01  0.00000000000E+00 0. -1.
</event>
<event>
 7    1  0.2900470E-011  0.5052887E+02  0.7816164E-02  0.1300439E+00
        -11   -1    0    0    0    0  0.00000000000E+00  0.00000000000E+00  0.45593999997E+02  0.45594000000E+02  0.51100000000E-03 0. -1.
         11   -1    0    0    0    0 -0.00000000000E+00 -0.00000000000E+00 -0.45593999997E+02  0.45594000000E+02  0.51100000000E-03 0.  1.
    9900012    2    1    2    0    0  0.10708287033E+02 -0.21802675588E+02 -0.32605839438E+02  0.50528870159E+02  0.30000031336E+02 0.  0.
         12    1    1    2    0    0 -0.10708287033E+02  0.21802675588E+02  0.32605839438E+02  0.40659129841E+02  0.00000000000E+00 0. -1.
         11    1    3    3    0    0  0.61093008244E+01 -0.89598782298E+01  0.57931823651E+00  0.10859953238E+02  0.51100000000E-03 0. -1.
        -11    1    3    3    0    0  0.30033797976E+01 -0.13217399000E+02 -0.34813186934E+02  0.37358772883E+02  0.51100000000E-03 0.  1.
        -12    1    3    3    0    0  0.15956064108E+01  0.37460164215E+00  0.16280292597E+01  0.23101440386E+01  0.00000000000E+00 0.  1.
</event>
<event>
 7    1  0.2900470E-011  0.5052886E+02  0.7816164E-02  0.1300439E+00
        -11   -1    0    0    0    0  0.00000000000E+00  0.00000000000E+00  0.45593999997E+02  0.45594000000E+02  0.51100000000E-03 0. -1.
         11   -1    0    0    0    0 -0.00000000000E+00 -0.00000000000E+00 -0.45593999997E+02  0.45594000000E+02  0.51100000000E-03 0.  1.
    9900012    2    1    2    0    0 -0.69259370177E+01  0.37726454665E+02  0.13487456593E+02  0.50528862398E+02  0.30000007746E+02 0.  0.
         12    1    1    2    0    0  0.69259370177E+01 -0.37726454665E+02 -0.13487456593E+02  0.40659137602E+02  0.00000000000E+00 0. -1.
         11    1    3    3    0    0 -0.11704231262E+01  0.47051173847E-01  0.11891880549E+02  0.11949432094E+02  0.51100000000E-03 0. -1.
        -11    1    3    3    0    0 -0.16805691599E+00  0.18736577011E+02  0.18469506463E+01  0.18828138203E+02  0.51100000000E-03 0.  1.
         12    1    3    3    0    0 -0.55874569755E+01  0.18942826480E+02 -0.25137460275E+00  0.19751292102E+02  0.00000000000E+00 0. -1.
</event>
<event>
 7    1  0.2900470E-011  0.5052886E+02  0.7816164E-02  0.1300439E+00
        -11   -1    0    0    0    0  0.00000000000E+00  0.00000000000E+00  0.45593999997E+02  0.45594000000E+02  0.51100000000E-03 0. -1.
         11   -1    0    0    0    0 -0.00000000000E+00 -0.00000000000E+00 -0.45593999997E+02  0.45594000000E+02  0.51100000000E-03 0.  1.
    9900012    2    1    2    0    0 -0.76727206161E+01 -0.39333645363E+02  0.68672637785E+01  0.50528860670E+02  0.30000002494E+02 0.  0.
         12    1    1    2    0    0  0.76727206161E+01  0.39333645363E+02 -0.68672637785E+01  0.40659139330E+02  0.00000000000E+00 0. -1.
         11    1    3    3    0    0  0.74279616294E+01 -0.95539886474E+01  0.90711991953E+01  0.15124151816E+02  0.51100000000E-03 0. -1.
        -11    1    3    3    0    0 -0.15245522109E+02 -0.18309107037E+02 -0.22676819755E+01  0.23933067640E+02  0.51100000000E-03 0.  1.
         12    1    3    3    0    0  0.14483986386E+00 -0.11470549679E+02  0.63746558806E-01  0.11471641215E+02  0.00000000000E+00 0. -1.
</event>
<event>
 7    1  0.2900470E-011  0.5052886E+02  0.7816164E-02  0.1300439E+00
        -11   -1    0    0    0    0  0.00000000000E+00  0.00000000000E+00  0.45593999997E+02  0.45594000000E+02  0.51100000000E-03 0.  1.
         11   -1    0    0    0    0 -0.00000000000E+00 -0.00000000000E+00 -0.45593999997E+02  0.45594000000E+02  0.51100000000E-03 0. -1.
    9900012    2    1    2    0    0 -0.83488944442E+00  0.30321534941E+02  0.27075324751E+02  0.50528859184E+02  0.29999997975E+02 0.  0.
         12    1    1    2    0    0  0.83488944442E+00 -0.30321534941E+02 -0.27075324751E+02  0.40659140816E+02  0.00000000000E+00 0. -1.
         11    1    3    3    0    0  0.11168221782E+02  0.96295149309E+01  0.50842484713E+01  0.15598279340E+02  0.51100000000E-03 0. -1.
        -11    1    3    3    0    0 -0.56786388846E+01  0.19794243500E+02  0.15110153433E+02  0.25541647409E+02  0.51100000000E-03 0.  1.
         12    1    3    3    0    0 -0.63244723418E+01  0.89777650997E+00  0.68809228462E+01  0.93889324355E+01  0.00000000000E+00 0. -1.
</event>
<event>
 7    1  0.2900470E-011  0.5052881E+02  0.7816164E-02  0.1300439E+00
        -11   -1    0    0    0    0  0.00000000000E+00  0.00000000000E+00  0.45593999997E+02  0.45594000000E+02  0.51100000000E-03 0.  1.
         11   -1    0    0    0    0 -0.00000000000E+00 -0.00000000000E+00 -0.45593999997E+02  0.45594000000E+02  0.51100000000E-03 0. -1.
    9900012    2    1    2    0    0 -0.97940163011E+01  0.23257265495E+02  0.31880187257E+02  0.50528812931E+02  0.29999857385E+02 0.  0.
         12    1    1    2    0    0  0.97940163011E+01 -0.23257265495E+02 -0.31880187257E+02  0.40659187069E+02  0.00000000000E+00 0. -1.
         11    1    3    3    0    0 -0.16533737781E+02  0.20053129327E+02  0.19750935472E+02  0.32643405661E+02  0.51100000000E-03 0. -1.
        -11    1    3    3    0    0 -0.13686654673E+00  0.56330019068E+01  0.37083789025E+01  0.67454812489E+01  0.51100000000E-03 0.  1.
         12    1    3    3    0    0  0.68765880270E+01 -0.24288657391E+01  0.84208728819E+01  0.11139926021E+02  0.00000000000E+00 0. -1.
</event>
<event>
 7    1  0.2900470E-011  0.5052886E+02  0.7816164E-02  0.1300439E+00
        -11   -1    0    0    0    0  0.00000000000E+00  0.00000000000E+00  0.45593999997E+02  0.45594000000E+02  0.51100000000E-03 0.  1.
         11   -1    0    0    0    0 -0.00000000000E+00 -0.00000000000E+00 -0.45593999997E+02  0.45594000000E+02  0.51100000000E-03 0. -1.
    9900012    2    1    2    0    0  0.11391216845E+01  0.46626012762E+01  0.40374843043E+02  0.50528863270E+02  0.30000010396E+02 0.  0.
         12    1    1    2    0    0 -0.11391216845E+01 -0.46626012762E+01 -0.40374843043E+02  0.40659136730E+02  0.00000000000E+00 0. -1.
         11    1    3    3    0    0  0.51459809459E+01  0.33354293525E+01 -0.19164685680E+01  0.64248782785E+01  0.51100000000E-03 0. -1.
        -11    1    3    3    0    0 -0.65699311223E+01  0.45436148529E+01  0.22132112045E+02  0.23529530695E+02  0.51100000000E-03 0.  1.
         12    1    3    3    0    0  0.25630718609E+01 -0.32164429292E+01  0.20159199566E+02  0.20574454297E+02  0.00000000000E+00 0. -1.
</event>
<event>
 7    1  0.2900470E-011  0.5052887E+02  0.7816164E-02  0.1300439E+00
        -11   -1    0    0    0    0  0.00000000000E+00  0.00000000000E+00  0.45593999997E+02  0.45594000000E+02  0.51100000000E-03 0.  1.
         11   -1    0    0    0    0 -0.00000000000E+00 -0.00000000000E+00 -0.45593999997E+02  0.45594000000E+02  0.51100000000E-03 0. -1.
    9900012    2    1    2    0    0 -0.10487164139E+02  0.15029573160E+02  0.36294578860E+02  0.50528866516E+02  0.30000020261E+02 0.  0.
         12    1    1    2    0    0  0.10487164139E+02 -0.15029573160E+02 -0.36294578860E+02  0.40659133484E+02  0.00000000000E+00 0. -1.
         11    1    3    3    0    0  0.28774676849E+01  0.33437321707E+01  0.19100964029E+02  0.19603754543E+02  0.51100000000E-03 0. -1.
        -11    1    3    3    0    0 -0.56875909147E+01  0.15896445277E+02  0.10259937557E+02  0.19756314985E+02  0.51100000000E-03 0.  1.
         12    1    3    3    0    0 -0.76770409094E+01 -0.42106042879E+01  0.69336772750E+01  0.11168796987E+02  0.00000000000E+00 0. -1.
</event>
<event>
 7    1  0.2900470E-011  0.5052881E+02  0.7816164E-02  0.1300439E+00
        -11   -1    0    0    0    0  0.00000000000E+00  0.00000000000E+00  0.45593999997E+02  0.45594000000E+02  0.51100000000E-03 0.  1.
         11   -1    0    0    0    0 -0.00000000000E+00 -0.00000000000E+00 -0.45593999997E+02  0.45594000000E+02  0.51100000000E-03 0. -1.
    9900012    2    1    2    0    0  0.31372195725E+02 -0.25863146528E+02 -0.23025681158E+00  0.50528806315E+02  0.29999837275E+02 0.  0.
         12    1    1    2    0    0 -0.31372195725E+02  0.25863146528E+02  0.23025681158E+00  0.40659193685E+02  0.00000000000E+00 0. -1.
         11    1    3    3    0    0  0.23990805903E+02 -0.27983147963E+02 -0.81486433634E+01  0.37749380481E+02  0.51100000000E-03 0. -1.
        -11    1    3    3    0    0  0.15363748929E+00  0.27681923570E+01  0.20944439296E+01  0.34746494843E+01  0.51100000000E-03 0.  1.
         12    1    3    3    0    0  0.72277523326E+01 -0.64819092155E+00  0.58239426222E+01  0.93047763497E+01  0.00000000000E+00 0. -1.
</event>
<event>
 7    1  0.2900470E-011  0.5052886E+02  0.7816164E-02  0.1300439E+00
        -11   -1    0    0    0    0  0.00000000000E+00  0.00000000000E+00  0.45593999997E+02  0.45594000000E+02  0.51100000000E-03 0.  1.
         11   -1    0    0    0    0 -0.00000000000E+00 -0.00000000000E+00 -0.45593999997E+02  0.45594000000E+02  0.51100000000E-03 0. -1.
    9900012    2    1    2    0    0  0.18860037014E+02 -0.18164528708E+01  0.35974505221E+02  0.50528861751E+02  0.30000005780E+02 0.  0.
         12    1    1    2    0    0 -0.18860037014E+02  0.18164528708E+01 -0.35974505221E+02  0.40659138249E+02  0.00000000000E+00 0. -1.
         11    1    3    3    0    0  0.11333136811E+02  0.52962427179E+01  0.19765916716E+01  0.12664797346E+02  0.51100000000E-03 0. -1.
        -11    1    3    3    0    0  0.10113269090E+02 -0.18896624438E+01  0.16742962944E+02  0.19651357313E+02  0.51100000000E-03 0.  1.
         12    1    3    3    0    0 -0.25863688867E+01 -0.52230331450E+01  0.17254950606E+02  0.18212707093E+02  0.00000000000E+00 0. -1.
</event>
<event>
 7    1  0.2900470E-011  0.5052886E+02  0.7816164E-02  0.1300439E+00
        -11   -1    0    0    0    0  0.00000000000E+00  0.00000000000E+00  0.45593999997E+02  0.45594000000E+02  0.51100000000E-03 0.  1.
         11   -1    0    0    0    0 -0.00000000000E+00 -0.00000000000E+00 -0.45593999997E+02  0.45594000000E+02  0.51100000000E-03 0. -1.
    9900012    2    1    2    0    0 -0.81028470289E+01  0.35164323789E+02  0.18734458005E+02  0.50528859401E+02  0.29999998634E+02 0.  0.
         12    1    1    2    0    0  0.81028470289E+01 -0.35164323789E+02 -0.18734458005E+02  0.40659140599E+02  0.00000000000E+00 0. -1.
         11    1    3    3    0    0 -0.11780961049E+02  0.34193022936E+02  0.91635409947E+01  0.37308502309E+02  0.51100000000E-03 0. -1.
        -11    1    3    3    0    0  0.38530081510E+01  0.35372973112E+01  0.92527444820E+01  0.10628801663E+02  0.51100000000E-03 0.  1.
         12    1    3    3    0    0 -0.17489413110E+00 -0.25659964582E+01  0.31817252866E+00  0.25915554285E+01  0.00000000000E+00 0. -1.
</event>
<event>
 7    1  0.2900470E-011  0.5052887E+02  0.7816164E-02  0.1300439E+00
        -11   -1    0    0    0    0  0.00000000000E+00  0.00000000000E+00  0.45593999997E+02  0.45594000000E+02  0.51100000000E-03 0. -1.
         11   -1    0    0    0    0 -0.00000000000E+00 -0.00000000000E+00 -0.45593999997E+02  0.45594000000E+02  0.51100000000E-03 0.  1.
    9900012    2    1    2    0    0 -0.23286660000E+02  0.14233542070E+00 -0.33329812688E+02  0.50528865637E+02  0.30000017591E+02 0.  0.
         12    1    1    2    0    0  0.23286660000E+02 -0.14233542070E+00  0.33329812688E+02  0.40659134363E+02  0.00000000000E+00 0. -1.
         11    1    3    3    0    0 -0.14603973670E+02  0.11812061213E+01 -0.37380906387E+00  0.14656433002E+02  0.51100000000E-03 0. -1.
        -11    1    3    3    0    0 -0.91525901099E+01 -0.19568570697E+01 -0.33445853587E+02  0.34730740241E+02  0.51100000000E-03 0.  1.
        -12    1    3    3    0    0  0.46990378049E+00  0.91798636906E+00  0.48984996275E+00  0.11416923941E+01  0.00000000000E+00 0.  1.
</event>
<event>
 7    1  0.2900470E-011  0.5052886E+02  0.7816164E-02  0.1300439E+00
        -11   -1    0    0    0    0  0.00000000000E+00  0.00000000000E+00  0.45593999997E+02  0.45594000000E+02  0.51100000000E-03 0.  1.
         11   -1    0    0    0    0 -0.00000000000E+00 -0.00000000000E+00 -0.45593999997E+02  0.45594000000E+02  0.51100000000E-03 0. -1.
    9900012    2    1    2    0    0  0.25398294742E+02 -0.19117304550E+02  0.25349966817E+02  0.50528861708E+02  0.30000005647E+02 0.  0.
         12    1    1    2    0    0 -0.25398294742E+02  0.19117304550E+02 -0.25349966817E+02  0.40659138292E+02  0.00000000000E+00 0. -1.
         11    1    3    3    0    0  0.15627358158E+02 -0.68109156077E+01  0.25499354690E+02  0.30672788988E+02  0.51100000000E-03 0. -1.
        -11    1    3    3    0    0  0.69672766762E+01 -0.50579760332E+01 -0.56825193910E+01  0.10315866068E+02  0.51100000000E-03 0.  1.
         12    1    3    3    0    0  0.28036599080E+01 -0.72484129087E+01  0.55331315176E+01  0.95402066521E+01  0.00000000000E+00 0. -1.
</event>
<event>
 7    1  0.2900470E-011  0.5052885E+02  0.7816164E-02  0.1300439E+00
        -11   -1    0    0    0    0  0.00000000000E+00  0.00000000000E+00  0.45593999997E+02  0.45594000000E+02  0.51100000000E-03 0.  1.
         11   -1    0    0    0    0 -0.00000000000E+00 -0.00000000000E+00 -0.45593999997E+02  0.45594000000E+02  0.51100000000E-03 0. -1.
    9900012    2    1    2    0    0 -0.94751177383E-01  0.16370764302E+02  0.37217674466E+02  0.50528853498E+02  0.29999980692E+02 0.  0.
         12    1    1    2    0    0  0.94751177383E-01 -0.16370764302E+02 -0.37217674466E+02  0.40659146502E+02  0.00000000000E+00 0. -1.
         11    1    3    3    0    0  0.13155093956E+02  0.22910958872E+01  0.13956727521E+02  0.19315689496E+02  0.51100000000E-03 0. -1.
        -11    1    3    3    0    0 -0.10220190015E+02  0.93610100604E+01  0.21012727981E+02  0.25171720854E+02  0.51100000000E-03 0.  1.
         12    1    3    3    0    0 -0.30296551177E+01  0.47186583547E+01  0.22482189643E+01  0.60414431481E+01  0.00000000000E+00 0. -1.
</event>
<event>
 7    1  0.2900470E-011  0.5052886E+02  0.7816164E-02  0.1300439E+00
        -11   -1    0    0    0    0  0.00000000000E+00  0.00000000000E+00  0.45593999997E+02  0.45594000000E+02  0.51100000000E-03 0. -1.
         11   -1    0    0    0    0 -0.00000000000E+00 -0.00000000000E+00 -0.45593999997E+02  0.45594000000E+02  0.51100000000E-03 0.  1.
    9900012    2    1    2    0    0  0.52666926093E+01 -0.33976539442E+02 -0.21703047806E+02  0.50528861204E+02  0.30000004117E+02 0.  0.
         12    1    1    2    0    0 -0.52666926093E+01  0.33976539442E+02  0.21703047806E+02  0.40659138796E+02  0.00000000000E+00 0. -1.
         11    1    3    3    0    0 -0.48830613211E+01 -0.66594482222E+01 -0.14121646196E+02  0.16358894524E+02  0.51100000000E-03 0.  1.
        -11    1    3    3    0    0  0.13809576684E+02 -0.25109324960E+02 -0.47609594343E+01  0.29049085066E+02  0.51100000000E-03 0. -1.
         12    1    3    3    0    0 -0.36598227539E+01 -0.22077662600E+01 -0.28204421756E+01  0.51208816150E+01  0.00000000000E+00 0. -1.
</event>
<event>
 7    1  0.2900470E-011  0.5052886E+02  0.7816164E-02  0.1300439E+00
        -11   -1    0    0    0    0  0.00000000000E+00  0.00000000000E+00  0.45593999997E+02  0.45594000000E+02  0.51100000000E-03 0.  1.
         11   -1    0    0    0    0 -0.00000000000E+00 -0.00000000000E+00 -0.45593999997E+02  0.45594000000E+02  0.51100000000E-03 0. -1.
    9900012    2    1    2    0    0 -0.35177112132E+02 -0.19964044773E+02 -0.41440950520E+01  0.50528858033E+02  0.29999994479E+02 0.  0.
         12    1    1    2    0    0  0.35177112132E+02  0.19964044773E+02  0.41440950520E+01  0.40659141967E+02  0.00000000000E+00 0. -1.
         11    1    3    3    0    0 -0.18493973891E+01 -0.29929136740E+01 -0.11696566754E+02  0.12214232561E+02  0.51100000000E-03 0. -1.
        -11    1    3    3    0    0 -0.57274679945E+01 -0.15071157084E+01  0.13763943264E+01  0.60802754041E+01  0.51100000000E-03 0.  1.
         12    1    3    3    0    0 -0.27600246749E+02 -0.15464015390E+02  0.61760773756E+01  0.32234350068E+02  0.00000000000E+00 0. -1.
</event>
<event>
 7    1  0.2900470E-011  0.5052887E+02  0.7816164E-02  0.1300439E+00
        -11   -1    0    0    0    0  0.00000000000E+00  0.00000000000E+00  0.45593999997E+02  0.45594000000E+02  0.51100000000E-03 0. -1.
         11   -1    0    0    0    0 -0.00000000000E+00 -0.00000000000E+00 -0.45593999997E+02  0.45594000000E+02  0.51100000000E-03 0.  1.
    9900012    2    1    2    0    0 -0.31337984623E+02  0.14493320450E+02 -0.21471832870E+02  0.50528865421E+02  0.30000016934E+02 0.  0.
         12    1    1    2    0    0  0.31337984623E+02 -0.14493320450E+02  0.21471832870E+02  0.40659134579E+02  0.00000000000E+00 0. -1.
         11    1    3    3    0    0 -0.47494285882E+01  0.13833432432E+02 -0.12075772697E+02  0.18966950500E+02  0.51100000000E-03 0. -1.
        -11    1    3    3    0    0 -0.10663336288E+02  0.53584326716E+01  0.99373233906E+00  0.11975268085E+02  0.51100000000E-03 0.  1.
         12    1    3    3    0    0 -0.15925219747E+02 -0.46985446533E+01 -0.10389792512E+02  0.19586646836E+02  0.00000000000E+00 0. -1.
</event>
<event>
 7    1  0.2900470E-011  0.5052885E+02  0.7816164E-02  0.1300439E+00
        -11   -1    0    0    0    0  0.00000000000E+00  0.00000000000E+00  0.45593999997E+02  0.45594000000E+02  0.51100000000E-03 0.  1.
         11   -1    0    0    0    0 -0.00000000000E+00 -0.00000000000E+00 -0.45593999997E+02  0.45594000000E+02  0.51100000000E-03 0. -1.
    9900012    2    1    2    0    0 -0.33811680296E+02 -0.36925230519E+01  0.22277828871E+02  0.50528854533E+02  0.29999983837E+02 0.  0.
         12    1    1    2    0    0  0.33811680296E+02  0.36925230519E+01 -0.22277828871E+02  0.40659145467E+02  0.00000000000E+00 0. -1.
         11    1    3    3    0    0  0.38336221343E+01  0.13525095301E+01  0.38992195085E+01  0.56329258591E+01  0.51100000000E-03 0. -1.
        -11    1    3    3    0    0 -0.37511186388E+02 -0.36092428160E+01  0.13859350857E+02  0.40152177331E+02  0.51100000000E-03 0.  1.
        -12    1    3    3    0    0 -0.13411604200E+00 -0.14357897661E+01  0.45192585049E+01  0.47437513425E+01  0.00000000000E+00 0.  1.
</event>
<event>
 7    1  0.2900470E-011  0.5052885E+02  0.7816164E-02  0.1300439E+00
        -11   -1    0    0    0    0  0.00000000000E+00  0.00000000000E+00  0.45593999997E+02  0.45594000000E+02  0.51100000000E-03 0.  1.
         11   -1    0    0    0    0 -0.00000000000E+00 -0.00000000000E+00 -0.45593999997E+02  0.45594000000E+02  0.51100000000E-03 0. -1.
    9900012    2    1    2    0    0 -0.18461813159E+02  0.35827642736E+02  0.53579435794E+01  0.50528854799E+02  0.29999984646E+02 0.  0.
         12    1    1    2    0    0  0.18461813159E+02 -0.35827642736E+02 -0.53579435794E+01  0.40659145201E+02  0.00000000000E+00 0. -1.
         11    1    3    3    0    0 -0.18399870702E+02  0.11374115139E+02 -0.64509799803E+01  0.22573012205E+02  0.51100000000E-03 0. -1.
        -11    1    3    3    0    0  0.15168036728E+01  0.14139017595E+02  0.99534493768E+01  0.17357524786E+02  0.51100000000E-03 0.  1.
         12    1    3    3    0    0 -0.15787461299E+01  0.10314510002E+02  0.18554741829E+01  0.10598317808E+02  0.00000000000E+00 0. -1.
</event>
<event>
 7    1  0.2900470E-011  0.5052887E+02  0.7816164E-02  0.1300439E+00
        -11   -1    0    0    0    0  0.00000000000E+00  0.00000000000E+00  0.45593999997E+02  0.45594000000E+02  0.51100000000E-03 0. -1.
         11   -1    0    0    0    0 -0.00000000000E+00 -0.00000000000E+00 -0.45593999997E+02  0.45594000000E+02  0.51100000000E-03 0.  1.
    9900012    2    1    2    0    0  0.24817433601E+02 -0.27763483538E+02 -0.16323272205E+02  0.50528865182E+02  0.30000016206E+02 0.  0.
         12    1    1    2    0    0 -0.24817433601E+02  0.27763483538E+02  0.16323272205E+02  0.40659134818E+02  0.00000000000E+00 0. -1.
         11    1    3    3    0    0  0.38906220180E+01  0.43069261295E+01 -0.74354910916E+01  0.94325542886E+01  0.51100000000E-03 0. -1.
        -11    1    3    3    0    0  0.98838091827E+01 -0.21384784950E+02 -0.44379649042E+00  0.23562590411E+02  0.51100000000E-03 0.  1.
        -12    1    3    3    0    0  0.11043002400E+02 -0.10685624718E+02 -0.84439846234E+01  0.17533720482E+02  0.00000000000E+00 0.  1.
</event>
<event>
 7    1  0.2900470E-011  0.5052886E+02  0.7816164E-02  0.1300439E+00
        -11   -1    0    0    0    0  0.00000000000E+00  0.00000000000E+00  0.45593999997E+02  0.45594000000E+02  0.51100000000E-03 0.  1.
         11   -1    0    0    0    0 -0.00000000000E+00 -0.00000000000E+00 -0.45593999997E+02  0.45594000000E+02  0.51100000000E-03 0. -1.
    9900012    2    1    2    0    0 -0.14292802085E+02 -0.33674555215E+02  0.17745585934E+02  0.50528859815E+02  0.29999999895E+02 0.  0.
         12    1    1    2    0    0  0.14292802085E+02  0.33674555215E+02 -0.17745585934E+02  0.40659140185E+02  0.00000000000E+00 0. -1.
         11    1    3    3    0    0 -0.49886856930E+01 -0.14643811915E+02  0.17444660107E+02  0.23316182767E+02  0.51100000000E-03 0.  1.
        -11    1    3    3    0    0 -0.95237439091E+01 -0.21698933323E+02  0.23895420016E+01  0.23817122342E+02  0.51100000000E-03 0. -1.
         12    1    3    3    0    0  0.21962751721E+00  0.26681900225E+01 -0.20886161739E+01  0.33955547064E+01  0.00000000000E+00 0. -1.
</event>
<event>
 7    1  0.2900470E-011  0.5052886E+02  0.7816164E-02  0.1300439E+00
        -11   -1    0    0    0    0  0.00000000000E+00  0.00000000000E+00  0.45593999997E+02  0.45594000000E+02  0.51100000000E-03 0.  1.
         11   -1    0    0    0    0 -0.00000000000E+00 -0.00000000000E+00 -0.45593999997E+02  0.45594000000E+02  0.51100000000E-03 0. -1.
    9900012    2    1    2    0    0 -0.54080148258E+01 -0.40217152972E+02  0.25494083139E+01  0.50528862032E+02  0.30000006633E+02 0.  0.
         12    1    1    2    0    0  0.54080148258E+01  0.40217152972E+02 -0.25494083139E+01  0.40659137968E+02  0.00000000000E+00 0. -1.
         11    1    3    3    0    0 -0.15354916035E+02 -0.30584393325E+02  0.67096433620E+01  0.34874028672E+02  0.51100000000E-03 0.  1.
        -11    1    3    3    0    0  0.66596867542E+01 -0.97433828802E+01 -0.33257860641E+01  0.12261557439E+02  0.51100000000E-03 0. -1.
        -12    1    3    3    0    0  0.32872144552E+01  0.11062323282E+00 -0.83444898392E+00  0.33932759218E+01  0.00000000000E+00 0.  1.
</event>
<event>
 7    1  0.2900470E-011  0.5052885E+02  0.7816164E-02  0.1300439E+00
        -11   -1    0    0    0    0  0.00000000000E+00  0.00000000000E+00  0.45593999997E+02  0.45594000000E+02  0.51100000000E-03 0. -1.
         11   -1    0    0    0    0 -0.00000000000E+00 -0.00000000000E+00 -0.45593999997E+02  0.45594000000E+02  0.51100000000E-03 0.  1.
    9900012    2    1    2    0    0  0.26199965070E+02  0.27948713717E+02 -0.13623419777E+02  0.50528851773E+02  0.29999975451E+02 0.  0.
         12    1    1    2    0    0 -0.26199965070E+02 -0.27948713717E+02  0.13623419777E+02  0.40659148227E+02  0.00000000000E+00 0. -1.
         11    1    3    3    0    0  0.16706928596E+02  0.67114622701E+01 -0.14077851406E+02  0.22855001408E+02  0.51100000000E-03 0. -1.
        -11    1    3    3    0    0  0.10286726520E+02  0.97045315331E+01  0.53498229037E+01  0.15120029105E+02  0.51100000000E-03 0.  1.
         12    1    3    3    0    0 -0.79369004601E+00  0.11532719914E+02 -0.48953912747E+01  0.12553821260E+02  0.00000000000E+00 0. -1.
</event>
<event>
 7    1  0.2900470E-011  0.5052887E+02  0.7816164E-02  0.1300439E+00
        -11   -1    0    0    0    0  0.00000000000E+00  0.00000000000E+00  0.45593999997E+02  0.45594000000E+02  0.51100000000E-03 0.  1.
         11   -1    0    0    0    0 -0.00000000000E+00 -0.00000000000E+00 -0.45593999997E+02  0.45594000000E+02  0.51100000000E-03 0. -1.
    9900012    2    1    2    0    0 -0.25205498463E+02  0.39125632430E+01  0.31662905267E+02  0.50528869736E+02  0.30000030050E+02 0.  0.
         12    1    1    2    0    0  0.25205498463E+02 -0.39125632430E+01 -0.31662905267E+02  0.40659130264E+02  0.00000000000E+00 0. -1.
         11    1    3    3    0    0 -0.19817663583E+01 -0.95925449821E+01  0.16743284834E+02  0.19397987123E+02  0.51100000000E-03 0. -1.
        -11    1    3    3    0    0 -0.81723481127E+01  0.24759035493E+01  0.60843611483E+01  0.10485076199E+02  0.51100000000E-03 0.  1.
         12    1    3    3    0    0 -0.15051383992E+02  0.11029204676E+02  0.88352592848E+01  0.20645806414E+02  0.00000000000E+00 0. -1.
</event>
<event>
 7    1  0.2900470E-011  0.5052886E+02  0.7816164E-02  0.1300439E+00
        -11   -1    0    0    0    0  0.00000000000E+00  0.00000000000E+00  0.45593999997E+02  0.45594000000E+02  0.51100000000E-03 0.  1.
         11   -1    0    0    0    0 -0.00000000000E+00 -0.00000000000E+00 -0.45593999997E+02  0.45594000000E+02  0.51100000000E-03 0. -1.
    9900012    2    1    2    0    0 -0.14324972976E+02  0.23492166037E+01  0.37979499681E+02  0.50528855082E+02  0.29999985508E+02 0.  0.
         12    1    1    2    0    0  0.14324972976E+02 -0.23492166037E+01 -0.37979499681E+02  0.40659144918E+02  0.00000000000E+00 0. -1.
         11    1    3    3    0    0 -0.11878632582E+02  0.90688656795E+01  0.33824820637E+02  0.36979247263E+02  0.51100000000E-03 0. -1.
        -11    1    3    3    0    0  0.27390009994E+01 -0.45926608672E+01 -0.15347459767E+01  0.55632819262E+01  0.51100000000E-03 0.  1.
        -12    1    3    3    0    0 -0.51853413936E+01 -0.21269882086E+01  0.56894250208E+01  0.79863258933E+01  0.00000000000E+00 0.  1.
</event>
<event>
 7    1  0.2900470E-011  0.5052888E+02  0.7816164E-02  0.1300439E+00
        -11   -1    0    0    0    0  0.00000000000E+00  0.00000000000E+00  0.45593999997E+02  0.45594000000E+02  0.51100000000E-03 0.  1.
         11   -1    0    0    0    0 -0.00000000000E+00 -0.00000000000E+00 -0.45593999997E+02  0.45594000000E+02  0.51100000000E-03 0. -1.
    9900012    2    1    2    0    0  0.22095917400E+02 -0.30668153525E+02 -0.14979943444E+02  0.50528881564E+02  0.30000066002E+02 0.  0.
         12    1    1    2    0    0 -0.22095917400E+02  0.30668153525E+02  0.14979943444E+02  0.40659118436E+02  0.00000000000E+00 0. -1.
         11    1    3    3    0    0  0.15307764251E+01 -0.70799249170E+00 -0.88478640786E+01  0.90071765192E+01  0.51100000000E-03 0. -1.
        -11    1    3    3    0    0  0.24111610093E+02 -0.23409216698E+02 -0.53907968314E+01  0.34035596931E+02  0.51100000000E-03 0.  1.
         12    1    3    3    0    0 -0.35464691184E+01 -0.65509443361E+01 -0.74128253414E+00  0.74861081142E+01  0.00000000000E+00 0. -1.
</event>
<event>
 7    1  0.2900470E-011  0.5052886E+02  0.7816164E-02  0.1300439E+00
        -11   -1    0    0    0    0  0.00000000000E+00  0.00000000000E+00  0.45593999997E+02  0.45594000000E+02  0.51100000000E-03 0.  1.
         11   -1    0    0    0    0 -0.00000000000E+00 -0.00000000000E+00 -0.45593999997E+02  0.45594000000E+02  0.51100000000E-03 0. -1.
    9900012    2    1    2    0    0  0.38002590171E+02  0.38337463820E+01  0.13938127663E+02  0.50528857440E+02  0.29999992673E+02 0.  0.
         12    1    1    2    0    0 -0.38002590171E+02 -0.38337463820E+01 -0.13938127663E+02  0.40659142560E+02  0.00000000000E+00 0. -1.
         11    1    3    3    0    0  0.12547149531E+01  0.77511264157E+01  0.76186113427E+00  0.78888974498E+01  0.51100000000E-03 0. -1.
        -11    1    3    3    0    0  0.14575756292E+02 -0.97988562439E+01  0.46582702215E+01  0.18170573378E+02  0.51100000000E-03 0.  1.
        -12    1    3    3    0    0  0.22172118925E+02  0.58814762102E+01  0.85179963067E+01  0.24469386611E+02  0.00000000000E+00 0.  1.
</event>
<event>
 7    1  0.2900470E-011  0.5052885E+02  0.7816164E-02  0.1300439E+00
        -11   -1    0    0    0    0  0.00000000000E+00  0.00000000000E+00  0.45593999997E+02  0.45594000000E+02  0.51100000000E-03 0.  1.
         11   -1    0    0    0    0 -0.00000000000E+00 -0.00000000000E+00 -0.45593999997E+02  0.45594000000E+02  0.51100000000E-03 0. -1.
    9900012    2    1    2    0    0  0.12318328593E+02 -0.21504178329E+02  0.32233456072E+02  0.50528848567E+02  0.29999965703E+02 0.  0.
         12    1    1    2    0    0 -0.12318328593E+02  0.21504178329E+02 -0.32233456072E+02  0.40659151433E+02  0.00000000000E+00 0. -1.
         11    1    3    3    0    0  0.15534953388E+02 -0.69517624866E+01  0.43041044538E+01  0.17555258296E+02  0.51100000000E-03 0. -1.
        -11    1    3    3    0    0  0.11872521372E+01 -0.10565547544E+02  0.12327416197E+02  0.16278991152E+02  0.51100000000E-03 0.  1.
         12    1    3    3    0    0 -0.44038769326E+01 -0.39868682984E+01  0.15601935421E+02  0.16694599119E+02  0.00000000000E+00 0. -1.
</event>
<event>
 7    1  0.2900470E-011  0.5052897E+02  0.7816164E-02  0.1300438E+00
        -11   -1    0    0    0    0  0.00000000000E+00  0.00000000000E+00  0.45593999997E+02  0.45594000000E+02  0.51100000000E-03 0. -1.
         11   -1    0    0    0    0 -0.00000000000E+00 -0.00000000000E+00 -0.45593999997E+02  0.45594000000E+02  0.51100000000E-03 0.  1.
    9900012    2    1    2    0    0 -0.33046283454E+02  0.23152995148E+02  0.50038902967E+01  0.50528967147E+02  0.30000326137E+02 0.  0.
         12    1    1    2    0    0  0.33046283454E+02 -0.23152995148E+02 -0.50038902967E+01  0.40659032853E+02  0.00000000000E+00 0. -1.
         11    1    3    3    0    0 -0.50567628504E+01  0.68535033751E+01 -0.10178294421E+02  0.13271738267E+02  0.51100000000E-03 0. -1.
        -11    1    3    3    0    0 -0.25840434227E+02  0.17590140748E+02  0.12734682477E+02  0.33753714324E+02  0.51100000000E-03 0.  1.
         12    1    3    3    0    0 -0.21490863766E+01 -0.12906489750E+01  0.24475022403E+01  0.35035145564E+01  0.00000000000E+00 0. -1.
</event>
<event>
 7    1  0.2900470E-011  0.5052886E+02  0.7816164E-02  0.1300439E+00
        -11   -1    0    0    0    0  0.00000000000E+00  0.00000000000E+00  0.45593999997E+02  0.45594000000E+02  0.51100000000E-03 0.  1.
         11   -1    0    0    0    0 -0.00000000000E+00 -0.00000000000E+00 -0.45593999997E+02  0.45594000000E+02  0.51100000000E-03 0. -1.
    9900012    2    1    2    0    0  0.40529814976E+02  0.11488858943E+01  0.30298823735E+01  0.50528855543E+02  0.29999986909E+02 0.  0.
         12    1    1    2    0    0 -0.40529814976E+02 -0.11488858943E+01 -0.30298823735E+01  0.40659144457E+02  0.00000000000E+00 0. -1.
         11    1    3    3    0    0  0.10451534830E+02 -0.11143172370E+01 -0.61422762622E+01  0.12173899998E+02  0.51100000000E-03 0. -1.
        -11    1    3    3    0    0 -0.23629024348E+01  0.22815301914E+01  0.45117412645E+01  0.55807255290E+01  0.51100000000E-03 0.  1.
        -12    1    3    3    0    0  0.32441182580E+02 -0.18327060124E-01  0.46604173713E+01  0.32774230016E+02  0.00000000000E+00 0.  1.
</event>
<event>
 7    1  0.2900470E-011  0.5052886E+02  0.7816164E-02  0.1300439E+00
        -11   -1    0    0    0    0  0.00000000000E+00  0.00000000000E+00  0.45593999997E+02  0.45594000000E+02  0.51100000000E-03 0. -1.
         11   -1    0    0    0    0 -0.00000000000E+00 -0.00000000000E+00 -0.45593999997E+02  0.45594000000E+02  0.51100000000E-03 0.  1.
    9900012    2    1    2    0    0  0.20008136374E+02  0.31026484018E+01  0.35259236974E+02  0.50528859081E+02  0.29999997664E+02 0.  0.
         12    1    1    2    0    0 -0.20008136374E+02 -0.31026484018E+01 -0.35259236974E+02  0.40659140919E+02  0.00000000000E+00 0. -1.
         11    1    3    3    0    0  0.30621494770E+01 -0.10454479401E+02  0.92408067503E+01  0.14285146434E+02  0.51100000000E-03 0. -1.
        -11    1    3    3    0    0  0.32896366467E+01  0.43487335776E+01  0.32638571834E-02  0.54528161450E+01  0.51100000000E-03 0.  1.
         12    1    3    3    0    0  0.13656350251E+02  0.92083942257E+01  0.26015166366E+02  0.30790896503E+02  0.00000000000E+00 0. -1.
</event>
<event>
 7    1  0.2900470E-011  0.5052885E+02  0.7816164E-02  0.1300439E+00
        -11   -1    0    0    0    0  0.00000000000E+00  0.00000000000E+00  0.45593999997E+02  0.45594000000E+02  0.51100000000E-03 0.  1.
         11   -1    0    0    0    0 -0.00000000000E+00 -0.00000000000E+00 -0.45593999997E+02  0.45594000000E+02  0.51100000000E-03 0. -1.
    9900012    2    1    2    0    0  0.63921544161E+01 -0.13208838950E+02  0.37918768988E+02  0.50528854583E+02  0.29999983990E+02 0.  0.
         12    1    1    2    0    0 -0.63921544161E+01  0.13208838950E+02 -0.37918768988E+02  0.40659145417E+02  0.00000000000E+00 0. -1.
         11    1    3    3    0    0 -0.46079306325E+01 -0.13775818335E+02  0.16512746512E+02  0.21992657710E+02  0.51100000000E-03 0.  1.
        -11    1    3    3    0    0  0.50855332735E+01  0.78122120249E+01  0.12736840176E+02  0.15783548503E+02  0.51100000000E-03 0. -1.
        -12    1    3    3    0    0  0.59145517750E+01 -0.72452326398E+01  0.86691823002E+01  0.12752648370E+02  0.00000000000E+00 0.  1.
</event>
<event>
 7    1  0.2900470E-011  0.5052888E+02  0.7816164E-02  0.1300439E+00
        -11   -1    0    0    0    0  0.00000000000E+00  0.00000000000E+00  0.45593999997E+02  0.45594000000E+02  0.51100000000E-03 0.  1.
         11   -1    0    0    0    0 -0.00000000000E+00 -0.00000000000E+00 -0.45593999997E+02  0.45594000000E+02  0.51100000000E-03 0. -1.
    9900012    2    1    2    0    0  0.79949979941E+01  0.35048379931E+02  0.18996191479E+02  0.50528877783E+02  0.30000054510E+02 0.  0.
         12    1    1    2    0    0 -0.79949979941E+01 -0.35048379931E+02 -0.18996191479E+02  0.40659122217E+02  0.00000000000E+00 0. -1.
         11    1    3    3    0    0  0.83926735382E+01  0.21016900945E+02  0.15756549861E+01  0.22685453122E+02  0.51100000000E-03 0. -1.
        -11    1    3    3    0    0  0.23371928138E+01  0.12194062919E+02  0.20080458468E+02  0.23608948585E+02  0.51100000000E-03 0.  1.
         12    1    3    3    0    0 -0.27348683579E+01  0.18374160668E+01 -0.26599219744E+01  0.42344760771E+01  0.00000000000E+00 0. -1.
</event>
<event>
 7    1  0.2900470E-011  0.5052885E+02  0.7816164E-02  0.1300439E+00
        -11   -1    0    0    0    0  0.00000000000E+00  0.00000000000E+00  0.45593999997E+02  0.45594000000E+02  0.51100000000E-03 0.  1.
         11   -1    0    0    0    0 -0.00000000000E+00 -0.00000000000E+00 -0.45593999997E+02  0.45594000000E+02  0.51100000000E-03 0. -1.
    9900012    2    1    2    0    0 -0.10694072906E+02  0.38880013368E+02 -0.52103681166E+01  0.50528848869E+02  0.29999966621E+02 0.  0.
         12    1    1    2    0    0  0.10694072906E+02 -0.38880013368E+02  0.52103681166E+01  0.40659151131E+02  0.00000000000E+00 0. -1.
         11    1    3    3    0    0 -0.88737600357E+01  0.36471607364E+01 -0.37733519900E+00  0.96014468036E+01  0.51100000000E-03 0. -1.
        -11    1    3    3    0    0  0.26078936743E+01  0.33212729138E+02 -0.90119277454E+01  0.34512335884E+02  0.51100000000E-03 0.  1.
         12    1    3    3    0    0 -0.44282065447E+01  0.20201234936E+01  0.41788948278E+01  0.64150661815E+01  0.00000000000E+00 0. -1.
</event>
<event>
 7    1  0.2900470E-011  0.5052886E+02  0.7816164E-02  0.1300439E+00
        -11   -1    0    0    0    0  0.00000000000E+00  0.00000000000E+00  0.45593999997E+02  0.45594000000E+02  0.51100000000E-03 0. -1.
         11   -1    0    0    0    0 -0.00000000000E+00 -0.00000000000E+00 -0.45593999997E+02  0.45594000000E+02  0.51100000000E-03 0.  1.
    9900012    2    1    2    0    0 -0.36236198974E+02 -0.15988783684E+02 -0.91903560576E+01  0.50528856327E+02  0.29999989291E+02 0.  0.
         12    1    1    2    0    0  0.36236198974E+02  0.15988783684E+02  0.91903560576E+01  0.40659143673E+02  0.00000000000E+00 0. -1.
         11    1    3    3    0    0  0.24612327035E+01  0.45617178296E+01 -0.36300859966E+00  0.51960284335E+01  0.51100000000E-03 0. -1.
        -11    1    3    3    0    0 -0.21505525930E+02 -0.83636350015E+01 -0.19109786597E+01  0.23153614743E+02  0.51100000000E-03 0.  1.
         12    1    3    3    0    0 -0.17191905747E+02 -0.12186866512E+02 -0.69163687983E+01  0.22179213150E+02  0.00000000000E+00 0. -1.
</event>
<event>
 7    1  0.2900470E-011  0.5052886E+02  0.7816164E-02  0.1300439E+00
        -11   -1    0    0    0    0  0.00000000000E+00  0.00000000000E+00  0.45593999997E+02  0.45594000000E+02  0.51100000000E-03 0.  1.
         11   -1    0    0    0    0 -0.00000000000E+00 -0.00000000000E+00 -0.45593999997E+02  0.45594000000E+02  0.51100000000E-03 0. -1.
    9900012    2    1    2    0    0 -0.37980470176E+02  0.13605548038E+02  0.50535739459E+01  0.50528860046E+02  0.30000000594E+02 0.  0.
         12    1    1    2    0    0  0.37980470176E+02 -0.13605548038E+02 -0.50535739459E+01  0.40659139954E+02  0.00000000000E+00 0. -1.
         11    1    3    3    0    0 -0.11056662070E+02  0.17327228422E+01 -0.74325493504E+01  0.13434838841E+02  0.51100000000E-03 0. -1.
        -11    1    3    3    0    0 -0.20360943936E+02 -0.77716583423E+00  0.49301801616E+01  0.20963747313E+02  0.51100000000E-03 0.  1.
        -12    1    3    3    0    0 -0.65628641702E+01  0.12649991030E+02  0.75559431348E+01  0.16130273892E+02  0.00000000000E+00 0.  1.
</event>
<event>
 7    1  0.2900470E-011  0.5052892E+02  0.7816164E-02  0.1300439E+00
        -11   -1    0    0    0    0  0.00000000000E+00  0.00000000000E+00  0.45593999997E+02  0.45594000000E+02  0.51100000000E-03 0.  1.
         11   -1    0    0    0    0 -0.00000000000E+00 -0.00000000000E+00 -0.45593999997E+02  0.45594000000E+02  0.51100000000E-03 0. -1.
    9900012    2    1    2    0    0  0.40718561614E+01 -0.39245986494E+02 -0.98149558503E+01  0.50528919504E+02  0.30000181322E+02 0.  0.
         12    1    1    2    0    0 -0.40718561614E+01  0.39245986494E+02  0.98149558503E+01  0.40659080496E+02  0.00000000000E+00 0. -1.
         11    1    3    3    0    0 -0.51958000473E+01 -0.26293550885E+02 -0.99710064554E+01  0.28596645367E+02  0.51100000000E-03 0.  1.
        -11    1    3    3    0    0  0.63395694243E+01 -0.22383600029E+01  0.63219290132E+01  0.92286067582E+01  0.51100000000E-03 0. -1.
        -12    1    3    3    0    0  0.29280867845E+01 -0.10714075606E+02 -0.61658784081E+01  0.12703667378E+02  0.00000000000E+00 0.  1.
</event>
<event>
 7    1  0.2900470E-011  0.5052883E+02  0.7816164E-02  0.1300439E+00
        -11   -1    0    0    0    0  0.00000000000E+00  0.00000000000E+00  0.45593999997E+02  0.45594000000E+02  0.51100000000E-03 0.  1.
         11   -1    0    0    0    0 -0.00000000000E+00 -0.00000000000E+00 -0.45593999997E+02  0.45594000000E+02  0.51100000000E-03 0. -1.
    9900012    2    1    2    0    0 -0.10448131130E+02 -0.13129348959E+01  0.39271881062E+02  0.50528832715E+02  0.29999917521E+02 0.  0.
         12    1    1    2    0    0  0.10448131130E+02  0.13129348959E+01 -0.39271881062E+02  0.40659167285E+02  0.00000000000E+00 0. -1.
         11    1    3    3    0    0 -0.50206674328E+01 -0.26221792215E+01  0.32165952954E+01  0.65137862182E+01  0.51100000000E-03 0. -1.
        -11    1    3    3    0    0  0.75165383583E+01 -0.61588077541E+01  0.18987249623E+02  0.21329437647E+02  0.51100000000E-03 0.  1.
        -12    1    3    3    0    0 -0.12944002056E+02  0.74680520796E+01  0.17068036143E+02  0.22685608850E+02  0.00000000000E+00 0.  1.
</event>
<event>
 7    1  0.2900470E-011  0.5052886E+02  0.7816164E-02  0.1300439E+00
        -11   -1    0    0    0    0  0.00000000000E+00  0.00000000000E+00  0.45593999997E+02  0.45594000000E+02  0.51100000000E-03 0.  1.
         11   -1    0    0    0    0 -0.00000000000E+00 -0.00000000000E+00 -0.45593999997E+02  0.45594000000E+02  0.51100000000E-03 0. -1.
    9900012    2    1    2    0    0 -0.55245949269E+01 -0.40270354220E+02 -0.97096091822E+00  0.50528863964E+02  0.30000012504E+02 0.  0.
         12    1    1    2    0    0  0.55245949269E+01  0.40270354220E+02  0.97096091822E+00  0.40659136036E+02  0.00000000000E+00 0. -1.
         11    1    3    3    0    0  0.93157157744E+01 -0.13677029811E+02  0.69111858469E+01  0.17933437900E+02  0.51100000000E-03 0.  1.
        -11    1    3    3    0    0 -0.14500126108E+02 -0.27098671800E+02 -0.83256256647E+01  0.31841917552E+02  0.51100000000E-03 0. -1.
         12    1    3    3    0    0 -0.34018459340E+00  0.50534739044E+00  0.44347889956E+00  0.75350851154E+00  0.00000000000E+00 0. -1.
</event>
<event>
 7    1  0.2900470E-011  0.5052888E+02  0.7816164E-02  0.1300439E+00
        -11   -1    0    0    0    0  0.00000000000E+00  0.00000000000E+00  0.45593999997E+02  0.45594000000E+02  0.51100000000E-03 0. -1.
         11   -1    0    0    0    0 -0.00000000000E+00 -0.00000000000E+00 -0.45593999997E+02  0.45594000000E+02  0.51100000000E-03 0.  1.
    9900012    2    1    2    0    0 -0.91927575476E+01  0.39350673944E+02  0.44924018154E+01  0.50528880417E+02  0.30000062516E+02 0.  0.
         12    1    1    2    0    0  0.91927575476E+01 -0.39350673944E+02 -0.44924018154E+01  0.40659119583E+02  0.00000000000E+00 0. -1.
         11    1    3    3    0    0 -0.74277453340E-01  0.20490278075E+02  0.13661269281E+02  0.24626962691E+02  0.51100000000E-03 0. -1.
        -11    1    3    3    0    0 -0.37196523342E+01  0.60065865474E+01 -0.96407362623E+01  0.11952350872E+02  0.51100000000E-03 0.  1.
        -12    1    3    3    0    0 -0.53988277600E+01  0.12853809322E+02  0.47186879649E+00  0.13949566854E+02  0.00000000000E+00 0.  1.
</event>
<event>
 7    1  0.2900470E-011  0.5052886E+02  0.7816164E-02  0.1300439E+00
        -11   -1    0    0    0    0  0.00000000000E+00  0.00000000000E+00  0.45593999997E+02  0.45594000000E+02  0.51100000000E-03 0.  1.
         11   -1    0    0    0    0 -0.00000000000E+00 -0.00000000000E+00 -0.45593999997E+02  0.45594000000E+02  0.51100000000E-03 0. -1.
    9900012    2    1    2    0    0  0.36103580465E+02  0.25178267767E+01 -0.18529918139E+02  0.50528857851E+02  0.29999993923E+02 0.  0.
         12    1    1    2    0    0 -0.36103580465E+02 -0.25178267767E+01  0.18529918139E+02  0.40659142149E+02  0.00000000000E+00 0. -1.
         11    1    3    3    0    0  0.65990453247E+01  0.72161470582E+01  0.30804216611E+01  0.10252276598E+02  0.51100000000E-03 0. -1.
        -11    1    3    3    0    0  0.84866484720E+01 -0.84712955407E+01 -0.41364611936E+01  0.12684492969E+02  0.51100000000E-03 0.  1.
         12    1    3    3    0    0  0.21017886668E+02  0.37729752592E+01 -0.17473878606E+02  0.27592088284E+02  0.00000000000E+00 0. -1.
</event>
<event>
 7    1  0.2900470E-011  0.5052886E+02  0.7816164E-02  0.1300439E+00
        -11   -1    0    0    0    0  0.00000000000E+00  0.00000000000E+00  0.45593999997E+02  0.45594000000E+02  0.51100000000E-03 0.  1.
         11   -1    0    0    0    0 -0.00000000000E+00 -0.00000000000E+00 -0.45593999997E+02  0.45594000000E+02  0.51100000000E-03 0. -1.
    9900012    2    1    2    0    0  0.52240324617E+01 -0.19041147312E+02  0.35543070139E+02  0.50528860302E+02  0.30000001373E+02 0.  0.
         12    1    1    2    0    0 -0.52240324617E+01  0.19041147312E+02 -0.35543070139E+02  0.40659139698E+02  0.00000000000E+00 0. -1.
         11    1    3    3    0    0  0.69785541341E+01 -0.18341181946E+02  0.13648758268E+02  0.23903718863E+02  0.51100000000E-03 0. -1.
        -11    1    3    3    0    0 -0.56330461910E+01 -0.56223044495E+01  0.16646759936E+02  0.18451453421E+02  0.51100000000E-03 0.  1.
         12    1    3    3    0    0  0.38785245186E+01  0.49223390838E+01  0.52475519352E+01  0.81736880176E+01  0.00000000000E+00 0. -1.
</event>
<event>
 7    1  0.2900470E-011  0.5052886E+02  0.7816164E-02  0.1300439E+00
        -11   -1    0    0    0    0  0.00000000000E+00  0.00000000000E+00  0.45593999997E+02  0.45594000000E+02  0.51100000000E-03 0.  1.
         11   -1    0    0    0    0 -0.00000000000E+00 -0.00000000000E+00 -0.45593999997E+02  0.45594000000E+02  0.51100000000E-03 0. -1.
    9900012    2    1    2    0    0  0.28314478423E+02 -0.22398621202E+02  0.18701819453E+02  0.50528856244E+02  0.29999989040E+02 0.  0.
         12    1    1    2    0    0 -0.28314478423E+02  0.22398621202E+02 -0.18701819453E+02  0.40659143756E+02  0.00000000000E+00 0. -1.
         11    1    3    3    0    0  0.49326401134E+01 -0.18309608606E+02  0.79196573080E+01  0.20549785350E+02  0.51100000000E-03 0. -1.
        -11    1    3    3    0    0  0.24817661552E+02 -0.37410257070E+01  0.12222318506E+02  0.27915885589E+02  0.51100000000E-03 0.  1.
        -12    1    3    3    0    0 -0.14358232431E+01 -0.34798688955E+00 -0.14401563617E+01  0.20631853060E+01  0.00000000000E+00 0.  1.
</event>
<event>
 7    1  0.2900470E-011  0.5052887E+02  0.7816164E-02  0.1300439E+00
        -11   -1    0    0    0    0  0.00000000000E+00  0.00000000000E+00  0.45593999997E+02  0.45594000000E+02  0.51100000000E-03 0. -1.
         11   -1    0    0    0    0 -0.00000000000E+00 -0.00000000000E+00 -0.45593999997E+02  0.45594000000E+02  0.51100000000E-03 0.  1.
    9900012    2    1    2    0    0  0.21938356118E+02  0.84501759356E+01 -0.33173301226E+02  0.50528869947E+02  0.30000030690E+02 0.  0.
         12    1    1    2    0    0 -0.21938356118E+02 -0.84501759356E+01  0.33173301226E+02  0.40659130053E+02  0.00000000000E+00 0. -1.
         11    1    3    3    0    0  0.10969384686E+01 -0.44291341663E+01  0.21169110931E+01  0.50300910831E+01  0.51100000000E-03 0. -1.
        -11    1    3    3    0    0  0.19282145232E+02  0.55704147194E+01 -0.19282377081E+02  0.27832368045E+02  0.51100000000E-03 0.  1.
        -12    1    3    3    0    0  0.15592724175E+01  0.73088953825E+01 -0.16007835238E+02  0.17666410818E+02  0.00000000000E+00 0.  1.
</event>
<event>
 7    1  0.2900470E-011  0.5052887E+02  0.7816164E-02  0.1300439E+00
        -11   -1    0    0    0    0  0.00000000000E+00  0.00000000000E+00  0.45593999997E+02  0.45594000000E+02  0.51100000000E-03 0. -1.
         11   -1    0    0    0    0 -0.00000000000E+00 -0.00000000000E+00 -0.45593999997E+02  0.45594000000E+02  0.51100000000E-03 0.  1.
    9900012    2    1    2    0    0  0.12983698970E+02  0.72418745481E+01 -0.37843672621E+02  0.50528871340E+02  0.30000034927E+02 0.  0.
         12    1    1    2    0    0 -0.12983698970E+02 -0.72418745481E+01  0.37843672621E+02  0.40659128660E+02  0.00000000000E+00 0. -1.
         11    1    3    3    0    0  0.13081423802E+01 -0.59000338659E+01 -0.21606295969E+02  0.22435544608E+02  0.51100000000E-03 0. -1.
        -11    1    3    3    0    0  0.13307717556E+02  0.44507820641E+01 -0.90468846505E+01  0.16695835698E+02  0.51100000000E-03 0.  1.
         12    1    3    3    0    0 -0.16321609658E+01  0.86911263499E+01 -0.71904920016E+01  0.11397491034E+02  0.00000000000E+00 0. -1.
</event>
<event>
 7    1  0.2900470E-011  0.5052890E+02  0.7816164E-02  0.1300439E+00
        -11   -1    0    0    0    0  0.00000000000E+00  0.00000000000E+00  0.45593999997E+02  0.45594000000E+02  0.51100000000E-03 0.  1.
         11   -1    0    0    0    0 -0.00000000000E+00 -0.00000000000E+00 -0.45593999997E+02  0.45594000000E+02  0.51100000000E-03 0. -1.
    9900012    2    1    2    0    0 -0.20233057383E+02  0.34940526097E+02  0.47901466035E+01  0.50528899180E+02  0.30000119547E+02 0.  0.
         12    1    1    2    0    0  0.20233057383E+02 -0.34940526097E+02 -0.47901466035E+01  0.40659100820E+02  0.00000000000E+00 0. -1.
         11    1    3    3    0    0 -0.40642094831E+01  0.21382601269E+02 -0.10105576243E+02  0.23997002046E+02  0.51100000000E-03 0. -1.
        -11    1    3    3    0    0 -0.77619215032E+01  0.55044895101E+01  0.32247474986E+01  0.10047180046E+02  0.51100000000E-03 0.  1.
         12    1    3    3    0    0 -0.84069263971E+01  0.80534353182E+01  0.11670975348E+02  0.16484717087E+02  0.00000000000E+00 0. -1.
</event>
<event>
 7    1  0.2900470E-011  0.5052886E+02  0.7816164E-02  0.1300439E+00
        -11   -1    0    0    0    0  0.00000000000E+00  0.00000000000E+00  0.45593999997E+02  0.45594000000E+02  0.51100000000E-03 0.  1.
         11   -1    0    0    0    0 -0.00000000000E+00 -0.00000000000E+00 -0.45593999997E+02  0.45594000000E+02  0.51100000000E-03 0. -1.
    9900012    2    1    2    0    0 -0.13488993408E+02  0.38315415720E+02 -0.17724725334E+01  0.50528859775E+02  0.29999999773E+02 0.  0.
         12    1    1    2    0    0  0.13488993408E+02 -0.38315415720E+02  0.17724725334E+01  0.40659140225E+02  0.00000000000E+00 0. -1.
         11    1    3    3    0    0 -0.64755527237E+01  0.18511305753E+02 -0.75282320340E+01  0.21006558537E+02  0.51100000000E-03 0. -1.
        -11    1    3    3    0    0  0.37630065524E+01  0.88066309602E+01  0.96966162474E+01  0.13628695245E+02  0.51100000000E-03 0.  1.
         12    1    3    3    0    0 -0.10776447237E+02  0.10997479006E+02 -0.39408567468E+01  0.15893605992E+02  0.00000000000E+00 0. -1.
</event>
<event>
 7    1  0.2900470E-011  0.5052887E+02  0.7816164E-02  0.1300439E+00
        -11   -1    0    0    0    0  0.00000000000E+00  0.00000000000E+00  0.45593999997E+02  0.45594000000E+02  0.51100000000E-03 0. -1.
         11   -1    0    0    0    0 -0.00000000000E+00 -0.00000000000E+00 -0.45593999997E+02  0.45594000000E+02  0.51100000000E-03 0.  1.
    9900012    2    1    2    0    0 -0.39730385343E+02  0.23363745647E+01  0.83188122233E+01  0.50528870614E+02  0.30000032718E+02 0.  0.
         12    1    1    2    0    0  0.39730385343E+02 -0.23363745647E+01 -0.83188122233E+01  0.40659129386E+02  0.00000000000E+00 0. -1.
         11    1    3    3    0    0 -0.13291800566E+00  0.32267806423E+01 -0.66761166068E+00  0.32978001911E+01  0.51100000000E-03 0. -1.
        -11    1    3    3    0    0 -0.24480064678E+02 -0.92029340580E+01  0.13453184079E+02  0.29410129616E+02  0.51100000000E-03 0.  1.
        -12    1    3    3    0    0 -0.15117402659E+02  0.83125279804E+01 -0.44667601949E+01  0.17820940806E+02  0.00000000000E+00 0.  1.
</event>
<event>
 7    1  0.2900470E-011  0.5052889E+02  0.7816164E-02  0.1300439E+00
        -11   -1    0    0    0    0  0.00000000000E+00  0.00000000000E+00  0.45593999997E+02  0.45594000000E+02  0.51100000000E-03 0.  1.
         11   -1    0    0    0    0 -0.00000000000E+00 -0.00000000000E+00 -0.45593999997E+02  0.45594000000E+02  0.51100000000E-03 0. -1.
    9900012    2    1    2    0    0  0.10352143974E+02 -0.23732526768E+01  0.39247466992E+02  0.50528894274E+02  0.30000104636E+02 0.  0.
         12    1    1    2    0    0 -0.10352143974E+02  0.23732526768E+01 -0.39247466992E+02  0.40659105726E+02  0.00000000000E+00 0. -1.
         11    1    3    3    0    0 -0.21453726501E+01  0.35150041597E+01 -0.17529190371E+01  0.44755562182E+01  0.51100000000E-03 0. -1.
        -11    1    3    3    0    0  0.40770673051E+01 -0.95791660021E+01  0.13443638086E+02  0.17003361561E+02  0.51100000000E-03 0.  1.
         12    1    3    3    0    0  0.84204493186E+01  0.36909091656E+01  0.27556747943E+02  0.29049976495E+02  0.00000000000E+00 0. -1.
</event>
<event>
 7    1  0.2900470E-011  0.5052886E+02  0.7816164E-02  0.1300439E+00
        -11   -1    0    0    0    0  0.00000000000E+00  0.00000000000E+00  0.45593999997E+02  0.45594000000E+02  0.51100000000E-03 0. -1.
         11   -1    0    0    0    0 -0.00000000000E+00 -0.00000000000E+00 -0.45593999997E+02  0.45594000000E+02  0.51100000000E-03 0.  1.
    9900012    2    1    2    0    0  0.19755079365E+02 -0.35130683908E+02  0.53607201857E+01  0.50528862854E+02  0.30000009131E+02 0.  0.
         12    1    1    2    0    0 -0.19755079365E+02  0.35130683908E+02 -0.53607201857E+01  0.40659137146E+02  0.00000000000E+00 0. -1.
         11    1    3    3    0    0  0.54279752121E+01 -0.29334611008E+02  0.71065381180E+01  0.30667331187E+02  0.51100000000E-03 0. -1.
        -11    1    3    3    0    0  0.79433760391E+01 -0.83154671023E+01 -0.46567198587E+01  0.12406822967E+02  0.51100000000E-03 0.  1.
         12    1    3    3    0    0  0.63837281135E+01  0.25193942022E+01  0.29109019265E+01  0.74547086998E+01  0.00000000000E+00 0. -1.
</event>
<event>
 7    1  0.2900470E-011  0.5052886E+02  0.7816164E-02  0.1300439E+00
        -11   -1    0    0    0    0  0.00000000000E+00  0.00000000000E+00  0.45593999997E+02  0.45594000000E+02  0.51100000000E-03 0. -1.
         11   -1    0    0    0    0 -0.00000000000E+00 -0.00000000000E+00 -0.45593999997E+02  0.45594000000E+02  0.51100000000E-03 0.  1.
    9900012    2    1    2    0    0  0.36067217014E+02  0.94700666570E+01 -0.16206152189E+02  0.50528859891E+02  0.30000000124E+02 0.  0.
         12    1    1    2    0    0 -0.36067217014E+02 -0.94700666570E+01  0.16206152189E+02  0.40659140109E+02  0.00000000000E+00 0. -1.
         11    1    3    3    0    0  0.20026674443E+01 -0.43948281363E+01 -0.12256597016E+02  0.13173813491E+02  0.51100000000E-03 0. -1.
        -11    1    3    3    0    0  0.14344172051E+02  0.33283842672E+01 -0.51649034669E+00  0.14734319672E+02  0.51100000000E-03 0.  1.
         12    1    3    3    0    0  0.19720377519E+02  0.10536510526E+02 -0.34330648268E+01  0.22620726727E+02  0.00000000000E+00 0. -1.
</event>
<event>
 7    1  0.2900470E-011  0.5052886E+02  0.7816164E-02  0.1300439E+00
        -11   -1    0    0    0    0  0.00000000000E+00  0.00000000000E+00  0.45593999997E+02  0.45594000000E+02  0.51100000000E-03 0.  1.
         11   -1    0    0    0    0 -0.00000000000E+00 -0.00000000000E+00 -0.45593999997E+02  0.45594000000E+02  0.51100000000E-03 0. -1.
    9900012    2    1    2    0    0 -0.29744963059E+02 -0.21641810269E+02  0.17321512698E+02  0.50528861037E+02  0.30000003607E+02 0.  0.
         12    1    1    2    0    0  0.29744963059E+02  0.21641810269E+02 -0.17321512698E+02  0.40659138963E+02  0.00000000000E+00 0. -1.
         11    1    3    3    0    0 -0.21336403831E+02 -0.21510972871E+02  0.52312045280E+01  0.30746212504E+02  0.51100000000E-03 0. -1.
        -11    1    3    3    0    0  0.62582210168E+00 -0.12822168234E+01  0.10427478761E+02  0.10524639987E+02  0.51100000000E-03 0.  1.
         12    1    3    3    0    0 -0.90343813294E+01  0.11513794250E+01  0.16628294090E+01  0.92580085455E+01  0.00000000000E+00 0. -1.
</event>
<event>
 7    1  0.2900470E-011  0.5052885E+02  0.7816164E-02  0.1300439E+00
        -11   -1    0    0    0    0  0.00000000000E+00  0.00000000000E+00  0.45593999997E+02  0.45594000000E+02  0.51100000000E-03 0. -1.
         11   -1    0    0    0    0 -0.00000000000E+00 -0.00000000000E+00 -0.45593999997E+02  0.45594000000E+02  0.51100000000E-03 0.  1.
    9900012    2    1    2    0    0  0.43305411681E+01  0.40339097415E+02  0.26776351564E+01  0.50528854693E+02  0.29999984324E+02 0.  0.
         12    1    1    2    0    0 -0.43305411681E+01 -0.40339097415E+02 -0.26776351564E+01  0.40659145307E+02  0.00000000000E+00 0. -1.
         11    1    3    3    0    0 -0.58231756101E+00  0.21629003079E+02 -0.49295898519E+00  0.21642455424E+02  0.51100000000E-03 0. -1.
        -11    1    3    3    0    0 -0.58346665880E+01 -0.10602799293E+01  0.23188496184E+01  0.63674635088E+01  0.51100000000E-03 0.  1.
        -12    1    3    3    0    0  0.10747525317E+02  0.19770374266E+02  0.85174452317E+00  0.22518935760E+02  0.00000000000E+00 0.  1.
</event>
<event>
 7    1  0.2900470E-011  0.5052887E+02  0.7816164E-02  0.1300439E+00
        -11   -1    0    0    0    0  0.00000000000E+00  0.00000000000E+00  0.45593999997E+02  0.45594000000E+02  0.51100000000E-03 0. -1.
         11   -1    0    0    0    0 -0.00000000000E+00 -0.00000000000E+00 -0.45593999997E+02  0.45594000000E+02  0.51100000000E-03 0.  1.
    9900012    2    1    2    0    0  0.31055943364E+02  0.87451380856E+01 -0.24742997094E+02  0.50528868632E+02  0.30000026694E+02 0.  0.
         12    1    1    2    0    0 -0.31055943364E+02 -0.87451380856E+01  0.24742997094E+02  0.40659131368E+02  0.00000000000E+00 0. -1.
         11    1    3    3    0    0  0.27204072602E+02  0.19976541876E+01 -0.34621222860E+01  0.27496153902E+02  0.51100000000E-03 0. -1.
        -11    1    3    3    0    0  0.37075512986E+01  0.44113680416E+01 -0.10273611465E+02  0.11779354712E+02  0.51100000000E-03 0.  1.
         12    1    3    3    0    0  0.14431946329E+00  0.23361158564E+01 -0.11007263343E+02  0.11253360019E+02  0.00000000000E+00 0. -1.
</event>
<event>
 7    1  0.2900470E-011  0.5052886E+02  0.7816164E-02  0.1300439E+00
        -11   -1    0    0    0    0  0.00000000000E+00  0.00000000000E+00  0.45593999997E+02  0.45594000000E+02  0.51100000000E-03 0.  1.
         11   -1    0    0    0    0 -0.00000000000E+00 -0.00000000000E+00 -0.45593999997E+02  0.45594000000E+02  0.51100000000E-03 0. -1.
    9900012    2    1    2    0    0 -0.23172683484E+02  0.18094619745E+01  0.33360432572E+02  0.50528857438E+02  0.29999992669E+02 0.  0.
         12    1    1    2    0    0  0.23172683484E+02 -0.18094619745E+01 -0.33360432572E+02  0.40659142562E+02  0.00000000000E+00 0. -1.
         11    1    3    3    0    0 -0.52992570967E+01 -0.45094944563E+01 -0.35211260852E+01  0.77984610788E+01  0.51100000000E-03 0. -1.
        -11    1    3    3    0    0 -0.12362325878E+02  0.88234563290E+01  0.29532643300E+02  0.33209298445E+02  0.51100000000E-03 0.  1.
         12    1    3    3    0    0 -0.55111005094E+01 -0.25044998982E+01  0.73489153573E+01  0.95210979143E+01  0.00000000000E+00 0. -1.
</event>
<event>
 7    1  0.2900470E-011  0.5052887E+02  0.7816164E-02  0.1300439E+00
        -11   -1    0    0    0    0  0.00000000000E+00  0.00000000000E+00  0.45593999997E+02  0.45594000000E+02  0.51100000000E-03 0.  1.
         11   -1    0    0    0    0 -0.00000000000E+00 -0.00000000000E+00 -0.45593999997E+02  0.45594000000E+02  0.51100000000E-03 0. -1.
    9900012    2    1    2    0    0 -0.59551165112E+01  0.36675069184E+00  0.40218989444E+02  0.50528867808E+02  0.30000024189E+02 0.  0.
         12    1    1    2    0    0  0.59551165112E+01 -0.36675069184E+00 -0.40218989444E+02  0.40659132192E+02  0.00000000000E+00 0. -1.
         11    1    3    3    0    0 -0.49838401181E+01  0.25730372423E+01  0.18487707187E+01  0.59056867852E+01  0.51100000000E-03 0. -1.
        -11    1    3    3    0    0  0.47086842797E+01  0.40603397563E+01  0.34952243561E+02  0.35500949238E+02  0.51100000000E-03 0.  1.
        -12    1    3    3    0    0 -0.56799606728E+01 -0.62666263068E+01  0.34179751642E+01  0.91222317849E+01  0.00000000000E+00 0.  1.
</event>
<event>
 7    1  0.2900470E-011  0.5052890E+02  0.7816164E-02  0.1300439E+00
        -11   -1    0    0    0    0  0.00000000000E+00  0.00000000000E+00  0.45593999997E+02  0.45594000000E+02  0.51100000000E-03 0.  1.
         11   -1    0    0    0    0 -0.00000000000E+00 -0.00000000000E+00 -0.45593999997E+02  0.45594000000E+02  0.51100000000E-03 0. -1.
    9900012    2    1    2    0    0 -0.21324671531E+02  0.21455568114E+02  0.27167618386E+02  0.50528898832E+02  0.30000118491E+02 0.  0.
         12    1    1    2    0    0  0.21324671531E+02 -0.21455568114E+02 -0.27167618386E+02  0.40659101168E+02  0.00000000000E+00 0. -1.
         11    1    3    3    0    0 -0.17054468247E+02  0.18726942722E+02  0.88288639833E+01  0.26823536501E+02  0.51100000000E-03 0. -1.
        -11    1    3    3    0    0 -0.26202707387E+01  0.62809709434E+01  0.18573935267E+02  0.19781493531E+02  0.51100000000E-03 0.  1.
        -12    1    3    3    0    0 -0.16499325459E+01 -0.35523455520E+01 -0.23518086495E+00  0.39238688008E+01  0.00000000000E+00 0.  1.
</event>
<event>
 7    1  0.2900470E-011  0.5052887E+02  0.7816164E-02  0.1300439E+00
        -11   -1    0    0    0    0  0.00000000000E+00  0.00000000000E+00  0.45593999997E+02  0.45594000000E+02  0.51100000000E-03 0.  1.
         11   -1    0    0    0    0 -0.00000000000E+00 -0.00000000000E+00 -0.45593999997E+02  0.45594000000E+02  0.51100000000E-03 0. -1.
    9900012    2    1    2    0    0 -0.20598682440E+02 -0.10408168384E+02  0.33474307389E+02  0.50528868891E+02  0.30000027482E+02 0.  0.
         12    1    1    2    0    0  0.20598682440E+02  0.10408168384E+02 -0.33474307389E+02  0.40659131109E+02  0.00000000000E+00 0. -1.
         11    1    3    3    0    0 -0.20335852497E+00  0.42306510880E+01  0.61300690751E+00  0.42796659972E+01  0.51100000000E-03 0. -1.
        -11    1    3    3    0    0 -0.14597894254E+02 -0.15551151470E+02  0.34128299126E+02  0.40245218724E+02  0.51100000000E-03 0.  1.
        -12    1    3    3    0    0 -0.57974296607E+01  0.91233199804E+00 -0.12669986445E+01  0.60039841698E+01  0.00000000000E+00 0.  1.
</event>
<event>
 7    1  0.2900470E-011  0.5052885E+02  0.7816164E-02  0.1300439E+00
        -11   -1    0    0    0    0  0.00000000000E+00  0.00000000000E+00  0.45593999997E+02  0.45594000000E+02  0.51100000000E-03 0.  1.
         11   -1    0    0    0    0 -0.00000000000E+00 -0.00000000000E+00 -0.45593999997E+02  0.45594000000E+02  0.51100000000E-03 0. -1.
    9900012    2    1    2    0    0  0.11466338736E+02  0.21079632808E+02  0.32822831644E+02  0.50528854406E+02  0.29999983453E+02 0.  0.
         12    1    1    2    0    0 -0.11466338736E+02 -0.21079632808E+02 -0.32822831644E+02  0.40659145594E+02  0.00000000000E+00 0. -1.
         11    1    3    3    0    0  0.57646925374E+01 -0.19230358903E+01 -0.13802631683E+01  0.62317632947E+01  0.51100000000E-03 0. -1.
        -11    1    3    3    0    0  0.18251552730E+01  0.21943549649E+02  0.20746946925E+02  0.30253700103E+02  0.51100000000E-03 0.  1.
        -12    1    3    3    0    0  0.38764909259E+01  0.10591190492E+01  0.13456147887E+02  0.14043391008E+02  0.00000000000E+00 0.  1.
</event>
<event>
 7    1  0.2900470E-011  0.5052886E+02  0.7816164E-02  0.1300439E+00
        -11   -1    0    0    0    0  0.00000000000E+00  0.00000000000E+00  0.45593999997E+02  0.45594000000E+02  0.51100000000E-03 0.  1.
         11   -1    0    0    0    0 -0.00000000000E+00 -0.00000000000E+00 -0.45593999997E+02  0.45594000000E+02  0.51100000000E-03 0. -1.
    9900012    2    1    2    0    0  0.60172153755E+01  0.31481234319E+02 -0.25017807702E+02  0.50528859609E+02  0.29999999267E+02 0.  0.
         12    1    1    2    0    0 -0.60172153755E+01 -0.31481234319E+02  0.25017807702E+02  0.40659140391E+02  0.00000000000E+00 0. -1.
         11    1    3    3    0    0  0.74741491710E+01  0.10701102203E+02 -0.21296792726E+02  0.24978588329E+02  0.51100000000E-03 0. -1.
        -11    1    3    3    0    0  0.53043605663E+00  0.19272790340E+02  0.19268401522E+01  0.19376132822E+02  0.51100000000E-03 0.  1.
        -12    1    3    3    0    0 -0.19873698521E+01  0.15073417764E+01 -0.56478551277E+01  0.61741384584E+01  0.00000000000E+00 0.  1.
</event>
<event>
 7    1  0.2900470E-011  0.5052884E+02  0.7816164E-02  0.1300439E+00
        -11   -1    0    0    0    0  0.00000000000E+00  0.00000000000E+00  0.45593999997E+02  0.45594000000E+02  0.51100000000E-03 0. -1.
         11   -1    0    0    0    0 -0.00000000000E+00 -0.00000000000E+00 -0.45593999997E+02  0.45594000000E+02  0.51100000000E-03 0.  1.
    9900012    2    1    2    0    0 -0.36368128423E+02 -0.80321467300E+01  0.16309848069E+02  0.50528840022E+02  0.29999939731E+02 0.  0.
         12    1    1    2    0    0  0.36368128423E+02  0.80321467300E+01 -0.16309848069E+02  0.40659159978E+02  0.00000000000E+00 0. -1.
         11    1    3    3    0    0 -0.18143765594E+02 -0.14612088316E+02  0.72758897015E-01  0.23296236799E+02  0.51100000000E-03 0. -1.
        -11    1    3    3    0    0 -0.72149536597E+01 -0.19686561237E+01  0.31566996788E+01  0.81176299724E+01  0.51100000000E-03 0.  1.
         12    1    3    3    0    0 -0.11009409170E+02  0.85485977101E+01  0.13080389493E+02  0.19114973250E+02  0.00000000000E+00 0. -1.
</event>
<event>
 7    1  0.2900470E-011  0.5052883E+02  0.7816164E-02  0.1300439E+00
        -11   -1    0    0    0    0  0.00000000000E+00  0.00000000000E+00  0.45593999997E+02  0.45594000000E+02  0.51100000000E-03 0. -1.
         11   -1    0    0    0    0 -0.00000000000E+00 -0.00000000000E+00 -0.45593999997E+02  0.45594000000E+02  0.51100000000E-03 0.  1.
    9900012    2    1    2    0    0  0.17042146662E+01 -0.40505335356E+02 -0.30954335460E+01  0.50528828233E+02  0.29999903897E+02 0.  0.
         12    1    1    2    0    0 -0.17042146662E+01  0.40505335356E+02  0.30954335460E+01  0.40659171767E+02  0.00000000000E+00 0. -1.
         11    1    3    3    0    0 -0.38542916209E+01 -0.21015593331E+02  0.17371344670E+00  0.21366817816E+02  0.51100000000E-03 0. -1.
        -11    1    3    3    0    0  0.13005875931E+02 -0.16049291492E+02 -0.11521937852E+01  0.20689613745E+02  0.51100000000E-03 0.  1.
        -12    1    3    3    0    0 -0.74473696441E+01 -0.34404505325E+01 -0.21169532074E+01  0.84723966718E+01  0.00000000000E+00 0.  1.
</event>
<event>
 7    1  0.2900470E-011  0.5052886E+02  0.7816164E-02  0.1300439E+00
        -11   -1    0    0    0    0  0.00000000000E+00  0.00000000000E+00  0.45593999997E+02  0.45594000000E+02  0.51100000000E-03 0.  1.
         11   -1    0    0    0    0 -0.00000000000E+00 -0.00000000000E+00 -0.45593999997E+02  0.45594000000E+02  0.51100000000E-03 0. -1.
    9900012    2    1    2    0    0 -0.36647471123E+02 -0.17194935860E+02 -0.38029713770E+01  0.50528861418E+02  0.30000004768E+02 0.  0.
         12    1    1    2    0    0  0.36647471123E+02  0.17194935860E+02  0.38029713770E+01  0.40659138582E+02  0.00000000000E+00 0. -1.
         11    1    3    3    0    0 -0.45847199082E+01 -0.15080377238E+02 -0.26315724365E+01  0.15980069087E+02  0.51100000000E-03 0. -1.
        -11    1    3    3    0    0 -0.27705078648E+02 -0.63808322166E+01 -0.10041925921E+01  0.28448107242E+02  0.51100000000E-03 0.  1.
        -12    1    3    3    0    0 -0.43576725667E+01  0.42662735954E+01 -0.16720634847E+00  0.61006850888E+01  0.00000000000E+00 0.  1.
</event>
<event>
 7    1  0.2900470E-011  0.5052887E+02  0.7816164E-02  0.1300439E+00
        -11   -1    0    0    0    0  0.00000000000E+00  0.00000000000E+00  0.45593999997E+02  0.45594000000E+02  0.51100000000E-03 0.  1.
         11   -1    0    0    0    0 -0.00000000000E+00 -0.00000000000E+00 -0.45593999997E+02  0.45594000000E+02  0.51100000000E-03 0. -1.
    9900012    2    1    2    0    0 -0.70872081707E+01 -0.37079019564E+02  0.15102395813E+02  0.50528873463E+02  0.30000041378E+02 0.  0.
         12    1    1    2    0    0  0.70872081707E+01  0.37079019564E+02 -0.15102395813E+02  0.40659126537E+02  0.00000000000E+00 0. -1.
         11    1    3    3    0    0 -0.17008546923E+02 -0.13710092673E+02  0.10002010152E+02  0.24027016395E+02  0.51100000000E-03 0. -1.
        -11    1    3    3    0    0  0.66797801152E+01 -0.11950830420E+02  0.51637714171E+01  0.14632373206E+02  0.51100000000E-03 0.  1.
        -12    1    3    3    0    0  0.32415586367E+01 -0.11418096470E+02 -0.63385755869E-01  0.11869483862E+02  0.00000000000E+00 0.  1.
</event>
<event>
 7    1  0.2900470E-011  0.5052886E+02  0.7816164E-02  0.1300439E+00
        -11   -1    0    0    0    0  0.00000000000E+00  0.00000000000E+00  0.45593999997E+02  0.45594000000E+02  0.51100000000E-03 0.  1.
         11   -1    0    0    0    0 -0.00000000000E+00 -0.00000000000E+00 -0.45593999997E+02  0.45594000000E+02  0.51100000000E-03 0. -1.
    9900012    2    1    2    0    0 -0.14349185521E+02 -0.37502083515E+02  0.63921925642E+01  0.50528861804E+02  0.30000005940E+02 0.  0.
         12    1    1    2    0    0  0.14349185521E+02  0.37502083515E+02 -0.63921925642E+01  0.40659138196E+02  0.00000000000E+00 0. -1.
         11    1    3    3    0    0 -0.64758040871E+01 -0.10126564510E+01  0.10630663934E+02  0.12488896172E+02  0.51100000000E-03 0. -1.
        -11    1    3    3    0    0 -0.87434328851E+01 -0.30633914050E+02 -0.30586770271E+01  0.32003746875E+02  0.51100000000E-03 0.  1.
         12    1    3    3    0    0  0.87005145174E+00 -0.58555130142E+01 -0.11797943429E+01  0.60362187568E+01  0.00000000000E+00 0. -1.
</event>
<event>
 7    1  0.2900470E-011  0.5052886E+02  0.7816164E-02  0.1300439E+00
        -11   -1    0    0    0    0  0.00000000000E+00  0.00000000000E+00  0.45593999997E+02  0.45594000000E+02  0.51100000000E-03 0. -1.
         11   -1    0    0    0    0 -0.00000000000E+00 -0.00000000000E+00 -0.45593999997E+02  0.45594000000E+02  0.51100000000E-03 0.  1.
    9900012    2    1    2    0    0  0.26748262605E+02 -0.13897800230E+02 -0.27286389948E+02  0.50528862282E+02  0.30000007391E+02 0.  0.
         12    1    1    2    0    0 -0.26748262605E+02  0.13897800230E+02  0.27286389948E+02  0.40659137718E+02  0.00000000000E+00 0. -1.
         11    1    3    3    0    0 -0.37411568139E+01 -0.75100320657E+01 -0.74781291462E+01  0.11239183766E+02  0.51100000000E-03 0. -1.
        -11    1    3    3    0    0  0.12454763872E+02 -0.70766610489E+01 -0.30177531622E+01  0.14639231848E+02  0.51100000000E-03 0.  1.
         12    1    3    3    0    0  0.18034655547E+02  0.68889288468E+00 -0.16790507640E+02  0.24650446668E+02  0.00000000000E+00 0. -1.
</event>
<event>
 7    1  0.2900470E-011  0.5052887E+02  0.7816164E-02  0.1300439E+00
        -11   -1    0    0    0    0  0.00000000000E+00  0.00000000000E+00  0.45593999997E+02  0.45594000000E+02  0.51100000000E-03 0.  1.
         11   -1    0    0    0    0 -0.00000000000E+00 -0.00000000000E+00 -0.45593999997E+02  0.45594000000E+02  0.51100000000E-03 0. -1.
    9900012    2    1    2    0    0  0.15915968116E+01  0.32491832450E+02  0.24390833450E+02  0.50528866798E+02  0.30000021118E+02 0.  0.
         12    1    1    2    0    0 -0.15915968116E+01 -0.32491832450E+02 -0.24390833450E+02  0.40659133202E+02  0.00000000000E+00 0. -1.
         11    1    3    3    0    0  0.50665575539E+01  0.80543258418E+01 -0.56746143755E+01  0.11078962893E+02  0.51100000000E-03 0. -1.
        -11    1    3    3    0    0 -0.54022059502E+01  0.17186193681E+02  0.21978817949E+02  0.28418612230E+02  0.51100000000E-03 0.  1.
         12    1    3    3    0    0  0.19272452079E+01  0.72513129272E+01  0.80866298758E+01  0.11031291674E+02  0.00000000000E+00 0. -1.
</event>
<event>
 7    1  0.2900470E-011  0.5052886E+02  0.7816164E-02  0.1300439E+00
        -11   -1    0    0    0    0  0.00000000000E+00  0.00000000000E+00  0.45593999997E+02  0.45594000000E+02  0.51100000000E-03 0.  1.
         11   -1    0    0    0    0 -0.00000000000E+00 -0.00000000000E+00 -0.45593999997E+02  0.45594000000E+02  0.51100000000E-03 0. -1.
    9900012    2    1    2    0    0  0.16591504193E+02  0.19268159455E+02  0.31727368979E+02  0.50528856840E+02  0.29999990850E+02 0.  0.
         12    1    1    2    0    0 -0.16591504193E+02 -0.19268159455E+02 -0.31727368979E+02  0.40659143160E+02  0.00000000000E+00 0. -1.
         11    1    3    3    0    0  0.18857106389E+02  0.15683454163E+02  0.14828454504E+02  0.28660848889E+02  0.51100000000E-03 0. -1.
        -11    1    3    3    0    0 -0.65608128173E+00  0.73171883810E+01  0.16139592908E+02  0.17732967827E+02  0.51100000000E-03 0.  1.
         12    1    3    3    0    0 -0.16095209141E+01 -0.37324830886E+01  0.75932156766E+00  0.41350401235E+01  0.00000000000E+00 0. -1.
</event>
<event>
 7    1  0.2900470E-011  0.5052885E+02  0.7816164E-02  0.1300439E+00
        -11   -1    0    0    0    0  0.00000000000E+00  0.00000000000E+00  0.45593999997E+02  0.45594000000E+02  0.51100000000E-03 0.  1.
         11   -1    0    0    0    0 -0.00000000000E+00 -0.00000000000E+00 -0.45593999997E+02  0.45594000000E+02  0.51100000000E-03 0. -1.
    9900012    2    1    2    0    0  0.16235825020E+02 -0.27814307480E+02  0.24817904204E+02  0.50528854856E+02  0.29999984822E+02 0.  0.
         12    1    1    2    0    0 -0.16235825020E+02  0.27814307480E+02 -0.24817904204E+02  0.40659145144E+02  0.00000000000E+00 0. -1.
         11    1    3    3    0    0 -0.30982950557E+01 -0.64246336273E+01  0.11658254712E+01  0.72273438266E+01  0.51100000000E-03 0. -1.
        -11    1    3    3    0    0  0.19267214080E+02 -0.22054364999E+02  0.12029237679E+02  0.31659486940E+02  0.51100000000E-03 0.  1.
        -12    1    3    3    0    0  0.66905996100E-01  0.66469114580E+00  0.11622841055E+02  0.11642024090E+02  0.00000000000E+00 0.  1.
</event>
<event>
 7    1  0.2900470E-011  0.5052886E+02  0.7816164E-02  0.1300439E+00
        -11   -1    0    0    0    0  0.00000000000E+00  0.00000000000E+00  0.45593999997E+02  0.45594000000E+02  0.51100000000E-03 0.  1.
         11   -1    0    0    0    0 -0.00000000000E+00 -0.00000000000E+00 -0.45593999997E+02  0.45594000000E+02  0.51100000000E-03 0. -1.
    9900012    2    1    2    0    0  0.50409697577E+01  0.39877856725E+02 -0.61246043245E+01  0.50528860668E+02  0.30000002485E+02 0.  0.
         12    1    1    2    0    0 -0.50409697577E+01 -0.39877856725E+02  0.61246043245E+01  0.40659139332E+02  0.00000000000E+00 0. -1.
         11    1    3    3    0    0  0.49078397796E+01  0.42596381924E+01 -0.96623751958E+01  0.11644436591E+02  0.51100000000E-03 0. -1.
        -11    1    3    3    0    0  0.45913294212E+00  0.27729651064E+02 -0.39376903322E+01  0.28011600393E+02  0.51100000000E-03 0.  1.
         12    1    3    3    0    0 -0.32600296407E+00  0.78885674692E+01  0.74754612034E+01  0.10872823683E+02  0.00000000000E+00 0. -1.
</event>
<event>
 7    1  0.2900470E-011  0.5052886E+02  0.7816164E-02  0.1300439E+00
        -11   -1    0    0    0    0  0.00000000000E+00  0.00000000000E+00  0.45593999997E+02  0.45594000000E+02  0.51100000000E-03 0.  1.
         11   -1    0    0    0    0 -0.00000000000E+00 -0.00000000000E+00 -0.45593999997E+02  0.45594000000E+02  0.51100000000E-03 0. -1.
    9900012    2    1    2    0    0  0.36089312652E+02 -0.15532412305E+02  0.10462852486E+02  0.50528860783E+02  0.30000002837E+02 0.  0.
         12    1    1    2    0    0 -0.36089312652E+02  0.15532412305E+02 -0.10462852486E+02  0.40659139217E+02  0.00000000000E+00 0. -1.
         11    1    3    3    0    0  0.14850428615E+02 -0.25810040447E+01  0.13936212618E+02  0.20528390934E+02  0.51100000000E-03 0. -1.
        -11    1    3    3    0    0  0.13910943479E+02 -0.19418770034E+01 -0.78240103367E+01  0.16077946784E+02  0.51100000000E-03 0.  1.
        -12    1    3    3    0    0  0.73279405575E+01 -0.11009531257E+02  0.43506502050E+01  0.13922523066E+02  0.00000000000E+00 0.  1.
</event>
<event>
 7    1  0.2900470E-011  0.5052887E+02  0.7816164E-02  0.1300439E+00
        -11   -1    0    0    0    0  0.00000000000E+00  0.00000000000E+00  0.45593999997E+02  0.45594000000E+02  0.51100000000E-03 0.  1.
         11   -1    0    0    0    0 -0.00000000000E+00 -0.00000000000E+00 -0.45593999997E+02  0.45594000000E+02  0.51100000000E-03 0. -1.
    9900012    2    1    2    0    0  0.38962623515E+02 -0.11583544006E+02  0.94902613447E+00  0.50528866051E+02  0.30000018848E+02 0.  0.
         12    1    1    2    0    0 -0.38962623515E+02  0.11583544006E+02 -0.94902613447E+00  0.40659133949E+02  0.00000000000E+00 0. -1.
         11    1    3    3    0    0 -0.13033282723E+01 -0.91172598570E+01 -0.18178261492E+01  0.93876293096E+01  0.51100000000E-03 0. -1.
        -11    1    3    3    0    0  0.25661121523E+02 -0.29424470511E+01  0.51441168686E+01  0.26336535290E+02  0.51100000000E-03 0.  1.
         12    1    3    3    0    0  0.14604830264E+02  0.47616290154E+00 -0.23772645850E+01  0.14804701451E+02  0.00000000000E+00 0. -1.
</event>
<event>
 7    1  0.2900470E-011  0.5052889E+02  0.7816164E-02  0.1300439E+00
        -11   -1    0    0    0    0  0.00000000000E+00  0.00000000000E+00  0.45593999997E+02  0.45594000000E+02  0.51100000000E-03 0.  1.
         11   -1    0    0    0    0 -0.00000000000E+00 -0.00000000000E+00 -0.45593999997E+02  0.45594000000E+02  0.51100000000E-03 0. -1.
    9900012    2    1    2    0    0  0.13265578768E+02 -0.81223725533E+01  0.37566139201E+02  0.50528888716E+02  0.30000087740E+02 0.  0.
         12    1    1    2    0    0 -0.13265578768E+02  0.81223725533E+01 -0.37566139201E+02  0.40659111284E+02  0.00000000000E+00 0. -1.
         11    1    3    3    0    0 -0.25844728035E+01 -0.98562861584E+00  0.11519297253E+01  0.29963153695E+01  0.51100000000E-03 0. -1.
        -11    1    3    3    0    0  0.18864171812E+02 -0.41012037419E+01  0.38274808073E+02  0.42867677609E+02  0.51100000000E-03 0.  1.
        -12    1    3    3    0    0 -0.30141202408E+01 -0.30355401955E+01 -0.18605985968E+01  0.46648957376E+01  0.00000000000E+00 0.  1.
</event>
<event>
 7    1  0.2900470E-011  0.5052885E+02  0.7816164E-02  0.1300439E+00
        -11   -1    0    0    0    0  0.00000000000E+00  0.00000000000E+00  0.45593999997E+02  0.45594000000E+02  0.51100000000E-03 0. -1.
         11   -1    0    0    0    0 -0.00000000000E+00 -0.00000000000E+00 -0.45593999997E+02  0.45594000000E+02  0.51100000000E-03 0.  1.
    9900012    2    1    2    0    0 -0.28514444392E+02  0.36332780893E+01 -0.28755728374E+02  0.50528853883E+02  0.29999981863E+02 0.  0.
         12    1    1    2    0    0  0.28514444392E+02 -0.36332780893E+01  0.28755728374E+02  0.40659146117E+02  0.00000000000E+00 0. -1.
         11    1    3    3    0    0 -0.14209322671E+02  0.28829888246E+01 -0.64491000353E+01  0.15868439333E+02  0.51100000000E-03 0.  1.
        -11    1    3    3    0    0  0.20752047810E+01  0.81491854026E+01 -0.54643099961E+01  0.10028677959E+02  0.51100000000E-03 0. -1.
        -12    1    3    3    0    0 -0.16380326502E+02 -0.73988961379E+01 -0.16842318342E+02  0.24631736592E+02  0.00000000000E+00 0.  1.
</event>
<event>
 7    1  0.2900470E-011  0.5052879E+02  0.7816164E-02  0.1300439E+00
        -11   -1    0    0    0    0  0.00000000000E+00  0.00000000000E+00  0.45593999997E+02  0.45594000000E+02  0.51100000000E-03 0. -1.
         11   -1    0    0    0    0 -0.00000000000E+00 -0.00000000000E+00 -0.45593999997E+02  0.45594000000E+02  0.51100000000E-03 0.  1.
    9900012    2    1    2    0    0  0.65201005138E+00  0.40405682853E+02 -0.44863402428E+01  0.50528787357E+02  0.29999779651E+02 0.  0.
         12    1    1    2    0    0 -0.65201005138E+00 -0.40405682853E+02  0.44863402428E+01  0.40659212643E+02  0.00000000000E+00 0. -1.
         11    1    3    3    0    0 -0.84924622128E+00 -0.70654589306E+00  0.16042745348E+01  0.19478509408E+01  0.51100000000E-03 0. -1.
        -11    1    3    3    0    0  0.13225697557E+02  0.18971651536E+02 -0.35807910581E+01  0.23402237130E+02  0.51100000000E-03 0.  1.
        -12    1    3    3    0    0 -0.11724441284E+02  0.22140577211E+02 -0.25098237195E+01  0.25178699286E+02  0.00000000000E+00 0.  1.
</event>
<event>
 7    1  0.2900470E-011  0.5052887E+02  0.7816164E-02  0.1300439E+00
        -11   -1    0    0    0    0  0.00000000000E+00  0.00000000000E+00  0.45593999997E+02  0.45594000000E+02  0.51100000000E-03 0.  1.
         11   -1    0    0    0    0 -0.00000000000E+00 -0.00000000000E+00 -0.45593999997E+02  0.45594000000E+02  0.51100000000E-03 0. -1.
    9900012    2    1    2    0    0 -0.13460913599E+02  0.37814321612E+02  0.64842844054E+01  0.50528867469E+02  0.30000023160E+02 0.  0.
         12    1    1    2    0    0  0.13460913599E+02 -0.37814321612E+02 -0.64842844054E+01  0.40659132531E+02  0.00000000000E+00 0. -1.
         11    1    3    3    0    0  0.15416116588E+00 -0.13569036219E+01 -0.66953515282E+01  0.68332046254E+01  0.51100000000E-03 0. -1.
        -11    1    3    3    0    0 -0.76648067028E+01  0.17281968689E+02  0.72683002202E+01  0.20254478317E+02  0.51100000000E-03 0.  1.
         12    1    3    3    0    0 -0.59502680624E+01  0.21889256545E+02  0.59113357135E+01  0.23441184527E+02  0.00000000000E+00 0. -1.
</event>
<event>
 7    1  0.2900470E-011  0.5052886E+02  0.7816164E-02  0.1300439E+00
        -11   -1    0    0    0    0  0.00000000000E+00  0.00000000000E+00  0.45593999997E+02  0.45594000000E+02  0.51100000000E-03 0.  1.
         11   -1    0    0    0    0 -0.00000000000E+00 -0.00000000000E+00 -0.45593999997E+02  0.45594000000E+02  0.51100000000E-03 0. -1.
    9900012    2    1    2    0    0 -0.21466463685E+02 -0.42964852159E+01  0.34262182540E+02  0.50528855878E+02  0.29999987926E+02 0.  0.
         12    1    1    2    0    0  0.21466463685E+02  0.42964852159E+01 -0.34262182540E+02  0.40659144122E+02  0.00000000000E+00 0. -1.
         11    1    3    3    0    0 -0.22342905975E+01 -0.12056578164E+02  0.56089668446E+01  0.13483828864E+02  0.51100000000E-03 0. -1.
        -11    1    3    3    0    0 -0.23174103454E+01  0.53520517298E+01  0.11163136509E+02  0.12594858690E+02  0.51100000000E-03 0.  1.
         12    1    3    3    0    0 -0.16914762742E+02  0.24080412188E+01  0.17490079186E+02  0.24450168324E+02  0.00000000000E+00 0. -1.
</event>
<event>
 7    1  0.2900470E-011  0.5052892E+02  0.7816164E-02  0.1300439E+00
        -11   -1    0    0    0    0  0.00000000000E+00  0.00000000000E+00  0.45593999997E+02  0.45594000000E+02  0.51100000000E-03 0.  1.
         11   -1    0    0    0    0 -0.00000000000E+00 -0.00000000000E+00 -0.45593999997E+02  0.45594000000E+02  0.51100000000E-03 0. -1.
    9900012    2    1    2    0    0  0.18832044989E+02  0.95637555078E+00  0.36022217910E+02  0.50528920377E+02  0.30000183977E+02 0.  0.
         12    1    1    2    0    0 -0.18832044989E+02 -0.95637555078E+00 -0.36022217910E+02  0.40659079623E+02  0.00000000000E+00 0. -1.
         11    1    3    3    0    0 -0.44665938461E+01  0.36189019629E+01 -0.37162819077E+00  0.57606440418E+01  0.51100000000E-03 0. -1.
        -11    1    3    3    0    0  0.17420140759E+02  0.31965746551E+01  0.23334599530E+02  0.29294759413E+02  0.51100000000E-03 0.  1.
        -12    1    3    3    0    0  0.58784980762E+01 -0.58591010672E+01  0.13059246570E+02  0.15473516922E+02  0.00000000000E+00 0.  1.
</event>
<event>
 7    1  0.2900470E-011  0.5052887E+02  0.7816164E-02  0.1300439E+00
        -11   -1    0    0    0    0  0.00000000000E+00  0.00000000000E+00  0.45593999997E+02  0.45594000000E+02  0.51100000000E-03 0. -1.
         11   -1    0    0    0    0 -0.00000000000E+00 -0.00000000000E+00 -0.45593999997E+02  0.45594000000E+02  0.51100000000E-03 0.  1.
    9900012    2    1    2    0    0 -0.30732720687E+02  0.15584692298E+02 -0.21581988772E+02  0.50528868256E+02  0.30000025552E+02 0.  0.
         12    1    1    2    0    0  0.30732720687E+02 -0.15584692298E+02  0.21581988772E+02  0.40659131744E+02  0.00000000000E+00 0. -1.
         11    1    3    3    0    0 -0.20694034195E+02  0.92890698270E+01 -0.52339422685E+01  0.23279261617E+02  0.51100000000E-03 0.  1.
        -11    1    3    3    0    0 -0.44633897414E+01 -0.13327622651E+01 -0.17145887862E+02  0.17767373866E+02  0.51100000000E-03 0. -1.
         12    1    3    3    0    0 -0.55752967501E+01  0.76283847359E+01  0.79784135926E+00  0.94822327732E+01  0.00000000000E+00 0. -1.
</event>
<event>
 7    1  0.2900470E-011  0.5052887E+02  0.7816164E-02  0.1300439E+00
        -11   -1    0    0    0    0  0.00000000000E+00  0.00000000000E+00  0.45593999997E+02  0.45594000000E+02  0.51100000000E-03 0. -1.
         11   -1    0    0    0    0 -0.00000000000E+00 -0.00000000000E+00 -0.45593999997E+02  0.45594000000E+02  0.51100000000E-03 0.  1.
    9900012    2    1    2    0    0 -0.19591729118E+02  0.31226546683E+02 -0.17153192918E+02  0.50528867018E+02  0.30000021787E+02 0.  0.
         12    1    1    2    0    0  0.19591729118E+02 -0.31226546683E+02  0.17153192918E+02  0.40659132982E+02  0.00000000000E+00 0. -1.
         11    1    3    3    0    0  0.44454149681E+01  0.79046380378E+01 -0.11074445573E+02  0.14313921956E+02  0.51100000000E-03 0. -1.
        -11    1    3    3    0    0 -0.98545947606E+01  0.17155680257E+02 -0.55285998460E+00  0.19792323194E+02  0.51100000000E-03 0.  1.
         12    1    3    3    0    0 -0.14182549325E+02  0.61662283886E+01 -0.55258873598E+01  0.16422621868E+02  0.00000000000E+00 0. -1.
</event>
<event>
 7    1  0.2900470E-011  0.5052887E+02  0.7816164E-02  0.1300439E+00
        -11   -1    0    0    0    0  0.00000000000E+00  0.00000000000E+00  0.45593999997E+02  0.45594000000E+02  0.51100000000E-03 0.  1.
         11   -1    0    0    0    0 -0.00000000000E+00 -0.00000000000E+00 -0.45593999997E+02  0.45594000000E+02  0.51100000000E-03 0. -1.
    9900012    2    1    2    0    0 -0.78008706624E+00  0.38255161486E+02 -0.13751324846E+02  0.50528870015E+02  0.30000030897E+02 0.  0.
         12    1    1    2    0    0  0.78008706624E+00 -0.38255161486E+02  0.13751324846E+02  0.40659129985E+02  0.00000000000E+00 0. -1.
         11    1    3    3    0    0  0.47770485598E+01  0.11090229300E+01 -0.85638841647E+01  0.98686492008E+01  0.51100000000E-03 0. -1.
        -11    1    3    3    0    0 -0.45265938062E+01  0.33307939232E+02 -0.93650055609E+01  0.34894300348E+02  0.51100000000E-03 0.  1.
         12    1    3    3    0    0 -0.10305418198E+01  0.38381993244E+01  0.41775648799E+01  0.57659204661E+01  0.00000000000E+00 0. -1.
</event>
<event>
 7    1  0.3164918E-011  0.5052887E+02  0.7816164E-02  0.1300439E+00
        -11   -1    0    0    0    0  0.00000000000E+00  0.00000000000E+00  0.45593999997E+02  0.45594000000E+02  0.51100000000E-03 0. -1.
         11   -1    0    0    0    0 -0.00000000000E+00 -0.00000000000E+00 -0.45593999997E+02  0.45594000000E+02  0.51100000000E-03 0.  1.
    9900012    2    1    2    0    0  0.37331377261E+02  0.16938330502E+01 -0.16020733459E+02  0.50528871884E+02  0.30000036580E+02 0.  0.
         12    1    1    2    0    0 -0.37331377261E+02 -0.16938330502E+01  0.16020733459E+02  0.40659128116E+02  0.00000000000E+00 0. -1.
         11    1    3    3    0    0  0.40559448983E+00 -0.19054539234E+01  0.50512381564E+01  0.54138958910E+01  0.51100000000E-03 0. -1.
        -11    1    3    3    0    0  0.27404815557E+02 -0.35500674573E+01 -0.17398498252E+02  0.32654779686E+02  0.51100000000E-03 0.  1.
         12    1    3    3    0    0  0.95209672139E+01  0.71493544310E+01 -0.36734733630E+01  0.12460196307E+02  0.00000000000E+00 0. -1.
</event>
<event>
 7    1  0.2900470E-011  0.5052884E+02  0.7816164E-02  0.1300439E+00
        -11   -1    0    0    0    0  0.00000000000E+00  0.00000000000E+00  0.45593999997E+02  0.45594000000E+02  0.51100000000E-03 0.  1.
         11   -1    0    0    0    0 -0.00000000000E+00 -0.00000000000E+00 -0.45593999997E+02  0.45594000000E+02  0.51100000000E-03 0. -1.
    9900012    2    1    2    0    0 -0.17010608122E+02  0.36867024029E+02 -0.21515137817E+01  0.50528840380E+02  0.29999940819E+02 0.  0.
         12    1    1    2    0    0  0.17010608122E+02 -0.36867024029E+02  0.21515137817E+01  0.40659159620E+02  0.00000000000E+00 0. -1.
         11    1    3    3    0    0 -0.14298577496E+02  0.18916558680E+02  0.30736890020E+01  0.23910940489E+02  0.51100000000E-03 0. -1.
        -11    1    3    3    0    0  0.19294961922E+01  0.19882026841E+02 -0.91599958731E+00  0.19996424740E+02  0.51100000000E-03 0.  1.
         12    1    3    3    0    0 -0.46415268178E+01 -0.19315614918E+01 -0.43092031964E+01  0.66214751517E+01  0.00000000000E+00 0. -1.
</event>
<event>
 7    1  0.2900470E-011  0.5052881E+02  0.7816164E-02  0.1300439E+00
        -11   -1    0    0    0    0  0.00000000000E+00  0.00000000000E+00  0.45593999997E+02  0.45594000000E+02  0.51100000000E-03 0. -1.
         11   -1    0    0    0    0 -0.00000000000E+00 -0.00000000000E+00 -0.45593999997E+02  0.45594000000E+02  0.51100000000E-03 0.  1.
    9900012    2    1    2    0    0 -0.25206191094E+02 -0.18928887803E+02 -0.25681017112E+02  0.50528812811E+02  0.29999857021E+02 0.  0.
         12    1    1    2    0    0  0.25206191094E+02  0.18928887803E+02  0.25681017112E+02  0.40659187189E+02  0.00000000000E+00 0. -1.
         11    1    3    3    0    0 -0.14323474987E+02 -0.15732154663E+02 -0.32087063871E+01  0.21516468646E+02  0.51100000000E-03 0. -1.
        -11    1    3    3    0    0 -0.19014181335E+01  0.47571517227E+01 -0.12149733444E+02  0.13185670497E+02  0.51100000000E-03 0.  1.
        -12    1    3    3    0    0 -0.89812979727E+01 -0.79538848624E+01 -0.10322577281E+02  0.15826673668E+02  0.00000000000E+00 0.  1.
</event>
<event>
 7    1  0.2900470E-011  0.5052886E+02  0.7816164E-02  0.1300439E+00
        -11   -1    0    0    0    0  0.00000000000E+00  0.00000000000E+00  0.45593999997E+02  0.45594000000E+02  0.51100000000E-03 0.  1.
         11   -1    0    0    0    0 -0.00000000000E+00 -0.00000000000E+00 -0.45593999997E+02  0.45594000000E+02  0.51100000000E-03 0. -1.
    9900012    2    1    2    0    0 -0.10484495050E+02  0.23305762733E+02  0.31624074058E+02  0.50528864826E+02  0.30000015125E+02 0.  0.
         12    1    1    2    0    0  0.10484495050E+02 -0.23305762733E+02 -0.31624074058E+02  0.40659135174E+02  0.00000000000E+00 0. -1.
         11    1    3    3    0    0 -0.56599576635E+01  0.20630903301E+02  0.16573520101E+02  0.27061981830E+02  0.51100000000E-03 0. -1.
        -11    1    3    3    0    0  0.23787070303E+01 -0.57107485480E+01  0.88323517376E+01  0.10783382289E+02  0.51100000000E-03 0.  1.
        -12    1    3    3    0    0 -0.72032444172E+01  0.83856079801E+01  0.62182022202E+01  0.12683500707E+02  0.00000000000E+00 0.  1.
</event>
<event>
 7    1  0.2900470E-011  0.5052886E+02  0.7816164E-02  0.1300439E+00
        -11   -1    0    0    0    0  0.00000000000E+00  0.00000000000E+00  0.45593999997E+02  0.45594000000E+02  0.51100000000E-03 0.  1.
         11   -1    0    0    0    0 -0.00000000000E+00 -0.00000000000E+00 -0.45593999997E+02  0.45594000000E+02  0.51100000000E-03 0. -1.
    9900012    2    1    2    0    0  0.38697950689E+02  0.15268923772E+01  0.12381563319E+02  0.50528857140E+02  0.29999991764E+02 0.  0.
         12    1    1    2    0    0 -0.38697950689E+02 -0.15268923772E+01 -0.12381563319E+02  0.40659142860E+02  0.00000000000E+00 0. -1.
         11    1    3    3    0    0  0.11387671173E+02  0.58442177152E+01  0.18681533221E+01  0.12935375238E+02  0.51100000000E-03 0. -1.
        -11    1    3    3    0    0  0.24211301323E+02 -0.10935011904E+02  0.23998378547E+01  0.26674347585E+02  0.51100000000E-03 0.  1.
        -12    1    3    3    0    0  0.30989781928E+01  0.66176865662E+01  0.81135721426E+01  0.10919134317E+02  0.00000000000E+00 0.  1.
</event>
<event>
 7    1  0.2900470E-011  0.5052885E+02  0.7816164E-02  0.1300439E+00
        -11   -1    0    0    0    0  0.00000000000E+00  0.00000000000E+00  0.45593999997E+02  0.45594000000E+02  0.51100000000E-03 0.  1.
         11   -1    0    0    0    0 -0.00000000000E+00 -0.00000000000E+00 -0.45593999997E+02  0.45594000000E+02  0.51100000000E-03 0. -1.
    9900012    2    1    2    0    0 -0.30312905183E+02  0.23514612237E+02 -0.13466884906E+02  0.50528853448E+02  0.29999980541E+02 0.  0.
         12    1    1    2    0    0  0.30312905183E+02 -0.23514612237E+02  0.13466884906E+02  0.40659146552E+02  0.00000000000E+00 0. -1.
         11    1    3    3    0    0 -0.31675449024E+02  0.24339954075E+02 -0.15975106827E+02  0.43022918005E+02  0.51100000000E-03 0. -1.
        -11    1    3    3    0    0  0.12777169541E+01 -0.20563451778E+01  0.45305859242E+01  0.51368594669E+01  0.51100000000E-03 0.  1.
         12    1    3    3    0    0  0.84826887092E-01  0.12310033390E+01 -0.20223640035E+01  0.23690759768E+01  0.00000000000E+00 0. -1.
</event>
<event>
 7    1  0.2934536E-011  0.5052885E+02  0.7816164E-02  0.1300439E+00
        -11   -1    0    0    0    0  0.00000000000E+00  0.00000000000E+00  0.45593999997E+02  0.45594000000E+02  0.51100000000E-03 0. -1.
         11   -1    0    0    0    0 -0.00000000000E+00 -0.00000000000E+00 -0.45593999997E+02  0.45594000000E+02  0.51100000000E-03 0.  1.
    9900012    2    1    2    0    0  0.36453868466E+02 -0.11142776203E+01 -0.17973319735E+02  0.50528851422E+02  0.29999974383E+02 0.  0.
         12    1    1    2    0    0 -0.36453868466E+02  0.11142776203E+01  0.17973319735E+02  0.40659148578E+02  0.00000000000E+00 0. -1.
         11    1    3    3    0    0  0.13606374598E+02  0.17424874324E+01  0.67522660241E+01  0.15289303087E+02  0.51100000000E-03 0. -1.
        -11    1    3    3    0    0  0.16774252925E+02  0.22599886473E+01 -0.14464943643E+02  0.22264718833E+02  0.51100000000E-03 0.  1.
         12    1    3    3    0    0  0.60732409433E+01 -0.51167537000E+01 -0.10260642116E+02  0.12974829502E+02  0.00000000000E+00 0. -1.
</event>
<event>
 7    1  0.2900470E-011  0.5052885E+02  0.7816164E-02  0.1300439E+00
        -11   -1    0    0    0    0  0.00000000000E+00  0.00000000000E+00  0.45593999997E+02  0.45594000000E+02  0.51100000000E-03 0.  1.
         11   -1    0    0    0    0 -0.00000000000E+00 -0.00000000000E+00 -0.45593999997E+02  0.45594000000E+02  0.51100000000E-03 0. -1.
    9900012    2    1    2    0    0  0.30294978191E+02  0.10801318894E+02  0.24873924281E+02  0.50528852166E+02  0.29999976645E+02 0.  0.
         12    1    1    2    0    0 -0.30294978191E+02 -0.10801318894E+02 -0.24873924281E+02  0.40659147834E+02  0.00000000000E+00 0. -1.
         11    1    3    3    0    0 -0.94670201775E+00  0.25524464014E+01  0.50539300645E+01  0.57405084009E+01  0.51100000000E-03 0. -1.
        -11    1    3    3    0    0  0.33320674496E+02  0.53533440878E+01  0.11360980198E+02  0.35608952710E+02  0.51100000000E-03 0.  1.
        -12    1    3    3    0    0 -0.20789942875E+01  0.28955284044E+01  0.84590140178E+01  0.91793910550E+01  0.00000000000E+00 0.  1.
</event>
<event>
 7    1  0.2900470E-011  0.5052886E+02  0.7816164E-02  0.1300439E+00
        -11   -1    0    0    0    0  0.00000000000E+00  0.00000000000E+00  0.45593999997E+02  0.45594000000E+02  0.51100000000E-03 0.  1.
         11   -1    0    0    0    0 -0.00000000000E+00 -0.00000000000E+00 -0.45593999997E+02  0.45594000000E+02  0.51100000000E-03 0. -1.
    9900012    2    1    2    0    0  0.24634182090E+02 -0.23697244890E+02 -0.22017336656E+02  0.50528862576E+02  0.30000008287E+02 0.  0.
         12    1    1    2    0    0 -0.24634182090E+02  0.23697244890E+02  0.22017336656E+02  0.40659137424E+02  0.00000000000E+00 0. -1.
         11    1    3    3    0    0 -0.25031575143E+01 -0.74702541299E+00 -0.87025788113E+00  0.27533967295E+01  0.51100000000E-03 0. -1.
        -11    1    3    3    0    0  0.17439390896E+02 -0.26841170385E+02 -0.13097206318E+02  0.34584933079E+02  0.51100000000E-03 0.  1.
        -12    1    3    3    0    0  0.96979487082E+01  0.38909509087E+01 -0.80498724568E+01  0.13190532768E+02  0.00000000000E+00 0.  1.
</event>
<event>
 7    1  0.2900470E-011  0.5052886E+02  0.7816164E-02  0.1300439E+00
        -11   -1    0    0    0    0  0.00000000000E+00  0.00000000000E+00  0.45593999997E+02  0.45594000000E+02  0.51100000000E-03 0. -1.
         11   -1    0    0    0    0 -0.00000000000E+00 -0.00000000000E+00 -0.45593999997E+02  0.45594000000E+02  0.51100000000E-03 0.  1.
    9900012    2    1    2    0    0  0.67378479819E+00 -0.20167011623E+02 -0.35298775697E+02  0.50528857000E+02  0.29999991338E+02 0.  0.
         12    1    1    2    0    0 -0.67378479819E+00  0.20167011623E+02  0.35298775697E+02  0.40659143000E+02  0.00000000000E+00 0. -1.
         11    1    3    3    0    0  0.69891231185E+01  0.22874608090E+01 -0.48431359971E+01  0.88054690656E+01  0.51100000000E-03 0. -1.
        -11    1    3    3    0    0 -0.35599947259E+01 -0.13003615580E+02 -0.28720247865E+02  0.31727278773E+02  0.51100000000E-03 0.  1.
         12    1    3    3    0    0 -0.27553435944E+01 -0.94508568520E+01 -0.17353918346E+01  0.99961091620E+01  0.00000000000E+00 0. -1.
</event>
<event>
 7    1  0.2900470E-011  0.5052885E+02  0.7816164E-02  0.1300439E+00
        -11   -1    0    0    0    0  0.00000000000E+00  0.00000000000E+00  0.45593999997E+02  0.45594000000E+02  0.51100000000E-03 0.  1.
         11   -1    0    0    0    0 -0.00000000000E+00 -0.00000000000E+00 -0.45593999997E+02  0.45594000000E+02  0.51100000000E-03 0. -1.
    9900012    2    1    2    0    0 -0.14748089878E+01  0.39925720252E+02  0.75450645361E+01  0.50528853451E+02  0.29999980551E+02 0.  0.
         12    1    1    2    0    0  0.14748089878E+01 -0.39925720252E+02 -0.75450645361E+01  0.40659146549E+02  0.00000000000E+00 0. -1.
         11    1    3    3    0    0 -0.20315012923E+01  0.30011420907E+02  0.14600258814E+02  0.33436207023E+02  0.51100000000E-03 0. -1.
        -11    1    3    3    0    0 -0.27653805245E+01  0.10674097707E+02 -0.79208317682E+01  0.13576570534E+02  0.51100000000E-03 0.  1.
         12    1    3    3    0    0  0.33220728290E+01 -0.75979836201E+00  0.86563749051E+00  0.35160758946E+01  0.00000000000E+00 0. -1.
</event>
<event>
 7    1  0.2900470E-011  0.5052887E+02  0.7816164E-02  0.1300439E+00
        -11   -1    0    0    0    0  0.00000000000E+00  0.00000000000E+00  0.45593999997E+02  0.45594000000E+02  0.51100000000E-03 0. -1.
         11   -1    0    0    0    0 -0.00000000000E+00 -0.00000000000E+00 -0.45593999997E+02  0.45594000000E+02  0.51100000000E-03 0.  1.
    9900012    2    1    2    0    0 -0.12696923014E+02  0.28775585336E+02 -0.25766617034E+02  0.50528871642E+02  0.30000035842E+02 0.  0.
         12    1    1    2    0    0  0.12696923014E+02 -0.28775585336E+02  0.25766617034E+02  0.40659128358E+02  0.00000000000E+00 0. -1.
         11    1    3    3    0    0  0.69421347164E+01  0.60847477737E+00 -0.43446361331E+01  0.82121458441E+01  0.51100000000E-03 0. -1.
        -11    1    3    3    0    0 -0.16700550853E+02  0.20498028893E+02 -0.21539377865E+02  0.34103114027E+02  0.51100000000E-03 0.  1.
         12    1    3    3    0    0 -0.29385068778E+01  0.76690816659E+01  0.11739696371E+00  0.82136117705E+01  0.00000000000E+00 0. -1.
</event>
<event>
 7    1  0.2900470E-011  0.5052890E+02  0.7816164E-02  0.1300439E+00
        -11   -1    0    0    0    0  0.00000000000E+00  0.00000000000E+00  0.45593999997E+02  0.45594000000E+02  0.51100000000E-03 0.  1.
         11   -1    0    0    0    0 -0.00000000000E+00 -0.00000000000E+00 -0.45593999997E+02  0.45594000000E+02  0.51100000000E-03 0. -1.
    9900012    2    1    2    0    0  0.18425380338E+02  0.21841362000E+02  0.28924427605E+02  0.50528902040E+02  0.30000128240E+02 0.  0.
         12    1    1    2    0    0 -0.18425380338E+02 -0.21841362000E+02 -0.28924427605E+02  0.40659097960E+02  0.00000000000E+00 0. -1.
         11    1    3    3    0    0  0.25492928850E+01  0.71457613490E+01 -0.30072686422E+01  0.81611558261E+01  0.51100000000E-03 0. -1.
        -11    1    3    3    0    0  0.17409026394E+02  0.11850475177E+02  0.32838413616E+02  0.39011144190E+02  0.51100000000E-03 0.  1.
        -12    1    3    3    0    0 -0.15329389404E+01  0.28451254745E+01 -0.90671736869E+00  0.33566020240E+01  0.00000000000E+00 0.  1.
</event>
<event>
 7    1  0.2900470E-011  0.5052887E+02  0.7816164E-02  0.1300439E+00
        -11   -1    0    0    0    0  0.00000000000E+00  0.00000000000E+00  0.45593999997E+02  0.45594000000E+02  0.51100000000E-03 0.  1.
         11   -1    0    0    0    0 -0.00000000000E+00 -0.00000000000E+00 -0.45593999997E+02  0.45594000000E+02  0.51100000000E-03 0. -1.
    9900012    2    1    2    0    0  0.39370220730E+02 -0.88258506729E+01  0.50254615187E+01  0.50528865922E+02  0.30000018458E+02 0.  0.
         12    1    1    2    0    0 -0.39370220730E+02  0.88258506729E+01 -0.50254615187E+01  0.40659134078E+02  0.00000000000E+00 0. -1.
         11    1    3    3    0    0  0.12817814360E+01 -0.33718516590E+01  0.10187057096E+02  0.10806871879E+02  0.51100000000E-03 0. -1.
        -11    1    3    3    0    0  0.18989039405E+02 -0.29201291261E+01 -0.68132502150E+01  0.20384581193E+02  0.51100000000E-03 0.  1.
        -12    1    3    3    0    0  0.19099399889E+02 -0.25338698878E+01  0.16516546376E+01  0.19337412851E+02  0.00000000000E+00 0.  1.
</event>
<event>
 7    1  0.2900470E-011  0.5052886E+02  0.7816164E-02  0.1300439E+00
        -11   -1    0    0    0    0  0.00000000000E+00  0.00000000000E+00  0.45593999997E+02  0.45594000000E+02  0.51100000000E-03 0.  1.
         11   -1    0    0    0    0 -0.00000000000E+00 -0.00000000000E+00 -0.45593999997E+02  0.45594000000E+02  0.51100000000E-03 0. -1.
    9900012    2    1    2    0    0  0.34839935954E+02 -0.20895555244E+02 -0.16492998402E+01  0.50528861345E+02  0.30000004543E+02 0.  0.
         12    1    1    2    0    0 -0.34839935954E+02  0.20895555244E+02  0.16492998402E+01  0.40659138655E+02  0.00000000000E+00 0. -1.
         11    1    3    3    0    0  0.15029288289E+01 -0.58884800547E+01 -0.14978475082E+01  0.62591165381E+01  0.51100000000E-03 0. -1.
        -11    1    3    3    0    0  0.29753473170E+02 -0.16802025203E+02  0.80819842085E+01  0.35112614338E+02  0.51100000000E-03 0.  1.
        -12    1    3    3    0    0  0.35835339550E+01  0.17949500137E+01 -0.82334365405E+01  0.91571304689E+01  0.00000000000E+00 0.  1.
</event>
<event>
 7    1  0.2900470E-011  0.5052880E+02  0.7816164E-02  0.1300439E+00
        -11   -1    0    0    0    0  0.00000000000E+00  0.00000000000E+00  0.45593999997E+02  0.45594000000E+02  0.51100000000E-03 0.  1.
         11   -1    0    0    0    0 -0.00000000000E+00 -0.00000000000E+00 -0.45593999997E+02  0.45594000000E+02  0.51100000000E-03 0. -1.
    9900012    2    1    2    0    0 -0.10040114577E+02  0.36233534697E+02  0.15475714574E+02  0.50528798349E+02  0.29999813060E+02 0.  0.
         12    1    1    2    0    0  0.10040114577E+02 -0.36233534697E+02 -0.15475714574E+02  0.40659201651E+02  0.00000000000E+00 0. -1.
         11    1    3    3    0    0 -0.10452918652E+01 -0.34276023063E+01 -0.22178720513E+01  0.42142673563E+01  0.51100000000E-03 0. -1.
        -11    1    3    3    0    0 -0.67144996800E+01  0.16947998726E+02  0.14441454897E+02  0.23256714871E+02  0.51100000000E-03 0.  1.
        -12    1    3    3    0    0 -0.22803230316E+01  0.22713138277E+02  0.32521317288E+01  0.23057816122E+02  0.00000000000E+00 0.  1.
</event>
<event>
 7    1  0.2900470E-011  0.5052894E+02  0.7816164E-02  0.1300439E+00
        -11   -1    0    0    0    0  0.00000000000E+00  0.00000000000E+00  0.45593999997E+02  0.45594000000E+02  0.51100000000E-03 0.  1.
         11   -1    0    0    0    0 -0.00000000000E+00 -0.00000000000E+00 -0.45593999997E+02  0.45594000000E+02  0.51100000000E-03 0. -1.
    9900012    2    1    2    0    0  0.23111774896E+02  0.59810961708E+00  0.33446182984E+02  0.50528941597E+02  0.30000248478E+02 0.  0.
         12    1    1    2    0    0 -0.23111774896E+02 -0.59810961708E+00 -0.33446182984E+02  0.40659058403E+02  0.00000000000E+00 0. -1.
         11    1    3    3    0    0 -0.57359329565E+01 -0.32048388322E+01  0.40115651648E+01  0.76983487940E+01  0.51100000000E-03 0. -1.
        -11    1    3    3    0    0  0.17020366370E+02  0.46958582894E+01  0.23971083888E+02  0.29771745321E+02  0.51100000000E-03 0.  1.
        -12    1    3    3    0    0  0.11827341483E+02 -0.89290984003E+00  0.54635339315E+01  0.13058847482E+02  0.00000000000E+00 0.  1.
</event>
<event>
 7    1  0.2900470E-011  0.5052886E+02  0.7816164E-02  0.1300439E+00
        -11   -1    0    0    0    0  0.00000000000E+00  0.00000000000E+00  0.45593999997E+02  0.45594000000E+02  0.51100000000E-03 0. -1.
         11   -1    0    0    0    0 -0.00000000000E+00 -0.00000000000E+00 -0.45593999997E+02  0.45594000000E+02  0.51100000000E-03 0.  1.
    9900012    2    1    2    0    0  0.18734374833E+02  0.16581946642E+02 -0.32050396904E+02  0.50528859619E+02  0.29999999298E+02 0.  0.
         12    1    1    2    0    0 -0.18734374833E+02 -0.16581946642E+02  0.32050396904E+02  0.40659140381E+02  0.00000000000E+00 0. -1.
         11    1    3    3    0    0  0.89170627420E+01  0.86688430057E+00 -0.63502928716E+00  0.89815788586E+01  0.51100000000E-03 0. -1.
        -11    1    3    3    0    0  0.46258089796E-01  0.49019442076E+01 -0.25252545576E+02  0.25723962664E+02  0.51100000000E-03 0.  1.
        -12    1    3    3    0    0  0.97710540014E+01  0.10813118134E+02 -0.61628220409E+01  0.15823318096E+02  0.00000000000E+00 0.  1.
</event>
<event>
 7    1  0.2900470E-011  0.5052888E+02  0.7816164E-02  0.1300439E+00
        -11   -1    0    0    0    0  0.00000000000E+00  0.00000000000E+00  0.45593999997E+02  0.45594000000E+02  0.51100000000E-03 0. -1.
         11   -1    0    0    0    0 -0.00000000000E+00 -0.00000000000E+00 -0.45593999997E+02  0.45594000000E+02  0.51100000000E-03 0.  1.
    9900012    2    1    2    0    0  0.21759742405E+02 -0.23050066096E+02 -0.25463154224E+02  0.50528878519E+02  0.30000056746E+02 0.  0.
         12    1    1    2    0    0 -0.21759742405E+02  0.23050066096E+02  0.25463154224E+02  0.40659121481E+02  0.00000000000E+00 0. -1.
         11    1    3    3    0    0 -0.29193302560E+01 -0.83997577615E+01  0.25258621656E+01  0.92443712353E+01  0.51100000000E-03 0. -1.
        -11    1    3    3    0    0  0.12240081943E+02 -0.10679502375E+02 -0.20758541511E+02  0.26358839558E+02  0.51100000000E-03 0.  1.
         12    1    3    3    0    0  0.12438990719E+02 -0.39708059594E+01 -0.72304748795E+01  0.14925667725E+02  0.00000000000E+00 0. -1.
</event>
<event>
 7    1  0.2900470E-011  0.5052886E+02  0.7816164E-02  0.1300439E+00
        -11   -1    0    0    0    0  0.00000000000E+00  0.00000000000E+00  0.45593999997E+02  0.45594000000E+02  0.51100000000E-03 0.  1.
         11   -1    0    0    0    0 -0.00000000000E+00 -0.00000000000E+00 -0.45593999997E+02  0.45594000000E+02  0.51100000000E-03 0. -1.
    9900012    2    1    2    0    0 -0.20473253849E+02 -0.32128682452E+02  0.14204212719E+02  0.50528855662E+02  0.29999987271E+02 0.  0.
         12    1    1    2    0    0  0.20473253849E+02  0.32128682452E+02 -0.14204212719E+02  0.40659144338E+02  0.00000000000E+00 0. -1.
         11    1    3    3    0    0 -0.35036544729E+01 -0.36075442056E+00 -0.31667687354E+01  0.47364715667E+01  0.51100000000E-03 0. -1.
        -11    1    3    3    0    0 -0.38617128703E+01 -0.18759119349E+02  0.19342046640E+02  0.27220068948E+02  0.51100000000E-03 0.  1.
        -12    1    3    3    0    0 -0.13107886506E+02 -0.13008808682E+02 -0.19710651851E+01  0.18572315148E+02  0.00000000000E+00 0.  1.
</event>
<event>
 7    1  0.2900470E-011  0.5052886E+02  0.7816164E-02  0.1300439E+00
        -11   -1    0    0    0    0  0.00000000000E+00  0.00000000000E+00  0.45593999997E+02  0.45594000000E+02  0.51100000000E-03 0.  1.
         11   -1    0    0    0    0 -0.00000000000E+00 -0.00000000000E+00 -0.45593999997E+02  0.45594000000E+02  0.51100000000E-03 0. -1.
    9900012    2    1    2    0    0 -0.17316552002E+02 -0.22570631401E+02  0.29049422236E+02  0.50528864405E+02  0.30000013846E+02 0.  0.
         12    1    1    2    0    0  0.17316552002E+02  0.22570631401E+02 -0.29049422236E+02  0.40659135595E+02  0.00000000000E+00 0. -1.
         11    1    3    3    0    0 -0.10378879750E+02 -0.16920787579E+02  0.56005812668E+01  0.20625244433E+02  0.51100000000E-03 0. -1.
        -11    1    3    3    0    0 -0.82247901683E+01  0.31553773899E+01  0.16142031475E+02  0.18389365410E+02  0.51100000000E-03 0.  1.
         12    1    3    3    0    0  0.12871179158E+01 -0.88052212119E+01  0.73068094938E+01  0.11514254561E+02  0.00000000000E+00 0. -1.
</event>
<event>
 7    1  0.2900470E-011  0.5052884E+02  0.7816164E-02  0.1300439E+00
        -11   -1    0    0    0    0  0.00000000000E+00  0.00000000000E+00  0.45593999997E+02  0.45594000000E+02  0.51100000000E-03 0.  1.
         11   -1    0    0    0    0 -0.00000000000E+00 -0.00000000000E+00 -0.45593999997E+02  0.45594000000E+02  0.51100000000E-03 0. -1.
    9900012    2    1    2    0    0 -0.21769897366E+01  0.35823041167E+02  0.19108572556E+02  0.50528842263E+02  0.29999946541E+02 0.  0.
         12    1    1    2    0    0  0.21769897366E+01 -0.35823041167E+02 -0.19108572556E+02  0.40659157737E+02  0.00000000000E+00 0. -1.
         11    1    3    3    0    0 -0.98304174164E+01  0.25543636816E+02  0.10291398416E+02  0.29240851048E+02  0.51100000000E-03 0. -1.
        -11    1    3    3    0    0 -0.13004460588E+01 -0.24890583929E+01  0.41474942932E+01  0.50088203010E+01  0.51100000000E-03 0.  1.
         12    1    3    3    0    0  0.89538737385E+01  0.12768462744E+02  0.46696798467E+01  0.16279170914E+02  0.00000000000E+00 0. -1.
</event>
<event>
 7    1  0.2900470E-011  0.5052879E+02  0.7816164E-02  0.1300439E+00
        -11   -1    0    0    0    0  0.00000000000E+00  0.00000000000E+00  0.45593999997E+02  0.45594000000E+02  0.51100000000E-03 0.  1.
         11   -1    0    0    0    0 -0.00000000000E+00 -0.00000000000E+00 -0.45593999997E+02  0.45594000000E+02  0.51100000000E-03 0. -1.
    9900012    2    1    2    0    0 -0.22366472730E+02  0.13592549618E+02  0.31115181001E+02  0.50528794447E+02  0.29999801201E+02 0.  0.
         12    1    1    2    0    0  0.22366472730E+02 -0.13592549618E+02 -0.31115181001E+02  0.40659205553E+02  0.00000000000E+00 0. -1.
         11    1    3    3    0    0 -0.14520430794E+02 -0.43299170659E+01  0.13618666943E+02  0.20373001296E+02  0.51100000000E-03 0. -1.
        -11    1    3    3    0    0 -0.99879198692E+01  0.18848131569E+02  0.17826557778E+02  0.27799222461E+02  0.51100000000E-03 0.  1.
         12    1    3    3    0    0  0.21418779329E+01 -0.92566488586E+00 -0.33004372021E+00  0.23565706901E+01  0.00000000000E+00 0. -1.
</event>
<event>
 7    1  0.2900470E-011  0.5052885E+02  0.7816164E-02  0.1300439E+00
        -11   -1    0    0    0    0  0.00000000000E+00  0.00000000000E+00  0.45593999997E+02  0.45594000000E+02  0.51100000000E-03 0. -1.
         11   -1    0    0    0    0 -0.00000000000E+00 -0.00000000000E+00 -0.45593999997E+02  0.45594000000E+02  0.51100000000E-03 0.  1.
    9900012    2    1    2    0    0  0.46398262310E+00 -0.31398492408E+02 -0.25827997991E+02  0.50528854835E+02  0.29999984756E+02 0.  0.
         12    1    1    2    0    0 -0.46398262310E+00  0.31398492408E+02  0.25827997991E+02  0.40659145165E+02  0.00000000000E+00 0. -1.
         11    1    3    3    0    0  0.49081920760E+01 -0.13748945592E+02 -0.44229144950E+01  0.15254049536E+02  0.51100000000E-03 0. -1.
        -11    1    3    3    0    0 -0.40682846237E+01 -0.13531538441E+02 -0.25690344717E+02  0.29319742228E+02  0.51100000000E-03 0.  1.
        -12    1    3    3    0    0 -0.37592482918E+00 -0.41180083745E+01  0.42852612211E+01  0.59550630712E+01  0.00000000000E+00 0.  1.
</event>
<event>
 7    1  0.2900470E-011  0.5052886E+02  0.7816164E-02  0.1300439E+00
        -11   -1    0    0    0    0  0.00000000000E+00  0.00000000000E+00  0.45593999997E+02  0.45594000000E+02  0.51100000000E-03 0. -1.
         11   -1    0    0    0    0 -0.00000000000E+00 -0.00000000000E+00 -0.45593999997E+02  0.45594000000E+02  0.51100000000E-03 0.  1.
    9900012    2    1    2    0    0 -0.34668144282E+02 -0.13679016109E+02  0.16253308858E+02  0.50528858856E+02  0.29999996980E+02 0.  0.
         12    1    1    2    0    0  0.34668144282E+02  0.13679016109E+02 -0.16253308858E+02  0.40659141144E+02  0.00000000000E+00 0. -1.
         11    1    3    3    0    0 -0.64222719766E+01  0.70628717366E+01  0.46021695432E+01  0.10597627059E+02  0.51100000000E-03 0. -1.
        -11    1    3    3    0    0 -0.24082711427E+02 -0.13080428167E+02  0.14173941481E+02  0.30854095483E+02  0.51100000000E-03 0.  1.
         12    1    3    3    0    0 -0.41631608785E+01 -0.76614596785E+01 -0.25228021655E+01  0.90771363145E+01  0.00000000000E+00 0. -1.
</event>
<event>
 7    1  0.2900470E-011  0.5052891E+02  0.7816164E-02  0.1300439E+00
        -11   -1    0    0    0    0  0.00000000000E+00  0.00000000000E+00  0.45593999997E+02  0.45594000000E+02  0.51100000000E-03 0.  1.
         11   -1    0    0    0    0 -0.00000000000E+00 -0.00000000000E+00 -0.45593999997E+02  0.45594000000E+02  0.51100000000E-03 0. -1.
    9900012    2    1    2    0    0 -0.55835326407E+01 -0.93551875488E+01  0.39172265386E+02  0.50528908197E+02  0.30000146954E+02 0.  0.
         12    1    1    2    0    0  0.55835326407E+01  0.93551875488E+01 -0.39172265386E+02  0.40659091803E+02  0.00000000000E+00 0. -1.
         11    1    3    3    0    0  0.16749019805E+01 -0.13544861264E+02  0.94926343804E+01  0.16624640479E+02  0.51100000000E-03 0. -1.
        -11    1    3    3    0    0 -0.25126079989E+01  0.82990144788E+01  0.99405105625E+01  0.13190928352E+02  0.51100000000E-03 0.  1.
        -12    1    3    3    0    0 -0.47458266223E+01 -0.41093407636E+01  0.19739120443E+02  0.20713339366E+02  0.00000000000E+00 0.  1.
</event>
<event>
 7    1  0.2900470E-011  0.5052887E+02  0.7816164E-02  0.1300439E+00
        -11   -1    0    0    0    0  0.00000000000E+00  0.00000000000E+00  0.45593999997E+02  0.45594000000E+02  0.51100000000E-03 0.  1.
         11   -1    0    0    0    0 -0.00000000000E+00 -0.00000000000E+00 -0.45593999997E+02  0.45594000000E+02  0.51100000000E-03 0. -1.
    9900012    2    1    2    0    0 -0.16364180938E+02 -0.31383970555E+02  0.20010627320E+02  0.50528865340E+02  0.30000016689E+02 0.  0.
         12    1    1    2    0    0  0.16364180938E+02  0.31383970555E+02 -0.20010627320E+02  0.40659134660E+02  0.00000000000E+00 0. -1.
         11    1    3    3    0    0 -0.11818281594E+02  0.19790204186E+01  0.29662410807E+01  0.12344508417E+02  0.51100000000E-03 0. -1.
        -11    1    3    3    0    0 -0.43000947243E+01 -0.26853030828E+02  0.11126849320E+02  0.29383377194E+02  0.51100000000E-03 0.  1.
         12    1    3    3    0    0 -0.24580461972E+00 -0.65099601455E+01  0.59175369190E+01  0.88009797293E+01  0.00000000000E+00 0. -1.
</event>
<event>
 7    1  0.2900470E-011  0.5052885E+02  0.7816164E-02  0.1300439E+00
        -11   -1    0    0    0    0  0.00000000000E+00  0.00000000000E+00  0.45593999997E+02  0.45594000000E+02  0.51100000000E-03 0.  1.
         11   -1    0    0    0    0 -0.00000000000E+00 -0.00000000000E+00 -0.45593999997E+02  0.45594000000E+02  0.51100000000E-03 0. -1.
    9900012    2    1    2    0    0 -0.95701673682E+01  0.27481934944E+01  0.39421131940E+02  0.50528852021E+02  0.29999976204E+02 0.  0.
         12    1    1    2    0    0  0.95701673682E+01 -0.27481934944E+01 -0.39421131940E+02  0.40659147979E+02  0.00000000000E+00 0. -1.
         11    1    3    3    0    0  0.58161821167E+01 -0.19021054170E+01  0.28111956633E+01  0.67341518211E+01  0.51100000000E-03 0. -1.
        -11    1    3    3    0    0 -0.13291484391E+02  0.85478594298E+01  0.36015660136E+02  0.39330105942E+02  0.51100000000E-03 0.  1.
         12    1    3    3    0    0 -0.20948650944E+01 -0.38975605184E+01  0.59427614051E+00  0.44645942581E+01  0.00000000000E+00 0. -1.
</event>
<event>
 7    1  0.2900470E-011  0.5052886E+02  0.7816164E-02  0.1300439E+00
        -11   -1    0    0    0    0  0.00000000000E+00  0.00000000000E+00  0.45593999997E+02  0.45594000000E+02  0.51100000000E-03 0. -1.
         11   -1    0    0    0    0 -0.00000000000E+00 -0.00000000000E+00 -0.45593999997E+02  0.45594000000E+02  0.51100000000E-03 0.  1.
    9900012    2    1    2    0    0 -0.50852804293E+01 -0.54035686827E+01 -0.39976329523E+02  0.50528861376E+02  0.30000004638E+02 0.  0.
         12    1    1    2    0    0  0.50852804293E+01  0.54035686827E+01  0.39976329523E+02  0.40659138624E+02  0.00000000000E+00 0. -1.
         11    1    3    3    0    0 -0.10140744004E+02  0.59854431693E+01 -0.14441365551E+02  0.18633659279E+02  0.51100000000E-03 0.  1.
        -11    1    3    3    0    0  0.72277397495E+01 -0.25647920647E+01 -0.19584748873E+02  0.21032849757E+02  0.51100000000E-03 0. -1.
        -12    1    3    3    0    0 -0.21722761743E+01 -0.88242197873E+01 -0.59502150989E+01  0.10862352340E+02  0.00000000000E+00 0.  1.
</event>
<event>
 7    1  0.2900470E-011  0.5052884E+02  0.7816164E-02  0.1300439E+00
        -11   -1    0    0    0    0  0.00000000000E+00  0.00000000000E+00  0.45593999997E+02  0.45594000000E+02  0.51100000000E-03 0.  1.
         11   -1    0    0    0    0 -0.00000000000E+00 -0.00000000000E+00 -0.45593999997E+02  0.45594000000E+02  0.51100000000E-03 0. -1.
    9900012    2    1    2    0    0  0.32498023482E+02 -0.35685758034E+01  0.24172527471E+02  0.50528839313E+02  0.29999937575E+02 0.  0.
         12    1    1    2    0    0 -0.32498023482E+02  0.35685758034E+01 -0.24172527471E+02  0.40659160687E+02  0.00000000000E+00 0. -1.
         11    1    3    3    0    0  0.16442966350E+02 -0.11373320178E+02  0.98133748534E+01  0.22271638479E+02  0.51100000000E-03 0. -1.
        -11    1    3    3    0    0  0.15152448451E+02  0.81173807546E+01  0.17764897290E+02  0.24720035201E+02  0.51100000000E-03 0.  1.
        -12    1    3    3    0    0  0.90260868116E+00 -0.31263637997E+00 -0.34057446727E+01  0.35371656327E+01  0.00000000000E+00 0.  1.
</event>
<event>
 7    1  0.2900470E-011  0.5052886E+02  0.7816164E-02  0.1300439E+00
        -11   -1    0    0    0    0  0.00000000000E+00  0.00000000000E+00  0.45593999997E+02  0.45594000000E+02  0.51100000000E-03 0.  1.
         11   -1    0    0    0    0 -0.00000000000E+00 -0.00000000000E+00 -0.45593999997E+02  0.45594000000E+02  0.51100000000E-03 0. -1.
    9900012    2    1    2    0    0 -0.94533900530E+01 -0.27397206314E+02  0.28516518979E+02  0.50528863856E+02  0.30000012176E+02 0.  0.
         12    1    1    2    0    0  0.94533900530E+01  0.27397206314E+02 -0.28516518979E+02  0.40659136144E+02  0.00000000000E+00 0. -1.
         11    1    3    3    0    0  0.10789830739E+01 -0.68437249199E+01 -0.30242539274E+01  0.75595560274E+01  0.51100000000E-03 0. -1.
        -11    1    3    3    0    0 -0.13087111862E+02 -0.19923825610E+02  0.32379429706E+02  0.40207695684E+02  0.51100000000E-03 0.  1.
        -12    1    3    3    0    0  0.25547387351E+01 -0.62965578433E+00 -0.83865679993E+00  0.27616121450E+01  0.00000000000E+00 0.  1.
</event>
<event>
 7    1  0.2900470E-011  0.5052886E+02  0.7816164E-02  0.1300439E+00
        -11   -1    0    0    0    0  0.00000000000E+00  0.00000000000E+00  0.45593999997E+02  0.45594000000E+02  0.51100000000E-03 0.  1.
         11   -1    0    0    0    0 -0.00000000000E+00 -0.00000000000E+00 -0.45593999997E+02  0.45594000000E+02  0.51100000000E-03 0. -1.
    9900012    2    1    2    0    0  0.18027496421E+02  0.15155474484E+02  0.33143427657E+02  0.50528857967E+02  0.29999994276E+02 0.  0.
         12    1    1    2    0    0 -0.18027496421E+02 -0.15155474484E+02 -0.33143427657E+02  0.40659142033E+02  0.00000000000E+00 0. -1.
         11    1    3    3    0    0  0.95313101603E+01  0.10398630252E+02 -0.11186483674E+01  0.14150221162E+02  0.51100000000E-03 0. -1.
        -11    1    3    3    0    0  0.53663275827E+01  0.54058915076E+01  0.14691634632E+02  0.16548874981E+02  0.51100000000E-03 0.  1.
         12    1    3    3    0    0  0.31298586779E+01 -0.64904727647E+00  0.19570441392E+02  0.19829761824E+02  0.00000000000E+00 0. -1.
</event>
<event>
 7    1  0.2900470E-011  0.5052886E+02  0.7816164E-02  0.1300439E+00
        -11   -1    0    0    0    0  0.00000000000E+00  0.00000000000E+00  0.45593999997E+02  0.45594000000E+02  0.51100000000E-03 0.  1.
         11   -1    0    0    0    0 -0.00000000000E+00 -0.00000000000E+00 -0.45593999997E+02  0.45594000000E+02  0.51100000000E-03 0. -1.
    9900012    2    1    2    0    0 -0.28775666489E+02 -0.19629802252E+02  0.20971353707E+02  0.50528858413E+02  0.29999995631E+02 0.  0.
         12    1    1    2    0    0  0.28775666489E+02  0.19629802252E+02 -0.20971353707E+02  0.40659141587E+02  0.00000000000E+00 0. -1.
         11    1    3    3    0    0 -0.29255462145E+02 -0.16674817583E+02  0.14745694824E+02  0.36760945619E+02  0.51100000000E-03 0. -1.
        -11    1    3    3    0    0  0.21701814490E+01 -0.54637725903E+01  0.82482074065E+01  0.10128939931E+02  0.51100000000E-03 0.  1.
         12    1    3    3    0    0 -0.16903857931E+01  0.25087879218E+01 -0.20225485231E+01  0.36389728626E+01  0.00000000000E+00 0. -1.
</event>
<event>
 7    1  0.2900470E-011  0.5052886E+02  0.7816164E-02  0.1300439E+00
        -11   -1    0    0    0    0  0.00000000000E+00  0.00000000000E+00  0.45593999997E+02  0.45594000000E+02  0.51100000000E-03 0.  1.
         11   -1    0    0    0    0 -0.00000000000E+00 -0.00000000000E+00 -0.45593999997E+02  0.45594000000E+02  0.51100000000E-03 0. -1.
    9900012    2    1    2    0    0 -0.17698062244E+02 -0.65057391500E+01  0.36022484323E+02  0.50528862947E+02  0.30000009415E+02 0.  0.
         12    1    1    2    0    0  0.17698062244E+02  0.65057391500E+01 -0.36022484323E+02  0.40659137053E+02  0.00000000000E+00 0. -1.
         11    1    3    3    0    0 -0.13959557251E+02  0.21398423056E+01  0.68731042293E+01  0.15706295736E+02  0.51100000000E-03 0.  1.
        -11    1    3    3    0    0  0.57377056113E+01 -0.30426200112E+01  0.47237836150E+01  0.80307492874E+01  0.51100000000E-03 0. -1.
        -12    1    3    3    0    0 -0.94762106047E+01 -0.56029614444E+01  0.24425596479E+02  0.26791817925E+02  0.00000000000E+00 0.  1.
</event>
<event>
 7    1  0.2900470E-011  0.5052886E+02  0.7816164E-02  0.1300439E+00
        -11   -1    0    0    0    0  0.00000000000E+00  0.00000000000E+00  0.45593999997E+02  0.45594000000E+02  0.51100000000E-03 0.  1.
         11   -1    0    0    0    0 -0.00000000000E+00 -0.00000000000E+00 -0.45593999997E+02  0.45594000000E+02  0.51100000000E-03 0. -1.
    9900012    2    1    2    0    0 -0.13567288776E+02  0.26311213944E+02  0.27871388235E+02  0.50528860977E+02  0.30000003426E+02 0.  0.
         12    1    1    2    0    0  0.13567288776E+02 -0.26311213944E+02 -0.27871388235E+02  0.40659139023E+02  0.00000000000E+00 0. -1.
         11    1    3    3    0    0 -0.35585629903E+01  0.20499429984E+01  0.18775098626E+01  0.45156041012E+01  0.51100000000E-03 0.  1.
        -11    1    3    3    0    0 -0.17187651915E+02  0.12694788722E+02  0.66867312295E+01  0.22389404053E+02  0.51100000000E-03 0. -1.
        -12    1    3    3    0    0  0.71789261299E+01  0.11566482223E+02  0.19307147143E+02  0.23623852823E+02  0.00000000000E+00 0.  1.
</event>
<event>
 7    1  0.2900470E-011  0.5052884E+02  0.7816164E-02  0.1300439E+00
        -11   -1    0    0    0    0  0.00000000000E+00  0.00000000000E+00  0.45593999997E+02  0.45594000000E+02  0.51100000000E-03 0.  1.
         11   -1    0    0    0    0 -0.00000000000E+00 -0.00000000000E+00 -0.45593999997E+02  0.45594000000E+02  0.51100000000E-03 0. -1.
    9900012    2    1    2    0    0 -0.31544987785E+02 -0.25652723694E+02 -0.13777509188E+00  0.50528837819E+02  0.29999933034E+02 0.  0.
         12    1    1    2    0    0  0.31544987785E+02  0.25652723694E+02  0.13777509188E+00  0.40659162181E+02  0.00000000000E+00 0. -1.
         11    1    3    3    0    0 -0.12116109563E+02 -0.89674414475E+01  0.13913452781E+02  0.20513392835E+02  0.51100000000E-03 0.  1.
        -11    1    3    3    0    0 -0.10356032095E+02 -0.84990244281E+01 -0.11212347229E+02  0.17469904054E+02  0.51100000000E-03 0. -1.
         12    1    3    3    0    0 -0.90728461267E+01 -0.81862578184E+01 -0.28388806437E+01  0.12545540930E+02  0.00000000000E+00 0. -1.
</event>
<event>
 7    1  0.2900470E-011  0.5052886E+02  0.7816164E-02  0.1300439E+00
        -11   -1    0    0    0    0  0.00000000000E+00  0.00000000000E+00  0.45593999997E+02  0.45594000000E+02  0.51100000000E-03 0.  1.
         11   -1    0    0    0    0 -0.00000000000E+00 -0.00000000000E+00 -0.45593999997E+02  0.45594000000E+02  0.51100000000E-03 0. -1.
    9900012    2    1    2    0    0  0.32565715958E+02  0.16551235964E+02  0.17852065063E+02  0.50528862100E+02  0.30000006838E+02 0.  0.
         12    1    1    2    0    0 -0.32565715958E+02 -0.16551235964E+02 -0.17852065063E+02  0.40659137900E+02  0.00000000000E+00 0. -1.
         11    1    3    3    0    0 -0.70780933495E-01 -0.22707031803E+01  0.60032514710E+01  0.64187328468E+01  0.51100000000E-03 0. -1.
        -11    1    3    3    0    0  0.17396522503E+02  0.17442597401E+02 -0.19654808284E+00  0.24635783541E+02  0.51100000000E-03 0.  1.
        -12    1    3    3    0    0  0.15239974389E+02  0.13793417428E+01  0.12045361675E+02  0.19474345712E+02  0.00000000000E+00 0.  1.
</event>
<event>
 7    1  0.2900470E-011  0.5052886E+02  0.7816164E-02  0.1300439E+00
        -11   -1    0    0    0    0  0.00000000000E+00  0.00000000000E+00  0.45593999997E+02  0.45594000000E+02  0.51100000000E-03 0. -1.
         11   -1    0    0    0    0 -0.00000000000E+00 -0.00000000000E+00 -0.45593999997E+02  0.45594000000E+02  0.51100000000E-03 0.  1.
    9900012    2    1    2    0    0 -0.78862196999E+01 -0.21075607164E+02 -0.33864319970E+02  0.50528857787E+02  0.29999993729E+02 0.  0.
         12    1    1    2    0    0  0.78862196999E+01  0.21075607164E+02  0.33864319970E+02  0.40659142213E+02  0.00000000000E+00 0. -1.
         11    1    3    3    0    0  0.48527628115E+01  0.38085602822E+01 -0.11730663042E+02  0.13253787911E+02  0.51100000000E-03 0. -1.
        -11    1    3    3    0    0 -0.77823653244E+01 -0.44487654534E+01 -0.66553346156E+01  0.11164685540E+02  0.51100000000E-03 0.  1.
         12    1    3    3    0    0 -0.49566171870E+01 -0.20435401993E+02 -0.15478322312E+02  0.26110384336E+02  0.00000000000E+00 0. -1.
</event>
<event>
 7    1  0.2900470E-011  0.5052885E+02  0.7816164E-02  0.1300439E+00
        -11   -1    0    0    0    0  0.00000000000E+00  0.00000000000E+00  0.45593999997E+02  0.45594000000E+02  0.51100000000E-03 0.  1.
         11   -1    0    0    0    0 -0.00000000000E+00 -0.00000000000E+00 -0.45593999997E+02  0.45594000000E+02  0.51100000000E-03 0. -1.
    9900012    2    1    2    0    0  0.10449807311E+02 -0.11111455721E+02  0.37689570290E+02  0.50528848143E+02  0.29999964414E+02 0.  0.
         12    1    1    2    0    0 -0.10449807311E+02  0.11111455721E+02 -0.37689570290E+02  0.40659151857E+02  0.00000000000E+00 0. -1.
         11    1    3    3    0    0 -0.80749231765E+01 -0.83538980989E+01  0.14351855315E+02  0.18465312047E+02  0.51100000000E-03 0. -1.
        -11    1    3    3    0    0  0.58620222440E+01 -0.64877973581E+01  0.10281247044E+02  0.13496624037E+02  0.51100000000E-03 0.  1.
         12    1    3    3    0    0  0.12662708244E+02  0.37302397359E+01  0.13056467931E+02  0.18566912058E+02  0.00000000000E+00 0. -1.
</event>
<event>
 7    1  0.2900470E-011  0.5052886E+02  0.7816164E-02  0.1300439E+00
        -11   -1    0    0    0    0  0.00000000000E+00  0.00000000000E+00  0.45593999997E+02  0.45594000000E+02  0.51100000000E-03 0.  1.
         11   -1    0    0    0    0 -0.00000000000E+00 -0.00000000000E+00 -0.45593999997E+02  0.45594000000E+02  0.51100000000E-03 0. -1.
    9900012    2    1    2    0    0  0.31585936405E+02  0.25188232048E+02 -0.45877649790E+01  0.50528855890E+02  0.29999987963E+02 0.  0.
         12    1    1    2    0    0 -0.31585936405E+02 -0.25188232048E+02  0.45877649790E+01  0.40659144110E+02  0.00000000000E+00 0. -1.
         11    1    3    3    0    0 -0.40596932651E+01 -0.31853368010E+00 -0.15915081755E+01  0.43721243859E+01  0.51100000000E-03 0. -1.
        -11    1    3    3    0    0  0.13917217543E+02  0.79464690745E+01 -0.77770379550E+01  0.17813411647E+02  0.51100000000E-03 0.  1.
         12    1    3    3    0    0  0.21728412127E+02  0.17560296653E+02  0.47807811514E+01  0.28343319857E+02  0.00000000000E+00 0. -1.
</event>
<event>
 7    1  0.2900470E-011  0.5052886E+02  0.7816164E-02  0.1300439E+00
        -11   -1    0    0    0    0  0.00000000000E+00  0.00000000000E+00  0.45593999997E+02  0.45594000000E+02  0.51100000000E-03 0. -1.
         11   -1    0    0    0    0 -0.00000000000E+00 -0.00000000000E+00 -0.45593999997E+02  0.45594000000E+02  0.51100000000E-03 0.  1.
    9900012    2    1    2    0    0  0.24989158591E+02 -0.56582558960E+01 -0.31570426530E+02  0.50528859107E+02  0.29999997741E+02 0.  0.
         12    1    1    2    0    0 -0.24989158591E+02  0.56582558960E+01  0.31570426530E+02  0.40659140893E+02  0.00000000000E+00 0. -1.
         11    1    3    3    0    0  0.64908995453E+01  0.26561036922E+01 -0.25491234193E+02  0.26438413052E+02  0.51100000000E-03 0. -1.
        -11    1    3    3    0    0  0.16421189330E+02 -0.78999711277E+01 -0.91257473657E+01  0.20379996763E+02  0.51100000000E-03 0.  1.
         12    1    3    3    0    0  0.20770697165E+01 -0.41438846047E+00  0.30465550291E+01  0.37104492921E+01  0.00000000000E+00 0. -1.
</event>
<event>
 7    1  0.2900470E-011  0.5052886E+02  0.7816164E-02  0.1300439E+00
        -11   -1    0    0    0    0  0.00000000000E+00  0.00000000000E+00  0.45593999997E+02  0.45594000000E+02  0.51100000000E-03 0.  1.
         11   -1    0    0    0    0 -0.00000000000E+00 -0.00000000000E+00 -0.45593999997E+02  0.45594000000E+02  0.51100000000E-03 0. -1.
    9900012    2    1    2    0    0 -0.11075520249E+02  0.37664081723E+02  0.10579022794E+02  0.50528856820E+02  0.29999990791E+02 0.  0.
         12    1    1    2    0    0  0.11075520249E+02 -0.37664081723E+02 -0.10579022794E+02  0.40659143180E+02  0.00000000000E+00 0. -1.
         11    1    3    3    0    0  0.39560192944E+01  0.46113451886E+00 -0.19197135528E+01  0.44213158774E+01  0.51100000000E-03 0. -1.
        -11    1    3    3    0    0 -0.17514316216E+02  0.36423689736E+02  0.84421831816E+01  0.41288096391E+02  0.51100000000E-03 0.  1.
        -12    1    3    3    0    0  0.24827766726E+01  0.77925746870E+00  0.40565531648E+01  0.48194445517E+01  0.00000000000E+00 0.  1.
</event>
<event>
 7    1  0.2900470E-011  0.5052883E+02  0.7816164E-02  0.1300439E+00
        -11   -1    0    0    0    0  0.00000000000E+00  0.00000000000E+00  0.45593999997E+02  0.45594000000E+02  0.51100000000E-03 0. -1.
         11   -1    0    0    0    0 -0.00000000000E+00 -0.00000000000E+00 -0.45593999997E+02  0.45594000000E+02  0.51100000000E-03 0.  1.
    9900012    2    1    2    0    0 -0.13376012369E+02 -0.76582420805E+01 -0.37624487966E+02  0.50528825471E+02  0.29999895502E+02 0.  0.
         12    1    1    2    0    0  0.13376012369E+02  0.76582420805E+01  0.37624487966E+02  0.40659174529E+02  0.00000000000E+00 0. -1.
         11    1    3    3    0    0 -0.78421494923E+00  0.36866520297E+01 -0.23100147246E+01  0.44206972938E+01  0.51100000000E-03 0. -1.
        -11    1    3    3    0    0 -0.69406378907E+01 -0.17923118086E+02 -0.30867232075E+02  0.36362021843E+02  0.51100000000E-03 0.  1.
        -12    1    3    3    0    0 -0.56511595287E+01  0.65782239758E+01 -0.44472411663E+01  0.97461063346E+01  0.00000000000E+00 0.  1.
</event>
<event>
 7    1  0.2900470E-011  0.5052886E+02  0.7816164E-02  0.1300439E+00
        -11   -1    0    0    0    0  0.00000000000E+00  0.00000000000E+00  0.45593999997E+02  0.45594000000E+02  0.51100000000E-03 0.  1.
         11   -1    0    0    0    0 -0.00000000000E+00 -0.00000000000E+00 -0.45593999997E+02  0.45594000000E+02  0.51100000000E-03 0. -1.
    9900012    2    1    2    0    0 -0.11511959277E+02 -0.87084544184E+01  0.38010569335E+02  0.50528858765E+02  0.29999996703E+02 0.  0.
         12    1    1    2    0    0  0.11511959277E+02  0.87084544184E+01 -0.38010569335E+02  0.40659141235E+02  0.00000000000E+00 0. -1.
         11    1    3    3    0    0  0.79806253492E+01 -0.29535173479E+01  0.33646719340E+01  0.91506646301E+01  0.51100000000E-03 0. -1.
        -11    1    3    3    0    0 -0.11117646728E+02 -0.43108216968E+01  0.10892626461E+02  0.16150373493E+02  0.51100000000E-03 0.  1.
         12    1    3    3    0    0 -0.83749378977E+01 -0.14441153737E+01  0.23753270940E+02  0.25227820642E+02  0.00000000000E+00 0. -1.
</event>
<event>
 7    1  0.2900470E-011  0.5052886E+02  0.7816164E-02  0.1300439E+00
        -11   -1    0    0    0    0  0.00000000000E+00  0.00000000000E+00  0.45593999997E+02  0.45594000000E+02  0.51100000000E-03 0.  1.
         11   -1    0    0    0    0 -0.00000000000E+00 -0.00000000000E+00 -0.45593999997E+02  0.45594000000E+02  0.51100000000E-03 0. -1.
    9900012    2    1    2    0    0 -0.15948680946E+02 -0.10306012945E+02  0.35952626008E+02  0.50528860270E+02  0.30000001276E+02 0.  0.
         12    1    1    2    0    0  0.15948680946E+02  0.10306012945E+02 -0.35952626008E+02  0.40659139730E+02  0.00000000000E+00 0. -1.
         11    1    3    3    0    0  0.67584817157E+01  0.11388060273E+01  0.26782909816E+01  0.73584779073E+01  0.51100000000E-03 0. -1.
        -11    1    3    3    0    0 -0.12405719517E+02 -0.23919436399E+01  0.22199613331E+02  0.25543024555E+02  0.51100000000E-03 0.  1.
         12    1    3    3    0    0 -0.10301443145E+02 -0.90528753321E+01  0.11074721695E+02  0.17627357808E+02  0.00000000000E+00 0. -1.
</event>
<event>
 7    1  0.2900470E-011  0.5052885E+02  0.7816164E-02  0.1300439E+00
        -11   -1    0    0    0    0  0.00000000000E+00  0.00000000000E+00  0.45593999997E+02  0.45594000000E+02  0.51100000000E-03 0.  1.
         11   -1    0    0    0    0 -0.00000000000E+00 -0.00000000000E+00 -0.45593999997E+02  0.45594000000E+02  0.51100000000E-03 0. -1.
    9900012    2    1    2    0    0  0.29851163192E+01 -0.23098162581E+02  0.33327620208E+02  0.50528852164E+02  0.29999976636E+02 0.  0.
         12    1    1    2    0    0 -0.29851163192E+01  0.23098162581E+02 -0.33327620208E+02  0.40659147836E+02  0.00000000000E+00 0. -1.
         11    1    3    3    0    0 -0.62939473389E+01 -0.28495105708E+01 -0.32458738657E+00  0.69165627902E+01  0.51100000000E-03 0. -1.
        -11    1    3    3    0    0  0.29749238932E+01 -0.11743638025E+00  0.15496704314E+02  0.15780107995E+02  0.51100000000E-03 0.  1.
         12    1    3    3    0    0  0.63041397649E+01 -0.20131215630E+02  0.18155503281E+02  0.27832181379E+02  0.00000000000E+00 0. -1.
</event>
<event>
 7    1  0.2900470E-011  0.5052888E+02  0.7816164E-02  0.1300439E+00
        -11   -1    0    0    0    0  0.00000000000E+00  0.00000000000E+00  0.45593999997E+02  0.45594000000E+02  0.51100000000E-03 0.  1.
         11   -1    0    0    0    0 -0.00000000000E+00 -0.00000000000E+00 -0.45593999997E+02  0.45594000000E+02  0.51100000000E-03 0. -1.
    9900012    2    1    2    0    0  0.27345335800E+02  0.28638996813E+02  0.92306485861E+01  0.50528875541E+02  0.30000047694E+02 0.  0.
         12    1    1    2    0    0 -0.27345335800E+02 -0.28638996813E+02 -0.92306485861E+01  0.40659124459E+02  0.00000000000E+00 0. -1.
         11    1    3    3    0    0  0.15595162888E+02  0.14495444759E+02 -0.14458720047E+01  0.21340514764E+02  0.51100000000E-03 0.  1.
        -11    1    3    3    0    0  0.60072910504E+01  0.78573497452E+01  0.16241815493E+02  0.19016362995E+02  0.51100000000E-03 0. -1.
         12    1    3    3    0    0  0.57428818615E+01  0.62862023086E+01 -0.55652949020E+01  0.10171997782E+02  0.00000000000E+00 0. -1.
</event>
<event>
 7    1  0.2900470E-011  0.5052887E+02  0.7816164E-02  0.1300439E+00
        -11   -1    0    0    0    0  0.00000000000E+00  0.00000000000E+00  0.45593999997E+02  0.45594000000E+02  0.51100000000E-03 0. -1.
         11   -1    0    0    0    0 -0.00000000000E+00 -0.00000000000E+00 -0.45593999997E+02  0.45594000000E+02  0.51100000000E-03 0.  1.
    9900012    2    1    2    0    0  0.82688479886E+01  0.34507680071E+02 -0.19849711968E+02  0.50528869461E+02  0.30000029214E+02 0.  0.
         12    1    1    2    0    0 -0.82688479886E+01 -0.34507680071E+02  0.19849711968E+02  0.40659130539E+02  0.00000000000E+00 0. -1.
         11    1    3    3    0    0 -0.45870078181E+01  0.17903115433E+02  0.32138669598E+01  0.18758761260E+02  0.51100000000E-03 0. -1.
        -11    1    3    3    0    0  0.30816704466E+01  0.63258398206E+01 -0.11444444453E+02  0.13434591593E+02  0.51100000000E-03 0.  1.
         12    1    3    3    0    0  0.97741853601E+01  0.10278724818E+02 -0.11619134474E+02  0.18335516608E+02  0.00000000000E+00 0. -1.
</event>
<event>
 7    1  0.2900470E-011  0.5052883E+02  0.7816164E-02  0.1300439E+00
        -11   -1    0    0    0    0  0.00000000000E+00  0.00000000000E+00  0.45593999997E+02  0.45594000000E+02  0.51100000000E-03 0.  1.
         11   -1    0    0    0    0 -0.00000000000E+00 -0.00000000000E+00 -0.45593999997E+02  0.45594000000E+02  0.51100000000E-03 0. -1.
    9900012    2    1    2    0    0 -0.66733206437E+01 -0.19751806657E+02  0.34907029064E+02  0.50528834334E+02  0.29999922440E+02 0.  0.
         12    1    1    2    0    0  0.66733206437E+01  0.19751806657E+02 -0.34907029064E+02  0.40659165666E+02  0.00000000000E+00 0. -1.
         11    1    3    3    0    0 -0.64599621497E+01 -0.12112098338E+02  0.77234132410E+01  0.15750719014E+02  0.51100000000E-03 0. -1.
        -11    1    3    3    0    0  0.18052356789E+01  0.62882999515E+01  0.40332540091E+01  0.76856184071E+01  0.51100000000E-03 0.  1.
        -12    1    3    3    0    0 -0.20185941729E+01 -0.13928008271E+02  0.23150361814E+02  0.27092496912E+02  0.00000000000E+00 0.  1.
</event>
<event>
 7    1  0.2900470E-011  0.5052887E+02  0.7816164E-02  0.1300439E+00
        -11   -1    0    0    0    0  0.00000000000E+00  0.00000000000E+00  0.45593999997E+02  0.45594000000E+02  0.51100000000E-03 0.  1.
         11   -1    0    0    0    0 -0.00000000000E+00 -0.00000000000E+00 -0.45593999997E+02  0.45594000000E+02  0.51100000000E-03 0. -1.
    9900012    2    1    2    0    0 -0.12460371965E+02 -0.31831118913E+02  0.22015542033E+02  0.50528867055E+02  0.30000021901E+02 0.  0.
         12    1    1    2    0    0  0.12460371965E+02  0.31831118913E+02 -0.22015542033E+02  0.40659132945E+02  0.00000000000E+00 0. -1.
         11    1    3    3    0    0 -0.26692812705E+01  0.41712704797E+01  0.20375460704E+00  0.49564176697E+01  0.51100000000E-03 0. -1.
        -11    1    3    3    0    0  0.12680963199E+01 -0.22053727969E+02  0.10298899623E+02  0.24372983389E+02  0.51100000000E-03 0.  1.
        -12    1    3    3    0    0 -0.11059187014E+02 -0.13948661424E+02  0.11512887804E+02  0.21199465996E+02  0.00000000000E+00 0.  1.
</event>
<event>
 7    1  0.2900470E-011  0.5052886E+02  0.7816164E-02  0.1300439E+00
        -11   -1    0    0    0    0  0.00000000000E+00  0.00000000000E+00  0.45593999997E+02  0.45594000000E+02  0.51100000000E-03 0.  1.
         11   -1    0    0    0    0 -0.00000000000E+00 -0.00000000000E+00 -0.45593999997E+02  0.45594000000E+02  0.51100000000E-03 0. -1.
    9900012    2    1    2    0    0 -0.24244751075E+02  0.32602887305E+02 -0.15522293489E+01  0.50528860422E+02  0.30000001737E+02 0.  0.
         12    1    1    2    0    0  0.24244751075E+02 -0.32602887305E+02  0.15522293489E+01  0.40659139578E+02  0.00000000000E+00 0. -1.
         11    1    3    3    0    0 -0.11496667657E+02  0.59015104472E+01 -0.12617191840E+02  0.18060861634E+02  0.51100000000E-03 0. -1.
        -11    1    3    3    0    0 -0.10940807127E+02  0.15123381990E+02  0.82994204550E+01  0.20427881034E+02  0.51100000000E-03 0.  1.
        -12    1    3    3    0    0 -0.18072762909E+01  0.11577994868E+02  0.27655420364E+01  0.12040117753E+02  0.00000000000E+00 0.  1.
</event>
<event>
 7    1  0.2900470E-011  0.5052885E+02  0.7816164E-02  0.1300439E+00
        -11   -1    0    0    0    0  0.00000000000E+00  0.00000000000E+00  0.45593999997E+02  0.45594000000E+02  0.51100000000E-03 0.  1.
         11   -1    0    0    0    0 -0.00000000000E+00 -0.00000000000E+00 -0.45593999997E+02  0.45594000000E+02  0.51100000000E-03 0. -1.
    9900012    2    1    2    0    0 -0.21401651035E+02  0.31267719438E+02  0.14746705554E+02  0.50528852560E+02  0.29999977840E+02 0.  0.
         12    1    1    2    0    0  0.21401651035E+02 -0.31267719438E+02 -0.14746705554E+02  0.40659147440E+02  0.00000000000E+00 0. -1.
         11    1    3    3    0    0 -0.88141102363E-01  0.68514630796E+01 -0.75249554073E+01  0.10177193588E+02  0.51100000000E-03 0. -1.
        -11    1    3    3    0    0 -0.12975322170E+02  0.18460256442E+02  0.10947612049E+02  0.25079678290E+02  0.51100000000E-03 0.  1.
         12    1    3    3    0    0 -0.83381877628E+01  0.59559999170E+01  0.11324048912E+02  0.15271980681E+02  0.00000000000E+00 0. -1.
</event>
<event>
 7    1  0.2900470E-011  0.5052881E+02  0.7816164E-02  0.1300439E+00
        -11   -1    0    0    0    0  0.00000000000E+00  0.00000000000E+00  0.45593999997E+02  0.45594000000E+02  0.51100000000E-03 0.  1.
         11   -1    0    0    0    0 -0.00000000000E+00 -0.00000000000E+00 -0.45593999997E+02  0.45594000000E+02  0.51100000000E-03 0. -1.
    9900012    2    1    2    0    0 -0.21532455410E+02 -0.73196923792E+01  0.33703780313E+02  0.50528814815E+02  0.29999863111E+02 0.  0.
         12    1    1    2    0    0  0.21532455410E+02  0.73196923792E+01 -0.33703780313E+02  0.40659185185E+02  0.00000000000E+00 0. -1.
         11    1    3    3    0    0 -0.18825422796E+02  0.47602368004E+01  0.20872570502E+02  0.28508254900E+02  0.51100000000E-03 0. -1.
        -11    1    3    3    0    0  0.37100474121E+01 -0.50116126331E+01  0.26740919897E+00  0.62411714385E+01  0.51100000000E-03 0.  1.
        -12    1    3    3    0    0 -0.64170800264E+01 -0.70683165465E+01  0.12563800612E+02  0.15779388476E+02  0.00000000000E+00 0.  1.
</event>
<event>
 7    1  0.2900470E-011  0.5052886E+02  0.7816164E-02  0.1300439E+00
        -11   -1    0    0    0    0  0.00000000000E+00  0.00000000000E+00  0.45593999997E+02  0.45594000000E+02  0.51100000000E-03 0.  1.
         11   -1    0    0    0    0 -0.00000000000E+00 -0.00000000000E+00 -0.45593999997E+02  0.45594000000E+02  0.51100000000E-03 0. -1.
    9900012    2    1    2    0    0  0.11745708772E+02 -0.73442299080E+01  0.38226510282E+02  0.50528862332E+02  0.30000007546E+02 0.  0.
         12    1    1    2    0    0 -0.11745708772E+02  0.73442299080E+01 -0.38226510282E+02  0.40659137668E+02  0.00000000000E+00 0. -1.
         11    1    3    3    0    0  0.18229732464E+02 -0.13434750774E+02  0.27650232134E+02  0.35740047725E+02  0.51100000000E-03 0.  1.
        -11    1    3    3    0    0 -0.50745977413E+01  0.53664370197E+01  0.10904768491E+02  0.13170579510E+02  0.51100000000E-03 0. -1.
        -12    1    3    3    0    0 -0.14094259511E+01  0.72408384592E+00 -0.32849034201E+00  0.16182350979E+01  0.00000000000E+00 0.  1.
</event>
<event>
 7    1  0.2900470E-011  0.5052885E+02  0.7816164E-02  0.1300439E+00
        -11   -1    0    0    0    0  0.00000000000E+00  0.00000000000E+00  0.45593999997E+02  0.45594000000E+02  0.51100000000E-03 0. -1.
         11   -1    0    0    0    0 -0.00000000000E+00 -0.00000000000E+00 -0.45593999997E+02  0.45594000000E+02  0.51100000000E-03 0.  1.
    9900012    2    1    2    0    0  0.78481131436E+01 -0.32105952281E+02 -0.23680823894E+02  0.50528850082E+02  0.29999970308E+02 0.  0.
         12    1    1    2    0    0 -0.78481131436E+01  0.32105952281E+02  0.23680823894E+02  0.40659149918E+02  0.00000000000E+00 0. -1.
         11    1    3    3    0    0  0.63121774794E+01 -0.20759527478E+01 -0.41820137987E+01  0.78512676694E+01  0.51100000000E-03 0. -1.
        -11    1    3    3    0    0  0.30713587289E+00 -0.27348599687E+02 -0.49024931014E+01  0.27786231773E+02  0.51100000000E-03 0.  1.
        -12    1    3    3    0    0  0.12287997913E+01 -0.26813998463E+01 -0.14596316994E+02  0.14891350639E+02  0.00000000000E+00 0.  1.
</event>
<event>
 7    1  0.2900470E-011  0.5052886E+02  0.7816164E-02  0.1300439E+00
        -11   -1    0    0    0    0  0.00000000000E+00  0.00000000000E+00  0.45593999997E+02  0.45594000000E+02  0.51100000000E-03 0. -1.
         11   -1    0    0    0    0 -0.00000000000E+00 -0.00000000000E+00 -0.45593999997E+02  0.45594000000E+02  0.51100000000E-03 0.  1.
    9900012    2    1    2    0    0 -0.10844797240E+02 -0.38475803248E+01 -0.38996820495E+02  0.50528861910E+02  0.30000006261E+02 0.  0.
         12    1    1    2    0    0  0.10844797240E+02  0.38475803248E+01  0.38996820495E+02  0.40659138090E+02  0.00000000000E+00 0. -1.
         11    1    3    3    0    0  0.81912811355E-01  0.36787750195E+01  0.37097375976E+00  0.36983397822E+01  0.51100000000E-03 0. -1.
        -11    1    3    3    0    0 -0.88435054030E+01 -0.15104787294E+02 -0.27232867171E+02  0.32372692839E+02  0.51100000000E-03 0.  1.
        -12    1    3    3    0    0 -0.20832046485E+01  0.75784319501E+01 -0.12134927083E+02  0.14457829289E+02  0.00000000000E+00 0.  1.
</event>
<event>
 7    1  0.2900470E-011  0.5052886E+02  0.7816164E-02  0.1300439E+00
        -11   -1    0    0    0    0  0.00000000000E+00  0.00000000000E+00  0.45593999997E+02  0.45594000000E+02  0.51100000000E-03 0. -1.
         11   -1    0    0    0    0 -0.00000000000E+00 -0.00000000000E+00 -0.45593999997E+02  0.45594000000E+02  0.51100000000E-03 0.  1.
    9900012    2    1    2    0    0 -0.24207691265E+02  0.25391672321E+02 -0.20552765824E+02  0.50528861757E+02  0.30000005798E+02 0.  0.
         12    1    1    2    0    0  0.24207691265E+02 -0.25391672321E+02  0.20552765824E+02  0.40659138243E+02  0.00000000000E+00 0. -1.
         11    1    3    3    0    0 -0.97702335292E+01  0.21632812279E+01  0.49646020036E+01  0.11170699271E+02  0.51100000000E-03 0. -1.
        -11    1    3    3    0    0 -0.15965877552E+02  0.16915145037E+02 -0.21773253126E+02  0.31860727072E+02  0.51100000000E-03 0.  1.
         12    1    3    3    0    0  0.15284198158E+01  0.63132460560E+01 -0.37441147015E+01  0.74974354145E+01  0.00000000000E+00 0. -1.
</event>
<event>
 7    1  0.2900470E-011  0.5052885E+02  0.7816164E-02  0.1300439E+00
        -11   -1    0    0    0    0  0.00000000000E+00  0.00000000000E+00  0.45593999997E+02  0.45594000000E+02  0.51100000000E-03 0.  1.
         11   -1    0    0    0    0 -0.00000000000E+00 -0.00000000000E+00 -0.45593999997E+02  0.45594000000E+02  0.51100000000E-03 0. -1.
    9900012    2    1    2    0    0 -0.11292016966E+02 -0.17717793047E+02  0.34810002209E+02  0.50528854763E+02  0.29999984538E+02 0.  0.
         12    1    1    2    0    0  0.11292016966E+02  0.17717793047E+02 -0.34810002209E+02  0.40659145237E+02  0.00000000000E+00 0. -1.
         11    1    3    3    0    0 -0.14360409341E+01  0.54086127053E+01  0.27912816155E+01  0.62535236690E+01  0.51100000000E-03 0. -1.
        -11    1    3    3    0    0  0.27897770959E+01 -0.15583176111E+02  0.15712991417E+02  0.22305074164E+02  0.51100000000E-03 0.  1.
        -12    1    3    3    0    0 -0.12645753128E+02 -0.75432296416E+01  0.16305729176E+02  0.21970256930E+02  0.00000000000E+00 0.  1.
</event>
<event>
 7    1  0.2900470E-011  0.5052887E+02  0.7816164E-02  0.1300439E+00
        -11   -1    0    0    0    0  0.00000000000E+00  0.00000000000E+00  0.45593999997E+02  0.45594000000E+02  0.51100000000E-03 0. -1.
         11   -1    0    0    0    0 -0.00000000000E+00 -0.00000000000E+00 -0.45593999997E+02  0.45594000000E+02  0.51100000000E-03 0.  1.
    9900012    2    1    2    0    0 -0.27542799172E+02  0.29763346559E+02 -0.29500001803E+01  0.50528867130E+02  0.30000022129E+02 0.  0.
         12    1    1    2    0    0  0.27542799172E+02 -0.29763346559E+02  0.29500001803E+01  0.40659132870E+02  0.00000000000E+00 0. -1.
         11    1    3    3    0    0  0.47888485360E+01  0.18404291233E+01  0.19063907725E+01  0.54730773517E+01  0.51100000000E-03 0. -1.
        -11    1    3    3    0    0 -0.20515990203E+02  0.11695311066E+02  0.23406662937E+01  0.23731095084E+02  0.51100000000E-03 0.  1.
         12    1    3    3    0    0 -0.11815657506E+02  0.16227606370E+02 -0.71970572465E+01  0.21324694694E+02  0.00000000000E+00 0. -1.
</event>
<event>
 7    1  0.2900470E-011  0.5052886E+02  0.7816164E-02  0.1300439E+00
        -11   -1    0    0    0    0  0.00000000000E+00  0.00000000000E+00  0.45593999997E+02  0.45594000000E+02  0.51100000000E-03 0. -1.
         11   -1    0    0    0    0 -0.00000000000E+00 -0.00000000000E+00 -0.45593999997E+02  0.45594000000E+02  0.51100000000E-03 0.  1.
    9900012    2    1    2    0    0  0.27872733603E+02  0.14496003159E+02 -0.25809738359E+02  0.50528856129E+02  0.29999988691E+02 0.  0.
         12    1    1    2    0    0 -0.27872733603E+02 -0.14496003159E+02  0.25809738359E+02  0.40659143871E+02  0.00000000000E+00 0. -1.
         11    1    3    3    0    0  0.38242659151E+01  0.60708227251E+01 -0.59048205018E+01  0.92922980886E+01  0.51100000000E-03 0. -1.
        -11    1    3    3    0    0  0.18223641345E+02  0.51914034144E+01  0.13160997615E+01  0.18994312099E+02  0.51100000000E-03 0.  1.
        -12    1    3    3    0    0  0.58248263433E+01  0.32337770200E+01 -0.21221017619E+02  0.22242245942E+02  0.00000000000E+00 0.  1.
</event>
<event>
 7    1  0.2900470E-011  0.5052888E+02  0.7816164E-02  0.1300439E+00
        -11   -1    0    0    0    0  0.00000000000E+00  0.00000000000E+00  0.45593999997E+02  0.45594000000E+02  0.51100000000E-03 0.  1.
         11   -1    0    0    0    0 -0.00000000000E+00 -0.00000000000E+00 -0.45593999997E+02  0.45594000000E+02  0.51100000000E-03 0. -1.
    9900012    2    1    2    0    0  0.21262235042E+02 -0.18562564394E+02  0.29266231768E+02  0.50528883460E+02  0.30000071766E+02 0.  0.
         12    1    1    2    0    0 -0.21262235042E+02  0.18562564394E+02 -0.29266231768E+02  0.40659116540E+02  0.00000000000E+00 0. -1.
         11    1    3    3    0    0  0.82617733146E+01 -0.67150350119E+01 -0.47646060837E+01  0.11664050107E+02  0.51100000000E-03 0. -1.
        -11    1    3    3    0    0  0.11875282222E+02 -0.10689281379E+02  0.33581460130E+02  0.37188674740E+02  0.51100000000E-03 0.  1.
         12    1    3    3    0    0  0.11251795061E+01 -0.11582480032E+01  0.44937772185E+00  0.16761586126E+01  0.00000000000E+00 0. -1.
</event>
<event>
 7    1  0.2900470E-011  0.5052886E+02  0.7816164E-02  0.1300439E+00
        -11   -1    0    0    0    0  0.00000000000E+00  0.00000000000E+00  0.45593999997E+02  0.45594000000E+02  0.51100000000E-03 0.  1.
         11   -1    0    0    0    0 -0.00000000000E+00 -0.00000000000E+00 -0.45593999997E+02  0.45594000000E+02  0.51100000000E-03 0. -1.
    9900012    2    1    2    0    0 -0.20237156848E+02 -0.18218080552E+02  0.30194776642E+02  0.50528861879E+02  0.30000006166E+02 0.  0.
         12    1    1    2    0    0  0.20237156848E+02  0.18218080552E+02 -0.30194776642E+02  0.40659138121E+02  0.00000000000E+00 0. -1.
         11    1    3    3    0    0 -0.60180478302E+01  0.25005773122E+01  0.31162839753E+01  0.72236426169E+01  0.51100000000E-03 0. -1.
        -11    1    3    3    0    0 -0.11180759491E+02 -0.21083728551E+02  0.98677226375E+01  0.25824502758E+02  0.51100000000E-03 0.  1.
        -12    1    3    3    0    0 -0.30383495276E+01  0.36507068748E+00  0.17210770030E+02  0.17480716503E+02  0.00000000000E+00 0.  1.
</event>
<event>
 7    1  0.2900470E-011  0.5052886E+02  0.7816164E-02  0.1300439E+00
        -11   -1    0    0    0    0  0.00000000000E+00  0.00000000000E+00  0.45593999997E+02  0.45594000000E+02  0.51100000000E-03 0.  1.
         11   -1    0    0    0    0 -0.00000000000E+00 -0.00000000000E+00 -0.45593999997E+02  0.45594000000E+02  0.51100000000E-03 0. -1.
    9900012    2    1    2    0    0  0.15888081396E+02 -0.16562082124E+02  0.33562360643E+02  0.50528859003E+02  0.29999997425E+02 0.  0.
         12    1    1    2    0    0 -0.15888081396E+02  0.16562082124E+02 -0.33562360643E+02  0.40659140997E+02  0.00000000000E+00 0. -1.
         11    1    3    3    0    0  0.24391506335E+01  0.42079622071E+01  0.33304821207E+01  0.58947869484E+01  0.51100000000E-03 0. -1.
        -11    1    3    3    0    0  0.18216663876E+02 -0.20443278732E+02  0.28573745889E+02  0.39575667303E+02  0.51100000000E-03 0.  1.
        -12    1    3    3    0    0 -0.47677331137E+01 -0.32676559926E+00  0.16581326331E+01  0.50584047515E+01  0.00000000000E+00 0.  1.
</event>
<event>
 7    1  0.2900470E-011  0.5052885E+02  0.7816164E-02  0.1300439E+00
        -11   -1    0    0    0    0  0.00000000000E+00  0.00000000000E+00  0.45593999997E+02  0.45594000000E+02  0.51100000000E-03 0.  1.
         11   -1    0    0    0    0 -0.00000000000E+00 -0.00000000000E+00 -0.45593999997E+02  0.45594000000E+02  0.51100000000E-03 0. -1.
    9900012    2    1    2    0    0 -0.31879290927E+02  0.62389806966E+01  0.24453062039E+02  0.50528852036E+02  0.29999976247E+02 0.  0.
         12    1    1    2    0    0  0.31879290927E+02 -0.62389806966E+01 -0.24453062039E+02  0.40659147964E+02  0.00000000000E+00 0. -1.
         11    1    3    3    0    0 -0.19089305099E+02  0.56193358534E+00  0.15982526592E+02  0.24902981650E+02  0.51100000000E-03 0.  1.
        -11    1    3    3    0    0 -0.16438386082E+01  0.61795819477E+01 -0.50125267514E+01  0.81249531145E+01  0.51100000000E-03 0. -1.
         12    1    3    3    0    0 -0.11146147220E+02 -0.50253483653E+00  0.13483062198E+02  0.17500917271E+02  0.00000000000E+00 0. -1.
</event>
<event>
 7    1  0.2900470E-011  0.5052885E+02  0.7816164E-02  0.1300439E+00
        -11   -1    0    0    0    0  0.00000000000E+00  0.00000000000E+00  0.45593999997E+02  0.45594000000E+02  0.51100000000E-03 0.  1.
         11   -1    0    0    0    0 -0.00000000000E+00 -0.00000000000E+00 -0.45593999997E+02  0.45594000000E+02  0.51100000000E-03 0. -1.
    9900012    2    1    2    0    0  0.16797590118E+02 -0.16968012318E+02  0.32910399034E+02  0.50528845552E+02  0.29999956541E+02 0.  0.
         12    1    1    2    0    0 -0.16797590118E+02  0.16968012318E+02 -0.32910399034E+02  0.40659154448E+02  0.00000000000E+00 0. -1.
         11    1    3    3    0    0  0.19513627009E+02 -0.13416228498E+01  0.19470886922E+02  0.27598859192E+02  0.51100000000E-03 0. -1.
        -11    1    3    3    0    0 -0.30542108328E+01 -0.89077395722E+01  0.13179250592E+02  0.16197798447E+02  0.51100000000E-03 0.  1.
        -12    1    3    3    0    0  0.33817394156E+00 -0.67186498963E+01  0.26026152035E+00  0.67321879135E+01  0.00000000000E+00 0.  1.
</event>
<event>
 7    1  0.2900470E-011  0.5052886E+02  0.7816164E-02  0.1300439E+00
        -11   -1    0    0    0    0  0.00000000000E+00  0.00000000000E+00  0.45593999997E+02  0.45594000000E+02  0.51100000000E-03 0.  1.
         11   -1    0    0    0    0 -0.00000000000E+00 -0.00000000000E+00 -0.45593999997E+02  0.45594000000E+02  0.51100000000E-03 0. -1.
    9900012    2    1    2    0    0  0.13089976864E+02 -0.96945674568E+01  0.37253636807E+02  0.50528860956E+02  0.30000003361E+02 0.  0.
         12    1    1    2    0    0 -0.13089976864E+02  0.96945674568E+01 -0.37253636807E+02  0.40659139044E+02  0.00000000000E+00 0. -1.
         11    1    3    3    0    0  0.25145728911E+01 -0.12893135857E+01 -0.14596052581E+01  0.31805430539E+01  0.51100000000E-03 0. -1.
        -11    1    3    3    0    0  0.13759022258E+02 -0.10994594004E+02  0.39428010368E+02  0.43182864572E+02  0.51100000000E-03 0.  1.
        -12    1    3    3    0    0 -0.31836182860E+01  0.25893401328E+01 -0.71476830286E+00  0.41654533296E+01  0.00000000000E+00 0.  1.
</event>
<event>
 7    1  0.2900470E-011  0.5052888E+02  0.7816164E-02  0.1300439E+00
        -11   -1    0    0    0    0  0.00000000000E+00  0.00000000000E+00  0.45593999997E+02  0.45594000000E+02  0.51100000000E-03 0.  1.
         11   -1    0    0    0    0 -0.00000000000E+00 -0.00000000000E+00 -0.45593999997E+02  0.45594000000E+02  0.51100000000E-03 0. -1.
    9900012    2    1    2    0    0 -0.98316026242E+01  0.21249144687E+02  0.33241200198E+02  0.50528881088E+02  0.30000064555E+02 0.  0.
         12    1    1    2    0    0  0.98316026242E+01 -0.21249144687E+02 -0.33241200198E+02  0.40659118912E+02  0.00000000000E+00 0. -1.
         11    1    3    3    0    0 -0.85357662108E+01  0.29502627900E+01  0.15708962043E+02  0.18120012254E+02  0.51100000000E-03 0. -1.
        -11    1    3    3    0    0  0.83527683657E+01  0.14361758015E+02  0.87311100587E+01  0.18768620508E+02  0.51100000000E-03 0.  1.
        -12    1    3    3    0    0 -0.96486047791E+01  0.39371238821E+01  0.88011280959E+01  0.13640248326E+02  0.00000000000E+00 0.  1.
</event>
<event>
 7    1  0.2900470E-011  0.5052886E+02  0.7816164E-02  0.1300439E+00
        -11   -1    0    0    0    0  0.00000000000E+00  0.00000000000E+00  0.45593999997E+02  0.45594000000E+02  0.51100000000E-03 0. -1.
         11   -1    0    0    0    0 -0.00000000000E+00 -0.00000000000E+00 -0.45593999997E+02  0.45594000000E+02  0.51100000000E-03 0.  1.
    9900012    2    1    2    0    0  0.13614215420E+01 -0.40120255421E+02 -0.64558260783E+01  0.50528855223E+02  0.29999985936E+02 0.  0.
         12    1    1    2    0    0 -0.13614215420E+01  0.40120255421E+02  0.64558260783E+01  0.40659144777E+02  0.00000000000E+00 0. -1.
         11    1    3    3    0    0  0.27704116636E+01 -0.30609920129E+02  0.30039339387E+01  0.30881483294E+02  0.51100000000E-03 0. -1.
        -11    1    3    3    0    0  0.24949503162E+01 -0.11185887726E+02 -0.10191207211E+02  0.15336543482E+02  0.51100000000E-03 0.  1.
         12    1    3    3    0    0 -0.39039404378E+01  0.16755524337E+01  0.73144719404E+00  0.43108284468E+01  0.00000000000E+00 0. -1.
</event>
<event>
 7    1  0.2900470E-011  0.5052886E+02  0.7816164E-02  0.1300439E+00
        -11   -1    0    0    0    0  0.00000000000E+00  0.00000000000E+00  0.45593999997E+02  0.45594000000E+02  0.51100000000E-03 0. -1.
         11   -1    0    0    0    0 -0.00000000000E+00 -0.00000000000E+00 -0.45593999997E+02  0.45594000000E+02  0.51100000000E-03 0.  1.
    9900012    2    1    2    0    0  0.47045535052E+00  0.40339344975E+02 -0.50676752499E+01  0.50528863097E+02  0.30000009871E+02 0.  0.
         12    1    1    2    0    0 -0.47045535052E+00 -0.40339344975E+02  0.50676752499E+01  0.40659136903E+02  0.00000000000E+00 0. -1.
         11    1    3    3    0    0  0.81793573476E+01  0.34407172820E+02 -0.51263978714E+01  0.35735631847E+02  0.51100000000E-03 0.  1.
        -11    1    3    3    0    0 -0.66552719246E+01 -0.11926190317E+01 -0.24124867151E+01  0.71787935586E+01  0.51100000000E-03 0. -1.
        -12    1    3    3    0    0 -0.10536300724E+01  0.71247911863E+01  0.24712093367E+01  0.76144376918E+01  0.00000000000E+00 0.  1.
</event>
<event>
 7    1  0.2900470E-011  0.5052884E+02  0.7816164E-02  0.1300439E+00
        -11   -1    0    0    0    0  0.00000000000E+00  0.00000000000E+00  0.45593999997E+02  0.45594000000E+02  0.51100000000E-03 0. -1.
         11   -1    0    0    0    0 -0.00000000000E+00 -0.00000000000E+00 -0.45593999997E+02  0.45594000000E+02  0.51100000000E-03 0.  1.
    9900012    2    1    2    0    0 -0.18340159078E+00  0.26049108788E+02 -0.31218223696E+02  0.50528841185E+02  0.29999943266E+02 0.  0.
         12    1    1    2    0    0  0.18340159078E+00 -0.26049108788E+02  0.31218223696E+02  0.40659158815E+02  0.00000000000E+00 0. -1.
         11    1    3    3    0    0  0.84304412656E+01  0.72741249657E+01  0.20788375546E+01  0.11327259147E+02  0.51100000000E-03 0. -1.
        -11    1    3    3    0    0 -0.67435468607E+01  0.13467625216E+02 -0.24071058111E+02  0.28394862072E+02  0.51100000000E-03 0.  1.
         12    1    3    3    0    0 -0.18702959957E+01  0.53073586066E+01 -0.92260031394E+01  0.10806719966E+02  0.00000000000E+00 0. -1.
</event>
<event>
 7    1  0.2900470E-011  0.5052887E+02  0.7816164E-02  0.1300439E+00
        -11   -1    0    0    0    0  0.00000000000E+00  0.00000000000E+00  0.45593999997E+02  0.45594000000E+02  0.51100000000E-03 0.  1.
         11   -1    0    0    0    0 -0.00000000000E+00 -0.00000000000E+00 -0.45593999997E+02  0.45594000000E+02  0.51100000000E-03 0. -1.
    9900012    2    1    2    0    0  0.34706324299E+02  0.19154300602E+02 -0.90414955463E+01  0.50528870403E+02  0.30000032076E+02 0.  0.
         12    1    1    2    0    0 -0.34706324299E+02 -0.19154300602E+02  0.90414955463E+01  0.40659129597E+02  0.00000000000E+00 0. -1.
         11    1    3    3    0    0 -0.27846201737E+01 -0.14685416606E+00 -0.49293407132E+01  0.56633979011E+01  0.51100000000E-03 0. -1.
        -11    1    3    3    0    0  0.32964685731E+02  0.16504808467E+02 -0.86566351159E+01  0.37868410841E+02  0.51100000000E-03 0.  1.
        -12    1    3    3    0    0  0.45262587421E+01  0.27963463009E+01  0.45444802828E+01  0.69970616601E+01  0.00000000000E+00 0.  1.
</event>
<event>
 7    1  0.2900470E-011  0.5052887E+02  0.7816164E-02  0.1300439E+00
        -11   -1    0    0    0    0  0.00000000000E+00  0.00000000000E+00  0.45593999997E+02  0.45594000000E+02  0.51100000000E-03 0.  1.
         11   -1    0    0    0    0 -0.00000000000E+00 -0.00000000000E+00 -0.45593999997E+02  0.45594000000E+02  0.51100000000E-03 0. -1.
    9900012    2    1    2    0    0  0.20327860202E+02 -0.17926705759E+02  0.30308023881E+02  0.50528868291E+02  0.30000025658E+02 0.  0.
         12    1    1    2    0    0 -0.20327860202E+02  0.17926705759E+02 -0.30308023881E+02  0.40659131709E+02  0.00000000000E+00 0. -1.
         11    1    3    3    0    0  0.19106494894E+01  0.24290812213E+01  0.11343664408E+02  0.11757114421E+02  0.51100000000E-03 0. -1.
        -11    1    3    3    0    0  0.17410116169E+02 -0.16449902948E+02  0.22898767169E+02  0.33137063692E+02  0.51100000000E-03 0.  1.
         12    1    3    3    0    0  0.10070945431E+01 -0.39058840317E+01 -0.39344076955E+01  0.56346901780E+01  0.00000000000E+00 0. -1.
</event>
<event>
 7    1  0.2900470E-011  0.5052886E+02  0.7816164E-02  0.1300439E+00
        -11   -1    0    0    0    0  0.00000000000E+00  0.00000000000E+00  0.45593999997E+02  0.45594000000E+02  0.51100000000E-03 0. -1.
         11   -1    0    0    0    0 -0.00000000000E+00 -0.00000000000E+00 -0.45593999997E+02  0.45594000000E+02  0.51100000000E-03 0.  1.
    9900012    2    1    2    0    0  0.17998404393E+02  0.91644619443E+01 -0.35287900705E+02  0.50528857614E+02  0.29999993204E+02 0.  0.
         12    1    1    2    0    0 -0.17998404393E+02 -0.91644619443E+01  0.35287900705E+02  0.40659142386E+02  0.00000000000E+00 0. -1.
         11    1    3    3    0    0  0.33763688298E+01 -0.86601854548E+01 -0.70447153308E+01  0.11663048184E+02  0.51100000000E-03 0. -1.
        -11    1    3    3    0    0  0.17003772353E+02  0.14254822399E+02 -0.21662919297E+02  0.31009842124E+02  0.51100000000E-03 0.  1.
         12    1    3    3    0    0 -0.23817367895E+01  0.35698249997E+01 -0.65802660772E+01  0.78559673058E+01  0.00000000000E+00 0. -1.
</event>
<event>
 7    1  0.2900470E-011  0.5052886E+02  0.7816164E-02  0.1300439E+00
        -11   -1    0    0    0    0  0.00000000000E+00  0.00000000000E+00  0.45593999997E+02  0.45594000000E+02  0.51100000000E-03 0.  1.
         11   -1    0    0    0    0 -0.00000000000E+00 -0.00000000000E+00 -0.45593999997E+02  0.45594000000E+02  0.51100000000E-03 0. -1.
    9900012    2    1    2    0    0  0.25003960110E+02 -0.32061319397E+02 -0.19938802623E+00  0.50528856154E+02  0.29999988766E+02 0.  0.
         12    1    1    2    0    0 -0.25003960110E+02  0.32061319397E+02  0.19938802623E+00  0.40659143846E+02  0.00000000000E+00 0. -1.
         11    1    3    3    0    0  0.33788333327E+01 -0.25334476667E+02  0.55964457347E+01  0.26164335035E+02  0.51100000000E-03 0. -1.
        -11    1    3    3    0    0  0.12460256888E+02 -0.36723772382E+01  0.20537257157E+00  0.12991787192E+02  0.51100000000E-03 0.  1.
         12    1    3    3    0    0  0.91648698896E+01 -0.30544654921E+01 -0.60012063325E+01  0.11372733927E+02  0.00000000000E+00 0. -1.
</event>
<event>
 7    1  0.2900470E-011  0.5052886E+02  0.7816164E-02  0.1300439E+00
        -11   -1    0    0    0    0  0.00000000000E+00  0.00000000000E+00  0.45593999997E+02  0.45594000000E+02  0.51100000000E-03 0.  1.
         11   -1    0    0    0    0 -0.00000000000E+00 -0.00000000000E+00 -0.45593999997E+02  0.45594000000E+02  0.51100000000E-03 0. -1.
    9900012    2    1    2    0    0  0.39613206979E+02 -0.90183914349E+01  0.16212200960E+01  0.50528857045E+02  0.29999991474E+02 0.  0.
         12    1    1    2    0    0 -0.39613206979E+02  0.90183914349E+01 -0.16212200960E+01  0.40659142955E+02  0.00000000000E+00 0. -1.
         11    1    3    3    0    0  0.98671038276E+00  0.57486387875E+01  0.22327445895E+01  0.62454458569E+01  0.51100000000E-03 0. -1.
        -11    1    3    3    0    0  0.24351682729E+02 -0.28025454497E+01 -0.52950911227E+01  0.25077812963E+02  0.51100000000E-03 0.  1.
        -12    1    3    3    0    0  0.14274813867E+02 -0.11964484773E+02  0.46835666292E+01  0.19205598225E+02  0.00000000000E+00 0.  1.
</event>
<event>
 7    1  0.2900470E-011  0.5052886E+02  0.7816164E-02  0.1300439E+00
        -11   -1    0    0    0    0  0.00000000000E+00  0.00000000000E+00  0.45593999997E+02  0.45594000000E+02  0.51100000000E-03 0.  1.
         11   -1    0    0    0    0 -0.00000000000E+00 -0.00000000000E+00 -0.45593999997E+02  0.45594000000E+02  0.51100000000E-03 0. -1.
    9900012    2    1    2    0    0  0.35956212008E+01  0.27034886045E+02  0.30155467709E+02  0.50528858494E+02  0.29999995877E+02 0.  0.
         12    1    1    2    0    0 -0.35956212008E+01 -0.27034886045E+02 -0.30155467709E+02  0.40659141506E+02  0.00000000000E+00 0. -1.
         11    1    3    3    0    0  0.81143856148E+01 -0.16642951334E+01  0.65057413748E+00  0.83088133429E+01  0.51100000000E-03 0. -1.
        -11    1    3    3    0    0 -0.41618713280E+01  0.55342369383E+01  0.53488108945E+01  0.87497845509E+01  0.51100000000E-03 0.  1.
         12    1    3    3    0    0 -0.35689308605E+00  0.23164944240E+02  0.24156082677E+02  0.33470260600E+02  0.00000000000E+00 0. -1.
</event>
<event>
 7    1  0.2900470E-011  0.5052886E+02  0.7816164E-02  0.1300439E+00
        -11   -1    0    0    0    0  0.00000000000E+00  0.00000000000E+00  0.45593999997E+02  0.45594000000E+02  0.51100000000E-03 0.  1.
         11   -1    0    0    0    0 -0.00000000000E+00 -0.00000000000E+00 -0.45593999997E+02  0.45594000000E+02  0.51100000000E-03 0. -1.
    9900012    2    1    2    0    0  0.19392132841E+02 -0.32022475851E+02  0.15864160534E+02  0.50528863693E+02  0.30000011682E+02 0.  0.
         12    1    1    2    0    0 -0.19392132841E+02  0.32022475851E+02 -0.15864160534E+02  0.40659136307E+02  0.00000000000E+00 0. -1.
         11    1    3    3    0    0  0.11966756316E+02 -0.29339474099E+02  0.10267541796E+02  0.33308113305E+02  0.51100000000E-03 0. -1.
        -11    1    3    3    0    0  0.53510300322E+01 -0.39913167901E+01  0.10091882016E+02  0.12100008885E+02  0.51100000000E-03 0.  1.
         12    1    3    3    0    0  0.20743464927E+01  0.13083150378E+01 -0.44952632778E+01  0.51207415036E+01  0.00000000000E+00 0. -1.
</event>
<event>
 7    1  0.2900470E-011  0.5052886E+02  0.7816164E-02  0.1300439E+00
        -11   -1    0    0    0    0  0.00000000000E+00  0.00000000000E+00  0.45593999997E+02  0.45594000000E+02  0.51100000000E-03 0. -1.
         11   -1    0    0    0    0 -0.00000000000E+00 -0.00000000000E+00 -0.45593999997E+02  0.45594000000E+02  0.51100000000E-03 0.  1.
    9900012    2    1    2    0    0  0.29244602941E+02 -0.90426782309E+01  0.26760955061E+02  0.50528861464E+02  0.30000004905E+02 0.  0.
         12    1    1    2    0    0 -0.29244602941E+02  0.90426782309E+01 -0.26760955061E+02  0.40659138536E+02  0.00000000000E+00 0. -1.
         11    1    3    3    0    0  0.63601040737E+01  0.85138932763E+01 -0.45555490079E+00  0.10636956006E+02  0.51100000000E-03 0. -1.
        -11    1    3    3    0    0  0.94904961091E+01 -0.55746927086E+01  0.81862486710E+01  0.13717192962E+02  0.51100000000E-03 0.  1.
         12    1    3    3    0    0  0.13394002758E+02 -0.11981878799E+02  0.19030261291E+02  0.26174712495E+02  0.00000000000E+00 0. -1.
</event>
<event>
 7    1  0.2900470E-011  0.5052885E+02  0.7816164E-02  0.1300439E+00
        -11   -1    0    0    0    0  0.00000000000E+00  0.00000000000E+00  0.45593999997E+02  0.45594000000E+02  0.51100000000E-03 0.  1.
         11   -1    0    0    0    0 -0.00000000000E+00 -0.00000000000E+00 -0.45593999997E+02  0.45594000000E+02  0.51100000000E-03 0. -1.
    9900012    2    1    2    0    0 -0.15318468607E+02  0.37456655394E+02 -0.39382453370E+01  0.50528852319E+02  0.29999977110E+02 0.  0.
         12    1    1    2    0    0  0.15318468607E+02 -0.37456655394E+02  0.39382453370E+01  0.40659147681E+02  0.00000000000E+00 0. -1.
         11    1    3    3    0    0 -0.69106572596E+01  0.63331867968E+01 -0.12992632549E+02  0.16021077978E+02  0.51100000000E-03 0. -1.
        -11    1    3    3    0    0 -0.71724248043E+01  0.13343532312E+02  0.65710699747E+01  0.16512797855E+02  0.51100000000E-03 0.  1.
         12    1    3    3    0    0 -0.12353865427E+01  0.17779936285E+02  0.24833172377E+01  0.17994976486E+02  0.00000000000E+00 0. -1.
</event>
<event>
 7    1  0.2900470E-011  0.5052886E+02  0.7816164E-02  0.1300439E+00
        -11   -1    0    0    0    0  0.00000000000E+00  0.00000000000E+00  0.45593999997E+02  0.45594000000E+02  0.51100000000E-03 0. -1.
         11   -1    0    0    0    0 -0.00000000000E+00 -0.00000000000E+00 -0.45593999997E+02  0.45594000000E+02  0.51100000000E-03 0.  1.
    9900012    2    1    2    0    0  0.19080199192E+02  0.17208502550E+02 -0.31511574808E+02  0.50528857017E+02  0.29999991390E+02 0.  0.
         12    1    1    2    0    0 -0.19080199192E+02 -0.17208502550E+02  0.31511574808E+02  0.40659142983E+02  0.00000000000E+00 0. -1.
         11    1    3    3    0    0  0.41797765525E+01 -0.41620098162E+01 -0.11677408409E+02  0.13082611557E+02  0.51100000000E-03 0. -1.
        -11    1    3    3    0    0  0.10169034278E+02  0.23513456019E+02 -0.12623131271E+02  0.28559329744E+02  0.51100000000E-03 0.  1.
        -12    1    3    3    0    0  0.47313883619E+01 -0.21429436525E+01 -0.72110351273E+01  0.88869157156E+01  0.00000000000E+00 0.  1.
</event>
<event>
 7    1  0.2900470E-011  0.5052886E+02  0.7816164E-02  0.1300439E+00
        -11   -1    0    0    0    0  0.00000000000E+00  0.00000000000E+00  0.45593999997E+02  0.45594000000E+02  0.51100000000E-03 0. -1.
         11   -1    0    0    0    0 -0.00000000000E+00 -0.00000000000E+00 -0.45593999997E+02  0.45594000000E+02  0.51100000000E-03 0.  1.
    9900012    2    1    2    0    0  0.15760510844E+02  0.36767251938E+02  0.72760913333E+01  0.50528855614E+02  0.29999987124E+02 0.  0.
         12    1    1    2    0    0 -0.15760510844E+02 -0.36767251938E+02 -0.72760913333E+01  0.40659144386E+02  0.00000000000E+00 0. -1.
         11    1    3    3    0    0  0.99597880331E+01  0.17939998163E+01 -0.49400698647E+01  0.11261443226E+02  0.51100000000E-03 0. -1.
        -11    1    3    3    0    0  0.67695255810E+00  0.22315660043E+02  0.24095143074E+01  0.22455571856E+02  0.51100000000E-03 0.  1.
         12    1    3    3    0    0  0.51237702531E+01  0.12657592079E+02  0.98066468905E+01  0.16811840532E+02  0.00000000000E+00 0. -1.
</event>
<event>
 7    1  0.2900470E-011  0.5052886E+02  0.7816164E-02  0.1300439E+00
        -11   -1    0    0    0    0  0.00000000000E+00  0.00000000000E+00  0.45593999997E+02  0.45594000000E+02  0.51100000000E-03 0. -1.
         11   -1    0    0    0    0 -0.00000000000E+00 -0.00000000000E+00 -0.45593999997E+02  0.45594000000E+02  0.51100000000E-03 0.  1.
    9900012    2    1    2    0    0 -0.28358039407E+02 -0.45085849345E+01 -0.28786456423E+02  0.50528858217E+02  0.29999995038E+02 0.  0.
         12    1    1    2    0    0  0.28358039407E+02  0.45085849345E+01  0.28786456423E+02  0.40659141783E+02  0.00000000000E+00 0. -1.
         11    1    3    3    0    0 -0.18464825669E+01  0.86521919180E+01 -0.48285645600E+01  0.10078936394E+02  0.51100000000E-03 0. -1.
        -11    1    3    3    0    0 -0.22617526998E+02 -0.10913376904E+02 -0.25409564051E+02  0.35725344903E+02  0.51100000000E-03 0.  1.
         12    1    3    3    0    0 -0.38940298419E+01 -0.22473999484E+01  0.14516721878E+01  0.47245769206E+01  0.00000000000E+00 0. -1.
</event>
<event>
 7    1  0.2900470E-011  0.5052886E+02  0.7816164E-02  0.1300439E+00
        -11   -1    0    0    0    0  0.00000000000E+00  0.00000000000E+00  0.45593999997E+02  0.45594000000E+02  0.51100000000E-03 0.  1.
         11   -1    0    0    0    0 -0.00000000000E+00 -0.00000000000E+00 -0.45593999997E+02  0.45594000000E+02  0.51100000000E-03 0. -1.
    9900012    2    1    2    0    0 -0.10371891453E+02 -0.37900520796E+02 -0.10447010309E+02  0.50528860396E+02  0.30000001660E+02 0.  0.
         12    1    1    2    0    0  0.10371891453E+02  0.37900520796E+02  0.10447010309E+02  0.40659139604E+02  0.00000000000E+00 0. -1.
         11    1    3    3    0    0  0.17090468714E+01 -0.15702076234E+02 -0.80363851938E+01  0.17721724705E+02  0.51100000000E-03 0. -1.
        -11    1    3    3    0    0 -0.15553042193E+02 -0.24065375836E+02 -0.30415739035E+01  0.28814763710E+02  0.51100000000E-03 0.  1.
         12    1    3    3    0    0  0.34721038686E+01  0.18669312749E+01  0.63094878799E+00  0.39923719807E+01  0.00000000000E+00 0. -1.
</event>
<event>
 7    1  0.2900470E-011  0.5052886E+02  0.7816164E-02  0.1300439E+00
        -11   -1    0    0    0    0  0.00000000000E+00  0.00000000000E+00  0.45593999997E+02  0.45594000000E+02  0.51100000000E-03 0. -1.
         11   -1    0    0    0    0 -0.00000000000E+00 -0.00000000000E+00 -0.45593999997E+02  0.45594000000E+02  0.51100000000E-03 0.  1.
    9900012    2    1    2    0    0 -0.23607642476E+02 -0.29514476290E+02 -0.14991361406E+02  0.50528855754E+02  0.29999987551E+02 0.  0.
         12    1    1    2    0    0  0.23607642476E+02  0.29514476290E+02  0.14991361406E+02  0.40659144246E+02  0.00000000000E+00 0. -1.
         11    1    3    3    0    0 -0.19834544532E+02 -0.34802435038E+01 -0.85073649360E+01  0.21860844221E+02  0.51100000000E-03 0. -1.
        -11    1    3    3    0    0 -0.20729518998E+01 -0.11445731243E+02 -0.76698198131E+01  0.13932983510E+02  0.51100000000E-03 0.  1.
         12    1    3    3    0    0 -0.17001460445E+01 -0.14588501544E+02  0.11858233429E+01  0.14735028024E+02  0.00000000000E+00 0. -1.
</event>
<event>
 7    1  0.2900470E-011  0.5052887E+02  0.7816164E-02  0.1300439E+00
        -11   -1    0    0    0    0  0.00000000000E+00  0.00000000000E+00  0.45593999997E+02  0.45594000000E+02  0.51100000000E-03 0.  1.
         11   -1    0    0    0    0 -0.00000000000E+00 -0.00000000000E+00 -0.45593999997E+02  0.45594000000E+02  0.51100000000E-03 0. -1.
    9900012    2    1    2    0    0 -0.92345948494E+01 -0.34633208399E+02  0.19194479441E+02  0.50528869327E+02  0.30000028808E+02 0.  0.
         12    1    1    2    0    0  0.92345948494E+01  0.34633208399E+02 -0.19194479441E+02  0.40659130673E+02  0.00000000000E+00 0. -1.
         11    1    3    3    0    0 -0.13799827494E+01 -0.68810589525E+01 -0.50058466903E+01  0.86204307343E+01  0.51100000000E-03 0. -1.
        -11    1    3    3    0    0 -0.34601682327E+01 -0.29054643137E+02  0.22865641043E+02  0.37134654874E+02  0.51100000000E-03 0.  1.
        -12    1    3    3    0    0 -0.43944438673E+01  0.13024936904E+01  0.13346850878E+01  0.47737837194E+01  0.00000000000E+00 0.  1.
</event>
<event>
 7    1  0.2900470E-011  0.5052886E+02  0.7816164E-02  0.1300439E+00
        -11   -1    0    0    0    0  0.00000000000E+00  0.00000000000E+00  0.45593999997E+02  0.45594000000E+02  0.51100000000E-03 0.  1.
         11   -1    0    0    0    0 -0.00000000000E+00 -0.00000000000E+00 -0.45593999997E+02  0.45594000000E+02  0.51100000000E-03 0. -1.
    9900012    2    1    2    0    0 -0.18229044004E+02  0.22077290679E+02  0.28869723453E+02  0.50528859068E+02  0.29999997624E+02 0.  0.
         12    1    1    2    0    0  0.18229044004E+02 -0.22077290679E+02 -0.28869723453E+02  0.40659140932E+02  0.00000000000E+00 0. -1.
         11    1    3    3    0    0 -0.43594166578E+01  0.10035948979E+01  0.16024912770E+02  0.16637594353E+02  0.51100000000E-03 0. -1.
        -11    1    3    3    0    0 -0.13901195514E+02  0.19600272279E+02  0.33253971964E+01  0.24258445476E+02  0.51100000000E-03 0.  1.
        -12    1    3    3    0    0  0.31568167798E-01  0.14734235024E+01  0.95194134868E+01  0.96328192394E+01  0.00000000000E+00 0.  1.
</event>
<event>
 7    1  0.2900470E-011  0.5052886E+02  0.7816164E-02  0.1300439E+00
        -11   -1    0    0    0    0  0.00000000000E+00  0.00000000000E+00  0.45593999997E+02  0.45594000000E+02  0.51100000000E-03 0.  1.
         11   -1    0    0    0    0 -0.00000000000E+00 -0.00000000000E+00 -0.45593999997E+02  0.45594000000E+02  0.51100000000E-03 0. -1.
    9900012    2    1    2    0    0 -0.59166489992E+01  0.16376861837E+02  0.36741761644E+02  0.50528863417E+02  0.30000010841E+02 0.  0.
         12    1    1    2    0    0  0.59166489992E+01 -0.16376861837E+02 -0.36741761644E+02  0.40659136583E+02  0.00000000000E+00 0. -1.
         11    1    3    3    0    0 -0.64116269869E+00  0.12868952337E+02  0.58776523401E+01  0.14162196904E+02  0.51100000000E-03 0. -1.
        -11    1    3    3    0    0  0.15871018406E+01 -0.25202982012E+00  0.27981336256E+02  0.28027443519E+02  0.51100000000E-03 0.  1.
        -12    1    3    3    0    0 -0.68625881411E+01  0.37599393207E+01  0.28827730472E+01  0.83392229932E+01  0.00000000000E+00 0.  1.
</event>
<event>
 7    1  0.2900470E-011  0.5052886E+02  0.7816164E-02  0.1300439E+00
        -11   -1    0    0    0    0  0.00000000000E+00  0.00000000000E+00  0.45593999997E+02  0.45594000000E+02  0.51100000000E-03 0. -1.
         11   -1    0    0    0    0 -0.00000000000E+00 -0.00000000000E+00 -0.45593999997E+02  0.45594000000E+02  0.51100000000E-03 0.  1.
    9900012    2    1    2    0    0 -0.28896129071E+02  0.11719277480E+01 -0.28579813189E+02  0.50528863120E+02  0.30000009938E+02 0.  0.
         12    1    1    2    0    0  0.28896129071E+02 -0.11719277480E+01  0.28579813189E+02  0.40659136880E+02  0.00000000000E+00 0. -1.
         11    1    3    3    0    0 -0.26253650843E+01 -0.20726655583E+01  0.48499696330E+01  0.58915778909E+01  0.51100000000E-03 0. -1.
        -11    1    3    3    0    0 -0.18961684163E+02 -0.18115017696E+01 -0.15247109229E+02  0.24398798025E+02  0.51100000000E-03 0.  1.
         12    1    3    3    0    0 -0.73090798231E+01  0.50560950760E+01 -0.18182673593E+02  0.20238487203E+02  0.00000000000E+00 0. -1.
</event>
<event>
 7    1  0.2900470E-011  0.5052886E+02  0.7816164E-02  0.1300439E+00
        -11   -1    0    0    0    0  0.00000000000E+00  0.00000000000E+00  0.45593999997E+02  0.45594000000E+02  0.51100000000E-03 0. -1.
         11   -1    0    0    0    0 -0.00000000000E+00 -0.00000000000E+00 -0.45593999997E+02  0.45594000000E+02  0.51100000000E-03 0.  1.
    9900012    2    1    2    0    0 -0.22840734157E+01 -0.31723713973E+02  0.25328926945E+02  0.50528861300E+02  0.30000004409E+02 0.  0.
         12    1    1    2    0    0  0.22840734157E+01  0.31723713973E+02 -0.25328926945E+02  0.40659138700E+02  0.00000000000E+00 0. -1.
         11    1    3    3    0    0  0.59786428675E+01 -0.21870010312E-01  0.82840637601E+01  0.10216181355E+02  0.51100000000E-03 0. -1.
        -11    1    3    3    0    0 -0.82726139997E+01 -0.30850179102E+02  0.10366556344E+02  0.33580279685E+02  0.51100000000E-03 0.  1.
        -12    1    3    3    0    0  0.98977165582E-02 -0.85166486032E+00  0.66783068415E+01  0.67324002606E+01  0.00000000000E+00 0.  1.
</event>
<event>
 7    1  0.2900470E-011  0.5052886E+02  0.7816164E-02  0.1300439E+00
        -11   -1    0    0    0    0  0.00000000000E+00  0.00000000000E+00  0.45593999997E+02  0.45594000000E+02  0.51100000000E-03 0.  1.
         11   -1    0    0    0    0 -0.00000000000E+00 -0.00000000000E+00 -0.45593999997E+02  0.45594000000E+02  0.51100000000E-03 0. -1.
    9900012    2    1    2    0    0 -0.63699467016E+01 -0.40091521182E+02  0.22933044845E+01  0.50528861579E+02  0.30000005256E+02 0.  0.
         12    1    1    2    0    0  0.63699467016E+01  0.40091521182E+02 -0.22933044845E+01  0.40659138421E+02  0.00000000000E+00 0. -1.
         11    1    3    3    0    0  0.10258462660E+02 -0.85995105725E+01  0.30362135471E+01  0.13726114934E+02  0.51100000000E-03 0. -1.
        -11    1    3    3    0    0 -0.10950059941E+02 -0.27902923358E+02  0.46120073654E+00  0.29978152895E+02  0.51100000000E-03 0.  1.
         12    1    3    3    0    0 -0.56783494201E+01 -0.35890872514E+01 -0.12041097992E+01  0.68245937493E+01  0.00000000000E+00 0. -1.
</event>
<event>
 7    1  0.2900470E-011  0.5052887E+02  0.7816164E-02  0.1300439E+00
        -11   -1    0    0    0    0  0.00000000000E+00  0.00000000000E+00  0.45593999997E+02  0.45594000000E+02  0.51100000000E-03 0.  1.
         11   -1    0    0    0    0 -0.00000000000E+00 -0.00000000000E+00 -0.45593999997E+02  0.45594000000E+02  0.51100000000E-03 0. -1.
    9900012    2    1    2    0    0 -0.32514507546E+02 -0.16434065537E+00  0.24411980034E+02  0.50528868455E+02  0.30000026156E+02 0.  0.
         12    1    1    2    0    0  0.32514507546E+02  0.16434065537E+00 -0.24411980034E+02  0.40659131545E+02  0.00000000000E+00 0. -1.
         11    1    3    3    0    0 -0.20395089445E+00  0.15146611427E+01  0.16913898460E+02  0.16982807651E+02  0.51100000000E-03 0. -1.
        -11    1    3    3    0    0 -0.21235965280E+02  0.61872284272E+00  0.33958378419E+01  0.21514663703E+02  0.51100000000E-03 0.  1.
         12    1    3    3    0    0 -0.11074591371E+02 -0.22977246408E+01  0.41022437320E+01  0.12031397101E+02  0.00000000000E+00 0. -1.
</event>
<event>
 7    1  0.2900470E-011  0.5052885E+02  0.7816164E-02  0.1300439E+00
        -11   -1    0    0    0    0  0.00000000000E+00  0.00000000000E+00  0.45593999997E+02  0.45594000000E+02  0.51100000000E-03 0.  1.
         11   -1    0    0    0    0 -0.00000000000E+00 -0.00000000000E+00 -0.45593999997E+02  0.45594000000E+02  0.51100000000E-03 0. -1.
    9900012    2    1    2    0    0 -0.30720565831E+02  0.22140679674E+02  0.14805515516E+02  0.50528854029E+02  0.29999982306E+02 0.  0.
         12    1    1    2    0    0  0.30720565831E+02 -0.22140679674E+02 -0.14805515516E+02  0.40659145971E+02  0.00000000000E+00 0. -1.
         11    1    3    3    0    0 -0.15508843399E+01 -0.25784200481E+01  0.70156936444E+01  0.76337048511E+01  0.51100000000E-03 0. -1.
        -11    1    3    3    0    0 -0.89944154854E+01  0.10467997110E+02 -0.54870396304E+01  0.14852140505E+02  0.51100000000E-03 0.  1.
        -12    1    3    3    0    0 -0.20175266006E+02  0.14251102613E+02  0.13276861502E+02  0.28043008673E+02  0.00000000000E+00 0.  1.
</event>
<event>
 7    1  0.2900470E-011  0.5052886E+02  0.7816164E-02  0.1300439E+00
        -11   -1    0    0    0    0  0.00000000000E+00  0.00000000000E+00  0.45593999997E+02  0.45594000000E+02  0.51100000000E-03 0. -1.
         11   -1    0    0    0    0 -0.00000000000E+00 -0.00000000000E+00 -0.45593999997E+02  0.45594000000E+02  0.51100000000E-03 0.  1.
    9900012    2    1    2    0    0 -0.16661052202E+02  0.31608716284E+02 -0.19402688263E+02  0.50528856902E+02  0.29999991041E+02 0.  0.
         12    1    1    2    0    0  0.16661052202E+02 -0.31608716284E+02  0.19402688263E+02  0.40659143098E+02  0.00000000000E+00 0. -1.
         11    1    3    3    0    0  0.78728342497E+01  0.29901636816E+01 -0.19049606859E+01  0.86343195124E+01  0.51100000000E-03 0. -1.
        -11    1    3    3    0    0 -0.15010824919E+02  0.19770690305E+02 -0.92028249081E+01  0.26474460267E+02  0.51100000000E-03 0.  1.
         12    1    3    3    0    0 -0.95230615327E+01  0.88478622978E+01 -0.82949026689E+01  0.15420077123E+02  0.00000000000E+00 0. -1.
</event>
<event>
 7    1  0.2900470E-011  0.5052884E+02  0.7816164E-02  0.1300439E+00
        -11   -1    0    0    0    0  0.00000000000E+00  0.00000000000E+00  0.45593999997E+02  0.45594000000E+02  0.51100000000E-03 0. -1.
         11   -1    0    0    0    0 -0.00000000000E+00 -0.00000000000E+00 -0.45593999997E+02  0.45594000000E+02  0.51100000000E-03 0.  1.
    9900012    2    1    2    0    0 -0.35170373502E+02  0.20170261269E+02  0.30614343433E+01  0.50528843686E+02  0.29999950869E+02 0.  0.
         12    1    1    2    0    0  0.35170373502E+02 -0.20170261269E+02 -0.30614343433E+01  0.40659156314E+02  0.00000000000E+00 0. -1.
         11    1    3    3    0    0 -0.99010368390E+01 -0.48509243301E+01 -0.82841235405E+00  0.11056593717E+02  0.51100000000E-03 0.  1.
        -11    1    3    3    0    0 -0.15878821401E+02  0.13999987951E+02 -0.59216286472E+01  0.21981863383E+02  0.51100000000E-03 0. -1.
         12    1    3    3    0    0 -0.93905152619E+01  0.11021197648E+02  0.98114753445E+01  0.17490386585E+02  0.00000000000E+00 0. -1.
</event>
<event>
 7    1  0.2900470E-011  0.5052886E+02  0.7816164E-02  0.1300439E+00
        -11   -1    0    0    0    0  0.00000000000E+00  0.00000000000E+00  0.45593999997E+02  0.45594000000E+02  0.51100000000E-03 0.  1.
         11   -1    0    0    0    0 -0.00000000000E+00 -0.00000000000E+00 -0.45593999997E+02  0.45594000000E+02  0.51100000000E-03 0. -1.
    9900012    2    1    2    0    0 -0.66275450557E+01 -0.32475720564E+02  0.23549281869E+02  0.50528862575E+02  0.30000008283E+02 0.  0.
         12    1    1    2    0    0  0.66275450557E+01  0.32475720564E+02 -0.23549281869E+02  0.40659137425E+02  0.00000000000E+00 0. -1.
         11    1    3    3    0    0  0.63195793252E+01 -0.38192276386E+01  0.22610380442E+01  0.77224268142E+01  0.51100000000E-03 0. -1.
        -11    1    3    3    0    0 -0.15425029670E+02 -0.16756013904E+02  0.65419278705E+01  0.23695830072E+02  0.51100000000E-03 0.  1.
        -12    1    3    3    0    0  0.24779052896E+01 -0.11900479022E+02  0.14746315954E+02  0.19110605689E+02  0.00000000000E+00 0.  1.
</event>
<event>
 7    1  0.2900470E-011  0.5052886E+02  0.7816164E-02  0.1300439E+00
        -11   -1    0    0    0    0  0.00000000000E+00  0.00000000000E+00  0.45593999997E+02  0.45594000000E+02  0.51100000000E-03 0. -1.
         11   -1    0    0    0    0 -0.00000000000E+00 -0.00000000000E+00 -0.45593999997E+02  0.45594000000E+02  0.51100000000E-03 0.  1.
    9900012    2    1    2    0    0  0.36270842131E+02 -0.17257297337E+01  0.18292440983E+02  0.50528861678E+02  0.30000005555E+02 0.  0.
         12    1    1    2    0    0 -0.36270842131E+02  0.17257297337E+01 -0.18292440983E+02  0.40659138322E+02  0.00000000000E+00 0. -1.
         11    1    3    3    0    0  0.39323539376E+02 -0.19093075176E+01  0.10835822462E+02  0.40833824863E+02  0.51100000000E-03 0. -1.
        -11    1    3    3    0    0 -0.26435436969E+01 -0.11334280044E+00  0.46664519646E+00  0.26868062581E+01  0.51100000000E-03 0.  1.
         12    1    3    3    0    0 -0.40915354788E+00  0.29692058430E+00  0.69899733243E+01  0.70082305565E+01  0.00000000000E+00 0. -1.
</event>
<event>
 7    1  0.2900470E-011  0.5052885E+02  0.7816164E-02  0.1300439E+00
        -11   -1    0    0    0    0  0.00000000000E+00  0.00000000000E+00  0.45593999997E+02  0.45594000000E+02  0.51100000000E-03 0. -1.
         11   -1    0    0    0    0 -0.00000000000E+00 -0.00000000000E+00 -0.45593999997E+02  0.45594000000E+02  0.51100000000E-03 0.  1.
    9900012    2    1    2    0    0 -0.24437101490E+02 -0.23296503141E+02 -0.22655404371E+02  0.50528851767E+02  0.29999975430E+02 0.  0.
         12    1    1    2    0    0  0.24437101490E+02  0.23296503141E+02  0.22655404371E+02  0.40659148233E+02  0.00000000000E+00 0. -1.
         11    1    3    3    0    0 -0.51063822879E+01  0.14805624189E+01 -0.15251255519E+02  0.16151408617E+02  0.51100000000E-03 0. -1.
        -11    1    3    3    0    0 -0.56458908027E+01 -0.14734560337E+02  0.19347302800E+00  0.15780392370E+02  0.51100000000E-03 0.  1.
        -12    1    3    3    0    0 -0.13684828399E+02 -0.10042505223E+02 -0.75976218807E+01  0.18597050780E+02  0.00000000000E+00 0.  1.
</event>
<event>
 7    1  0.2900470E-011  0.5052886E+02  0.7816164E-02  0.1300439E+00
        -11   -1    0    0    0    0  0.00000000000E+00  0.00000000000E+00  0.45593999997E+02  0.45594000000E+02  0.51100000000E-03 0. -1.
         11   -1    0    0    0    0 -0.00000000000E+00 -0.00000000000E+00 -0.45593999997E+02  0.45594000000E+02  0.51100000000E-03 0.  1.
    9900012    2    1    2    0    0  0.11786274588E+02  0.13528940182E+02 -0.36485847087E+02  0.50528861682E+02  0.30000005567E+02 0.  0.
         12    1    1    2    0    0 -0.11786274588E+02 -0.13528940182E+02  0.36485847087E+02  0.40659138318E+02  0.00000000000E+00 0. -1.
         11    1    3    3    0    0  0.37923106885E+01  0.23693008545E+01  0.91577366105E+00  0.45644110854E+01  0.51100000000E-03 0. -1.
        -11    1    3    3    0    0 -0.30647214329E+01  0.68886971358E+00 -0.27765499608E+02  0.27942620272E+02  0.51100000000E-03 0.  1.
        -12    1    3    3    0    0  0.11058685332E+02  0.10470769614E+02 -0.96361211406E+01  0.18021830324E+02  0.00000000000E+00 0.  1.
</event>
<event>
 7    1  0.2900470E-011  0.5052886E+02  0.7816164E-02  0.1300439E+00
        -11   -1    0    0    0    0  0.00000000000E+00  0.00000000000E+00  0.45593999997E+02  0.45594000000E+02  0.51100000000E-03 0. -1.
         11   -1    0    0    0    0 -0.00000000000E+00 -0.00000000000E+00 -0.45593999997E+02  0.45594000000E+02  0.51100000000E-03 0.  1.
    9900012    2    1    2    0    0  0.23857441722E+02  0.31224242724E+02  0.10441991937E+02  0.50528855213E+02  0.29999985906E+02 0.  0.
         12    1    1    2    0    0 -0.23857441722E+02 -0.31224242724E+02 -0.10441991937E+02  0.40659144787E+02  0.00000000000E+00 0. -1.
         11    1    3    3    0    0 -0.53811492907E+01  0.10119110701E+02 -0.96677399698E+00  0.11501644286E+02  0.51100000000E-03 0. -1.
        -11    1    3    3    0    0  0.12836720192E+02  0.36147778527E+01  0.44815693488E+01  0.14068847440E+02  0.51100000000E-03 0.  1.
         12    1    3    3    0    0  0.16401870820E+02  0.17490354171E+02  0.69271965848E+01  0.24958363487E+02  0.00000000000E+00 0. -1.
</event>
<event>
 7    1  0.2900470E-011  0.5052886E+02  0.7816164E-02  0.1300439E+00
        -11   -1    0    0    0    0  0.00000000000E+00  0.00000000000E+00  0.45593999997E+02  0.45594000000E+02  0.51100000000E-03 0. -1.
         11   -1    0    0    0    0 -0.00000000000E+00 -0.00000000000E+00 -0.45593999997E+02  0.45594000000E+02  0.51100000000E-03 0.  1.
    9900012    2    1    2    0    0 -0.28647754075E+02  0.20681488099E+02  0.20118355309E+02  0.50528856085E+02  0.29999988557E+02 0.  0.
         12    1    1    2    0    0  0.28647754075E+02 -0.20681488099E+02 -0.20118355309E+02  0.40659143915E+02  0.00000000000E+00 0. -1.
         11    1    3    3    0    0 -0.77541013969E+01  0.52547706549E+00  0.17115154490E+02  0.18797093608E+02  0.51100000000E-03 0. -1.
        -11    1    3    3    0    0 -0.18944473033E+02  0.18690298567E+02  0.65695440090E+01  0.27411297447E+02  0.51100000000E-03 0.  1.
         12    1    3    3    0    0 -0.19491796453E+01  0.14657124669E+01 -0.35663431903E+01  0.43204650301E+01  0.00000000000E+00 0. -1.
</event>
<event>
 7    1  0.2900470E-011  0.5052881E+02  0.7816164E-02  0.1300439E+00
        -11   -1    0    0    0    0  0.00000000000E+00  0.00000000000E+00  0.45593999997E+02  0.45594000000E+02  0.51100000000E-03 0.  1.
         11   -1    0    0    0    0 -0.00000000000E+00 -0.00000000000E+00 -0.45593999997E+02  0.45594000000E+02  0.51100000000E-03 0. -1.
    9900012    2    1    2    0    0  0.34787970184E+02 -0.18062988354E+02  0.10802567184E+02  0.50528808228E+02  0.29999843089E+02 0.  0.
         12    1    1    2    0    0 -0.34787970184E+02  0.18062988354E+02 -0.10802567184E+02  0.40659191772E+02  0.00000000000E+00 0. -1.
         11    1    3    3    0    0  0.13316028128E+02  0.53983163406E+01 -0.19467104381E+01  0.14499934697E+02  0.51100000000E-03 0. -1.
        -11    1    3    3    0    0  0.38744935906E+01 -0.12013770250E+02  0.35830813733E+01  0.13121770025E+02  0.51100000000E-03 0.  1.
         12    1    3    3    0    0  0.17597448465E+02 -0.11447534445E+02  0.91661962491E+01  0.22907103506E+02  0.00000000000E+00 0. -1.
</event>
<event>
 7    1  0.2900470E-011  0.5052890E+02  0.7816164E-02  0.1300439E+00
        -11   -1    0    0    0    0  0.00000000000E+00  0.00000000000E+00  0.45593999997E+02  0.45594000000E+02  0.51100000000E-03 0.  1.
         11   -1    0    0    0    0 -0.00000000000E+00 -0.00000000000E+00 -0.45593999997E+02  0.45594000000E+02  0.51100000000E-03 0. -1.
    9900012    2    1    2    0    0 -0.82749467672E+00 -0.13375716205E+02  0.38387082737E+02  0.50528897052E+02  0.30000113080E+02 0.  0.
         12    1    1    2    0    0  0.82749467672E+00  0.13375716205E+02 -0.38387082737E+02  0.40659102948E+02  0.00000000000E+00 0. -1.
         11    1    3    3    0    0 -0.16169043104E+01 -0.12360487235E+01 -0.19792636233E+01  0.28389576869E+01  0.51100000000E-03 0. -1.
        -11    1    3    3    0    0  0.30230378012E+01  0.52973807056E+01  0.19360936235E+02  0.20298937214E+02  0.51100000000E-03 0.  1.
        -12    1    3    3    0    0 -0.22336281675E+01 -0.17437048188E+02  0.21005410126E+02  0.27391002151E+02  0.00000000000E+00 0.  1.
</event>
<event>
 7    1  0.2900470E-011  0.5052886E+02  0.7816164E-02  0.1300439E+00
        -11   -1    0    0    0    0  0.00000000000E+00  0.00000000000E+00  0.45593999997E+02  0.45594000000E+02  0.51100000000E-03 0.  1.
         11   -1    0    0    0    0 -0.00000000000E+00 -0.00000000000E+00 -0.45593999997E+02  0.45594000000E+02  0.51100000000E-03 0. -1.
    9900012    2    1    2    0    0 -0.83416761402E+01  0.13575143316E+02  0.37407182511E+02  0.50528863508E+02  0.30000011120E+02 0.  0.
         12    1    1    2    0    0  0.83416761402E+01 -0.13575143316E+02 -0.37407182511E+02  0.40659136492E+02  0.00000000000E+00 0. -1.
         11    1    3    3    0    0 -0.16939881811E+02  0.55265560577E+01  0.16760765124E+02  0.24462740350E+02  0.51100000000E-03 0.  1.
        -11    1    3    3    0    0  0.10919501464E+02  0.71378924086E+01  0.19106750047E+02  0.23135533663E+02  0.51100000000E-03 0. -1.
         12    1    3    3    0    0 -0.23212957934E+01  0.91069484974E+00  0.15396673394E+01  0.29305894946E+01  0.00000000000E+00 0. -1.
</event>
<event>
 7    1  0.2900470E-011  0.5052894E+02  0.7816164E-02  0.1300439E+00
        -11   -1    0    0    0    0  0.00000000000E+00  0.00000000000E+00  0.45593999997E+02  0.45594000000E+02  0.51100000000E-03 0. -1.
         11   -1    0    0    0    0 -0.00000000000E+00 -0.00000000000E+00 -0.45593999997E+02  0.45594000000E+02  0.51100000000E-03 0.  1.
    9900012    2    1    2    0    0 -0.11929349727E+01  0.40389094948E+02 -0.45229687286E+01  0.50528937902E+02  0.30000237247E+02 0.  0.
         12    1    1    2    0    0  0.11929349727E+01 -0.40389094948E+02  0.45229687286E+01  0.40659062098E+02  0.00000000000E+00 0. -1.
         11    1    3    3    0    0 -0.45724469024E+01  0.36517522389E+02 -0.81292379873E+01  0.37689802634E+02  0.51100000000E-03 0.  1.
        -11    1    3    3    0    0  0.24551278030E+01 -0.30467718985E+01  0.43132160768E+01  0.58235989489E+01  0.51100000000E-03 0. -1.
         12    1    3    3    0    0  0.92438412675E+00  0.69183444576E+01 -0.70694681813E+00  0.70155363196E+01  0.00000000000E+00 0. -1.
</event>
<event>
 7    1  0.2900470E-011  0.5052886E+02  0.7816164E-02  0.1300439E+00
        -11   -1    0    0    0    0  0.00000000000E+00  0.00000000000E+00  0.45593999997E+02  0.45594000000E+02  0.51100000000E-03 0.  1.
         11   -1    0    0    0    0 -0.00000000000E+00 -0.00000000000E+00 -0.45593999997E+02  0.45594000000E+02  0.51100000000E-03 0. -1.
    9900012    2    1    2    0    0 -0.54084663807E+01  0.39862181180E+02 -0.59093765227E+01  0.50528859233E+02  0.29999998125E+02 0.  0.
         12    1    1    2    0    0  0.54084663807E+01 -0.39862181180E+02  0.59093765227E+01  0.40659140767E+02  0.00000000000E+00 0. -1.
         11    1    3    3    0    0  0.26134955000E+00 -0.13431596621E+01  0.45891311793E+00  0.14432543005E+01  0.51100000000E-03 0. -1.
        -11    1    3    3    0    0 -0.12352414221E+02  0.32690739506E+02 -0.11916679670E+02  0.36922538390E+02  0.51100000000E-03 0.  1.
        -12    1    3    3    0    0  0.66825982899E+01  0.85146013360E+01  0.55483900290E+01  0.12163066543E+02  0.00000000000E+00 0.  1.
</event>
<event>
 7    1  0.2900470E-011  0.5052885E+02  0.7816164E-02  0.1300439E+00
        -11   -1    0    0    0    0  0.00000000000E+00  0.00000000000E+00  0.45593999997E+02  0.45594000000E+02  0.51100000000E-03 0. -1.
         11   -1    0    0    0    0 -0.00000000000E+00 -0.00000000000E+00 -0.45593999997E+02  0.45594000000E+02  0.51100000000E-03 0.  1.
    9900012    2    1    2    0    0 -0.15037071651E+02 -0.21728219293E+02 -0.30902066918E+02  0.50528846328E+02  0.29999958899E+02 0.  0.
         12    1    1    2    0    0  0.15037071651E+02  0.21728219293E+02  0.30902066918E+02  0.40659153672E+02  0.00000000000E+00 0. -1.
         11    1    3    3    0    0  0.46858194092E+00  0.74756572748E+00 -0.13088276610E+02  0.13117980349E+02  0.51100000000E-03 0. -1.
        -11    1    3    3    0    0 -0.18279504763E+02 -0.20674896783E+02 -0.19409343251E+02  0.33738913099E+02  0.51100000000E-03 0.  1.
        -12    1    3    3    0    0  0.27738511715E+01 -0.18008882373E+01  0.15955529425E+01  0.36719528805E+01  0.00000000000E+00 0.  1.
</event>
<event>
 7    1  0.2900470E-011  0.5052886E+02  0.7816164E-02  0.1300439E+00
        -11   -1    0    0    0    0  0.00000000000E+00  0.00000000000E+00  0.45593999997E+02  0.45594000000E+02  0.51100000000E-03 0.  1.
         11   -1    0    0    0    0 -0.00000000000E+00 -0.00000000000E+00 -0.45593999997E+02  0.45594000000E+02  0.51100000000E-03 0. -1.
    9900012    2    1    2    0    0 -0.24971840610E+02  0.26801448520E+02  0.17642425929E+02  0.50528860082E+02  0.30000000704E+02 0.  0.
         12    1    1    2    0    0  0.24971840610E+02 -0.26801448520E+02 -0.17642425929E+02  0.40659139918E+02  0.00000000000E+00 0. -1.
         11    1    3    3    0    0  0.37395993742E+01  0.10721860530E+01  0.60839197936E+01  0.72213756811E+01  0.51100000000E-03 0. -1.
        -11    1    3    3    0    0 -0.24499434910E+02  0.11857615987E+02  0.68792177602E+01  0.28073991613E+02  0.51100000000E-03 0.  1.
        -12    1    3    3    0    0 -0.42120050742E+01  0.13871646480E+02  0.46792883754E+01  0.15233492788E+02  0.00000000000E+00 0.  1.
</event>
<event>
 7    1  0.2900470E-011  0.5052886E+02  0.7816164E-02  0.1300439E+00
        -11   -1    0    0    0    0  0.00000000000E+00  0.00000000000E+00  0.45593999997E+02  0.45594000000E+02  0.51100000000E-03 0.  1.
         11   -1    0    0    0    0 -0.00000000000E+00 -0.00000000000E+00 -0.45593999997E+02  0.45594000000E+02  0.51100000000E-03 0. -1.
    9900012    2    1    2    0    0 -0.11700396950E+01  0.39527992472E+02  0.94516953225E+01  0.50528859253E+02  0.29999998187E+02 0.  0.
         12    1    1    2    0    0  0.11700396950E+01 -0.39527992472E+02 -0.94516953225E+01  0.40659140747E+02  0.00000000000E+00 0. -1.
         11    1    3    3    0    0  0.14749126546E+01  0.23910183571E+01 -0.57562966407E+01  0.64052546709E+01  0.51100000000E-03 0. -1.
        -11    1    3    3    0    0 -0.77077206180E+01  0.30311783155E+02  0.64774207538E+01  0.31940102302E+02  0.51100000000E-03 0.  1.
        -12    1    3    3    0    0  0.50627682684E+01  0.68251909597E+01  0.87305712094E+01  0.12183502280E+02  0.00000000000E+00 0.  1.
</event>
<event>
 7    1  0.2900470E-011  0.5052886E+02  0.7816164E-02  0.1300439E+00
        -11   -1    0    0    0    0  0.00000000000E+00  0.00000000000E+00  0.45593999997E+02  0.45594000000E+02  0.51100000000E-03 0. -1.
         11   -1    0    0    0    0 -0.00000000000E+00 -0.00000000000E+00 -0.45593999997E+02  0.45594000000E+02  0.51100000000E-03 0.  1.
    9900012    2    1    2    0    0  0.23546760363E+02  0.30659629451E+02  0.12597732032E+02  0.50528860142E+02  0.30000000887E+02 0.  0.
         12    1    1    2    0    0 -0.23546760363E+02 -0.30659629451E+02 -0.12597732032E+02  0.40659139858E+02  0.00000000000E+00 0. -1.
         11    1    3    3    0    0 -0.50325261019E+01  0.11619030099E+02  0.55396330845E+01  0.13820843475E+02  0.51100000000E-03 0. -1.
        -11    1    3    3    0    0  0.13068540948E+02  0.11363472437E+02 -0.15339873773E+01  0.17385867418E+02  0.51100000000E-03 0.  1.
         12    1    3    3    0    0  0.15510745517E+02  0.76771269148E+01  0.85920863249E+01  0.19322149248E+02  0.00000000000E+00 0. -1.
</event>
<event>
 7    1  0.2900470E-011  0.5052882E+02  0.7816164E-02  0.1300439E+00
        -11   -1    0    0    0    0  0.00000000000E+00  0.00000000000E+00  0.45593999997E+02  0.45594000000E+02  0.51100000000E-03 0.  1.
         11   -1    0    0    0    0 -0.00000000000E+00 -0.00000000000E+00 -0.45593999997E+02  0.45594000000E+02  0.51100000000E-03 0. -1.
    9900012    2    1    2    0    0 -0.19457839709E+02  0.26594296702E+02  0.23818166413E+02  0.50528816604E+02  0.29999868548E+02 0.  0.
         12    1    1    2    0    0  0.19457839709E+02 -0.26594296702E+02 -0.23818166413E+02  0.40659183396E+02  0.00000000000E+00 0. -1.
         11    1    3    3    0    0  0.20008245172E+01 -0.18124231569E+01  0.15110107552E+01  0.30937566504E+01  0.51100000000E-03 0. -1.
        -11    1    3    3    0    0 -0.23632499133E+02  0.21491352816E+02  0.24043778712E+02  0.39980952417E+02  0.51100000000E-03 0.  1.
        -12    1    3    3    0    0  0.21738349064E+01  0.69153670422E+01 -0.17366230551E+01  0.74541075364E+01  0.00000000000E+00 0.  1.
</event>
<event>
 7    1  0.2900470E-011  0.5052886E+02  0.7816164E-02  0.1300439E+00
        -11   -1    0    0    0    0  0.00000000000E+00  0.00000000000E+00  0.45593999997E+02  0.45594000000E+02  0.51100000000E-03 0.  1.
         11   -1    0    0    0    0 -0.00000000000E+00 -0.00000000000E+00 -0.45593999997E+02  0.45594000000E+02  0.51100000000E-03 0. -1.
    9900012    2    1    2    0    0  0.93359253253E+01 -0.37758431893E+02  0.11845121449E+02  0.50528861017E+02  0.30000003548E+02 0.  0.
         12    1    1    2    0    0 -0.93359253253E+01  0.37758431893E+02 -0.11845121449E+02  0.40659138983E+02  0.00000000000E+00 0. -1.
         11    1    3    3    0    0 -0.57097662669E+01 -0.17726397818E+02  0.15493380008E+02  0.24225429506E+02  0.51100000000E-03 0. -1.
        -11    1    3    3    0    0  0.14850762814E+01 -0.24584654006E+01  0.18740388954E+01  0.34295080886E+01  0.51100000000E-03 0.  1.
         12    1    3    3    0    0  0.13560615311E+02 -0.17573568675E+02 -0.55222974545E+01  0.22873923423E+02  0.00000000000E+00 0. -1.
</event>
<event>
 7    1  0.2900470E-011  0.5052885E+02  0.7816164E-02  0.1300439E+00
        -11   -1    0    0    0    0  0.00000000000E+00  0.00000000000E+00  0.45593999997E+02  0.45594000000E+02  0.51100000000E-03 0.  1.
         11   -1    0    0    0    0 -0.00000000000E+00 -0.00000000000E+00 -0.45593999997E+02  0.45594000000E+02  0.51100000000E-03 0. -1.
    9900012    2    1    2    0    0 -0.10697580644E+02  0.20719293956E+02  0.33308246195E+02  0.50528848038E+02  0.29999964097E+02 0.  0.
         12    1    1    2    0    0  0.10697580644E+02 -0.20719293956E+02 -0.33308246195E+02  0.40659151962E+02  0.00000000000E+00 0. -1.
         11    1    3    3    0    0  0.69750467645E+01 -0.11430927519E+01  0.18828088869E+00  0.70706002829E+01  0.51100000000E-03 0. -1.
        -11    1    3    3    0    0 -0.10487523649E+02  0.13062729690E+02  0.18837144145E+02  0.25208352962E+02  0.51100000000E-03 0.  1.
         12    1    3    3    0    0 -0.71851037598E+01  0.87996570179E+01  0.14282821161E+02  0.18249894794E+02  0.00000000000E+00 0. -1.
</event>
<event>
 7    1  0.2900470E-011  0.5052887E+02  0.7816164E-02  0.1300439E+00
        -11   -1    0    0    0    0  0.00000000000E+00  0.00000000000E+00  0.45593999997E+02  0.45594000000E+02  0.51100000000E-03 0. -1.
         11   -1    0    0    0    0 -0.00000000000E+00 -0.00000000000E+00 -0.45593999997E+02  0.45594000000E+02  0.51100000000E-03 0.  1.
    9900012    2    1    2    0    0  0.37318641281E+02  0.88268741889E+01 -0.13511860745E+02  0.50528867252E+02  0.30000022500E+02 0.  0.
         12    1    1    2    0    0 -0.37318641281E+02 -0.88268741889E+01  0.13511860745E+02  0.40659132748E+02  0.00000000000E+00 0. -1.
         11    1    3    3    0    0  0.19793070743E+02 -0.85864935714E+01 -0.31567050412E+01  0.21805006495E+02  0.51100000000E-03 0. -1.
        -11    1    3    3    0    0  0.14973436973E+02  0.11854973881E+02 -0.32909188160E+01  0.19379741160E+02  0.51100000000E-03 0.  1.
        -12    1    3    3    0    0  0.25521335654E+01  0.55583938791E+01 -0.70642368874E+01  0.93441195975E+01  0.00000000000E+00 0.  1.
</event>
<event>
 7    1  0.2900470E-011  0.5052887E+02  0.7816164E-02  0.1300439E+00
        -11   -1    0    0    0    0  0.00000000000E+00  0.00000000000E+00  0.45593999997E+02  0.45594000000E+02  0.51100000000E-03 0.  1.
         11   -1    0    0    0    0 -0.00000000000E+00 -0.00000000000E+00 -0.45593999997E+02  0.45594000000E+02  0.51100000000E-03 0. -1.
    9900012    2    1    2    0    0  0.28698046330E+02  0.57207057516E+01  0.28228716840E+02  0.50528870743E+02  0.30000033111E+02 0.  0.
         12    1    1    2    0    0 -0.28698046330E+02 -0.57207057516E+01 -0.28228716840E+02  0.40659129257E+02  0.00000000000E+00 0. -1.
         11    1    3    3    0    0 -0.32587621581E+01  0.84520141855E+01  0.42615067755E+01  0.10010819889E+02  0.51100000000E-03 0. -1.
        -11    1    3    3    0    0  0.23992250099E+02  0.62884749207E+00  0.16920004135E+02  0.29365116281E+02  0.51100000000E-03 0.  1.
         12    1    3    3    0    0  0.79645583895E+01 -0.33601559260E+01  0.70472059295E+01  0.11152934574E+02  0.00000000000E+00 0. -1.
</event>
<event>
 7    1  0.2900470E-011  0.5052886E+02  0.7816164E-02  0.1300439E+00
        -11   -1    0    0    0    0  0.00000000000E+00  0.00000000000E+00  0.45593999997E+02  0.45594000000E+02  0.51100000000E-03 0.  1.
         11   -1    0    0    0    0 -0.00000000000E+00 -0.00000000000E+00 -0.45593999997E+02  0.45594000000E+02  0.51100000000E-03 0. -1.
    9900012    2    1    2    0    0 -0.55509264879E+01 -0.13613525163E+01  0.40255429102E+02  0.50528860342E+02  0.30000001495E+02 0.  0.
         12    1    1    2    0    0  0.55509264879E+01  0.13613525163E+01 -0.40255429102E+02  0.40659139658E+02  0.00000000000E+00 0. -1.
         11    1    3    3    0    0  0.66601347939E+01  0.33305672762E+01  0.10080453868E+02  0.12532582507E+02  0.51100000000E-03 0.  1.
        -11    1    3    3    0    0 -0.11917020940E+02 -0.24578379544E+01  0.57332348617E+01  0.13450886132E+02  0.51100000000E-03 0. -1.
         12    1    3    3    0    0 -0.29404034134E+00 -0.22340818381E+01  0.24441740372E+02  0.24545391702E+02  0.00000000000E+00 0. -1.
</event>
<event>
 7    1  0.2900470E-011  0.5052886E+02  0.7816164E-02  0.1300439E+00
        -11   -1    0    0    0    0  0.00000000000E+00  0.00000000000E+00  0.45593999997E+02  0.45594000000E+02  0.51100000000E-03 0.  1.
         11   -1    0    0    0    0 -0.00000000000E+00 -0.00000000000E+00 -0.45593999997E+02  0.45594000000E+02  0.51100000000E-03 0. -1.
    9900012    2    1    2    0    0 -0.11132509643E+02  0.38825227662E+02 -0.46727802974E+01  0.50528856506E+02  0.29999989836E+02 0.  0.
         12    1    1    2    0    0  0.11132509643E+02 -0.38825227662E+02  0.46727802974E+01  0.40659143494E+02  0.00000000000E+00 0. -1.
         11    1    3    3    0    0 -0.62006462642E+01  0.16926755696E+02 -0.10314570078E+02  0.20769049777E+02  0.51100000000E-03 0.  1.
        -11    1    3    3    0    0 -0.22449645712E+00  0.24274520044E+01  0.91093685042E+01  0.94299266540E+01  0.51100000000E-03 0. -1.
         12    1    3    3    0    0 -0.47073669215E+01  0.19471019961E+02 -0.34675787236E+01  0.20329880075E+02  0.00000000000E+00 0. -1.
</event>
<event>
 7    1  0.2900470E-011  0.5052889E+02  0.7816164E-02  0.1300439E+00
        -11   -1    0    0    0    0  0.00000000000E+00  0.00000000000E+00  0.45593999997E+02  0.45594000000E+02  0.51100000000E-03 0. -1.
         11   -1    0    0    0    0 -0.00000000000E+00 -0.00000000000E+00 -0.45593999997E+02  0.45594000000E+02  0.51100000000E-03 0.  1.
    9900012    2    1    2    0    0 -0.17239552138E+02  0.23004809186E+02 -0.28753079050E+02  0.50528893290E+02  0.30000101645E+02 0.  0.
         12    1    1    2    0    0  0.17239552138E+02 -0.23004809186E+02  0.28753079050E+02  0.40659106710E+02  0.00000000000E+00 0. -1.
         11    1    3    3    0    0 -0.34008801258E+01  0.27163080125E+00  0.44387952038E+01  0.55984526474E+01  0.51100000000E-03 0. -1.
        -11    1    3    3    0    0 -0.13587452026E+02  0.18443307337E+02 -0.33542832294E+02  0.40618912303E+02  0.51100000000E-03 0.  1.
        -12    1    3    3    0    0 -0.25121998552E+00  0.42898710469E+01  0.35095804002E+00  0.43115283400E+01  0.00000000000E+00 0.  1.
</event>
<event>
 7    1  0.2900470E-011  0.5052886E+02  0.7816164E-02  0.1300439E+00
        -11   -1    0    0    0    0  0.00000000000E+00  0.00000000000E+00  0.45593999997E+02  0.45594000000E+02  0.51100000000E-03 0. -1.
         11   -1    0    0    0    0 -0.00000000000E+00 -0.00000000000E+00 -0.45593999997E+02  0.45594000000E+02  0.51100000000E-03 0.  1.
    9900012    2    1    2    0    0  0.38766669349E+02 -0.10967249810E+02  0.54799822673E+01  0.50528862940E+02  0.30000009393E+02 0.  0.
         12    1    1    2    0    0 -0.38766669349E+02  0.10967249810E+02 -0.54799822673E+01  0.40659137060E+02  0.00000000000E+00 0. -1.
         11    1    3    3    0    0  0.29932736907E+02  0.63098913191E+01  0.34569384908E+01  0.30785286928E+02  0.51100000000E-03 0. -1.
        -11    1    3    3    0    0  0.22970834304E+01 -0.35114032939E+01 -0.72681341521E+00  0.42584977844E+01  0.51100000000E-03 0.  1.
         12    1    3    3    0    0  0.65368490111E+01 -0.13765737836E+02  0.27498571918E+01  0.15485078228E+02  0.00000000000E+00 0. -1.
</event>
<event>
 7    1  0.2900470E-011  0.5052887E+02  0.7816164E-02  0.1300439E+00
        -11   -1    0    0    0    0  0.00000000000E+00  0.00000000000E+00  0.45593999997E+02  0.45594000000E+02  0.51100000000E-03 0.  1.
         11   -1    0    0    0    0 -0.00000000000E+00 -0.00000000000E+00 -0.45593999997E+02  0.45594000000E+02  0.51100000000E-03 0. -1.
    9900012    2    1    2    0    0 -0.32690529161E+02 -0.13790708426E+02  0.19857250344E+02  0.50528871542E+02  0.30000035539E+02 0.  0.
         12    1    1    2    0    0  0.32690529161E+02  0.13790708426E+02 -0.19857250344E+02  0.40659128458E+02  0.00000000000E+00 0. -1.
         11    1    3    3    0    0 -0.24943772577E+02 -0.42382975624E+01  0.24785091671E+00  0.25302497642E+02  0.51100000000E-03 0. -1.
        -11    1    3    3    0    0 -0.16941819880E+01 -0.55521700686E+01  0.16202980944E+02  0.17211433317E+02  0.51100000000E-03 0.  1.
        -12    1    3    3    0    0 -0.60525745965E+01 -0.40002407954E+01  0.34064184833E+01  0.80149405831E+01  0.00000000000E+00 0.  1.
</event>
<event>
 7    1  0.2900470E-011  0.5052885E+02  0.7816164E-02  0.1300439E+00
        -11   -1    0    0    0    0  0.00000000000E+00  0.00000000000E+00  0.45593999997E+02  0.45594000000E+02  0.51100000000E-03 0. -1.
         11   -1    0    0    0    0 -0.00000000000E+00 -0.00000000000E+00 -0.45593999997E+02  0.45594000000E+02  0.51100000000E-03 0.  1.
    9900012    2    1    2    0    0  0.38367238087E+02 -0.12223045891E+02 -0.56319416473E+01  0.50528848804E+02  0.29999966423E+02 0.  0.
         12    1    1    2    0    0 -0.38367238087E+02  0.12223045891E+02  0.56319416473E+01  0.40659151196E+02  0.00000000000E+00 0. -1.
         11    1    3    3    0    0  0.26576183769E+02 -0.13299910240E+02  0.77816828599E+01  0.30720282299E+02  0.51100000000E-03 0. -1.
        -11    1    3    3    0    0  0.62890587851E+01 -0.16615840750E+01 -0.11768154331E+02  0.13446284939E+02  0.51100000000E-03 0.  1.
        -12    1    3    3    0    0  0.55019955330E+01  0.27384484244E+01 -0.16454701761E+01  0.63622815655E+01  0.00000000000E+00 0.  1.
</event>
<event>
 7    1  0.2900470E-011  0.5052885E+02  0.7816164E-02  0.1300439E+00
        -11   -1    0    0    0    0  0.00000000000E+00  0.00000000000E+00  0.45593999997E+02  0.45594000000E+02  0.51100000000E-03 0.  1.
         11   -1    0    0    0    0 -0.00000000000E+00 -0.00000000000E+00 -0.45593999997E+02  0.45594000000E+02  0.51100000000E-03 0. -1.
    9900012    2    1    2    0    0  0.23961291776E+02 -0.10571397488E+02  0.31100943111E+02  0.50528848376E+02  0.29999965122E+02 0.  0.
         12    1    1    2    0    0 -0.23961291776E+02  0.10571397488E+02 -0.31100943111E+02  0.40659151624E+02  0.00000000000E+00 0. -1.
         11    1    3    3    0    0 -0.42690644261E+01 -0.42437477041E+01  0.11939145896E+00  0.60206777220E+01  0.51100000000E-03 0. -1.
        -11    1    3    3    0    0  0.26050193811E+02 -0.10037375453E+01  0.26861055570E+02  0.37431756481E+02  0.51100000000E-03 0.  1.
        -12    1    3    3    0    0  0.21801623904E+01 -0.53239122386E+01  0.41204960822E+01  0.70764141722E+01  0.00000000000E+00 0.  1.
</event>
<event>
 7    1  0.2900470E-011  0.5052886E+02  0.7816164E-02  0.1300439E+00
        -11   -1    0    0    0    0  0.00000000000E+00  0.00000000000E+00  0.45593999997E+02  0.45594000000E+02  0.51100000000E-03 0.  1.
         11   -1    0    0    0    0 -0.00000000000E+00 -0.00000000000E+00 -0.45593999997E+02  0.45594000000E+02  0.51100000000E-03 0. -1.
    9900012    2    1    2    0    0 -0.21106873132E+01 -0.17051997555E+02  0.36850237446E+02  0.50528860543E+02  0.30000002107E+02 0.  0.
         12    1    1    2    0    0  0.21106873132E+01  0.17051997555E+02 -0.36850237446E+02  0.40659139457E+02  0.00000000000E+00 0. -1.
         11    1    3    3    0    0  0.14838328611E+01  0.22833869467E+01 -0.39510641456E+01  0.47985960501E+01  0.51100000000E-03 0. -1.
        -11    1    3    3    0    0  0.62736336460E+00 -0.32679925446E+01  0.12285569814E+02  0.12728259346E+02  0.51100000000E-03 0.  1.
         12    1    3    3    0    0 -0.42218835389E+01 -0.16067391957E+02  0.28515731777E+02  0.33002005147E+02  0.00000000000E+00 0. -1.
</event>
<event>
 7    1  0.2900470E-011  0.5052885E+02  0.7816164E-02  0.1300439E+00
        -11   -1    0    0    0    0  0.00000000000E+00  0.00000000000E+00  0.45593999997E+02  0.45594000000E+02  0.51100000000E-03 0. -1.
         11   -1    0    0    0    0 -0.00000000000E+00 -0.00000000000E+00 -0.45593999997E+02  0.45594000000E+02  0.51100000000E-03 0.  1.
    9900012    2    1    2    0    0 -0.22498920450E+02 -0.28098891101E+02 -0.18905478757E+02  0.50528853064E+02  0.29999979373E+02 0.  0.
         12    1    1    2    0    0  0.22498920450E+02  0.28098891101E+02  0.18905478757E+02  0.40659146936E+02  0.00000000000E+00 0. -1.
         11    1    3    3    0    0 -0.46023054154E+01 -0.16115569003E+02 -0.26047377143E+01  0.16961056519E+02  0.51100000000E-03 0. -1.
        -11    1    3    3    0    0 -0.14602033963E+02 -0.97105362173E+01 -0.21023573240E+02  0.27377080588E+02  0.51100000000E-03 0.  1.
        -12    1    3    3    0    0 -0.32945810710E+01 -0.22727858813E+01  0.47228321971E+01  0.61907159568E+01  0.00000000000E+00 0.  1.
</event>
<event>
 7    1  0.2900470E-011  0.5052886E+02  0.7816164E-02  0.1300439E+00
        -11   -1    0    0    0    0  0.00000000000E+00  0.00000000000E+00  0.45593999997E+02  0.45594000000E+02  0.51100000000E-03 0.  1.
         11   -1    0    0    0    0 -0.00000000000E+00 -0.00000000000E+00 -0.45593999997E+02  0.45594000000E+02  0.51100000000E-03 0. -1.
    9900012    2    1    2    0    0 -0.39351738974E+02 -0.74467404370E+01  0.70108586641E+01  0.50528862741E+02  0.30000008788E+02 0.  0.
         12    1    1    2    0    0  0.39351738974E+02  0.74467404370E+01 -0.70108586641E+01  0.40659137259E+02  0.00000000000E+00 0. -1.
         11    1    3    3    0    0 -0.28464346559E+02  0.14157172547E+00 -0.66226220847E+00  0.28472401709E+02  0.51100000000E-03 0. -1.
        -11    1    3    3    0    0 -0.59675937413E+01 -0.12383723052E+02  0.59126922711E+01  0.14964247453E+02  0.51100000000E-03 0.  1.
        -12    1    3    3    0    0 -0.49197986743E+01  0.47954108892E+01  0.17604286014E+01  0.70922135792E+01  0.00000000000E+00 0.  1.
</event>
<event>
 7    1  0.2900470E-011  0.5052887E+02  0.7816164E-02  0.1300439E+00
        -11   -1    0    0    0    0  0.00000000000E+00  0.00000000000E+00  0.45593999997E+02  0.45594000000E+02  0.51100000000E-03 0. -1.
         11   -1    0    0    0    0 -0.00000000000E+00 -0.00000000000E+00 -0.45593999997E+02  0.45594000000E+02  0.51100000000E-03 0.  1.
    9900012    2    1    2    0    0  0.28174497768E+02 -0.88670005987E+01 -0.27941705262E+02  0.50528869205E+02  0.30000028434E+02 0.  0.
         12    1    1    2    0    0 -0.28174497768E+02  0.88670005987E+01  0.27941705262E+02  0.40659130795E+02  0.00000000000E+00 0. -1.
         11    1    3    3    0    0  0.75401209655E+01  0.39016155083E+01  0.28443233936E+01  0.89535581518E+01  0.51100000000E-03 0. -1.
        -11    1    3    3    0    0  0.20254449477E+02 -0.10884116535E+02 -0.31922959858E+02  0.39341861709E+02  0.51100000000E-03 0.  1.
        -12    1    3    3    0    0  0.37992732534E+00 -0.18844995720E+01  0.11369312030E+01  0.22334493434E+01  0.00000000000E+00 0.  1.
</event>
<event>
 7    1  0.2900470E-011  0.5052886E+02  0.7816164E-02  0.1300439E+00
        -11   -1    0    0    0    0  0.00000000000E+00  0.00000000000E+00  0.45593999997E+02  0.45594000000E+02  0.51100000000E-03 0. -1.
         11   -1    0    0    0    0 -0.00000000000E+00 -0.00000000000E+00 -0.45593999997E+02  0.45594000000E+02  0.51100000000E-03 0.  1.
    9900012    2    1    2    0    0  0.38237116087E+02 -0.45436319322E+01 -0.13055407784E+02  0.50528864370E+02  0.30000013739E+02 0.  0.
         12    1    1    2    0    0 -0.38237116087E+02  0.45436319322E+01  0.13055407784E+02  0.40659135630E+02  0.00000000000E+00 0. -1.
         11    1    3    3    0    0  0.74105378217E+00  0.32664674810E+01  0.64646369659E+01  0.72808311253E+01  0.51100000000E-03 0. -1.
        -11    1    3    3    0    0  0.27340397811E+02 -0.54207215623E+01 -0.16484628852E+02  0.32382473089E+02  0.51100000000E-03 0.  1.
        -12    1    3    3    0    0  0.10155664493E+02 -0.23893778509E+01 -0.30354158980E+01  0.10865560155E+02  0.00000000000E+00 0.  1.
</event>
<event>
 7    1  0.2900470E-011  0.5052888E+02  0.7816164E-02  0.1300439E+00
        -11   -1    0    0    0    0  0.00000000000E+00  0.00000000000E+00  0.45593999997E+02  0.45594000000E+02  0.51100000000E-03 0.  1.
         11   -1    0    0    0    0 -0.00000000000E+00 -0.00000000000E+00 -0.45593999997E+02  0.45594000000E+02  0.51100000000E-03 0. -1.
    9900012    2    1    2    0    0 -0.16972283942E+01 -0.29237164071E+01  0.40518334743E+02  0.50528878610E+02  0.30000057024E+02 0.  0.
         12    1    1    2    0    0  0.16972283942E+01  0.29237164071E+01 -0.40518334743E+02  0.40659121390E+02  0.00000000000E+00 0. -1.
         11    1    3    3    0    0  0.11075493749E+02 -0.12947425082E+01  0.26312509638E+02  0.28577807538E+02  0.51100000000E-03 0. -1.
        -11    1    3    3    0    0 -0.24453084530E+01 -0.47468678145E+01  0.76440592756E+01  0.93243728984E+01  0.51100000000E-03 0.  1.
         12    1    3    3    0    0 -0.10327413690E+02  0.31178939155E+01  0.65617658290E+01  0.12626698174E+02  0.00000000000E+00 0. -1.
</event>
<event>
 7    1  0.2900470E-011  0.5052885E+02  0.7816164E-02  0.1300439E+00
        -11   -1    0    0    0    0  0.00000000000E+00  0.00000000000E+00  0.45593999997E+02  0.45594000000E+02  0.51100000000E-03 0.  1.
         11   -1    0    0    0    0 -0.00000000000E+00 -0.00000000000E+00 -0.45593999997E+02  0.45594000000E+02  0.51100000000E-03 0. -1.
    9900012    2    1    2    0    0 -0.16453600833E+02 -0.34539477617E+02  0.13764795528E+02  0.50528854776E+02  0.29999984578E+02 0.  0.
         12    1    1    2    0    0  0.16453600833E+02  0.34539477617E+02 -0.13764795528E+02  0.40659145224E+02  0.00000000000E+00 0. -1.
         11    1    3    3    0    0 -0.29146755005E+01 -0.22591587075E+01 -0.11477766183E+01  0.38621914460E+01  0.51100000000E-03 0. -1.
        -11    1    3    3    0    0 -0.17999324508E+02 -0.34688799006E+02  0.12342430223E+02  0.40983216604E+02  0.51100000000E-03 0.  1.
        -12    1    3    3    0    0  0.44603991755E+01  0.24084800964E+01  0.25701419234E+01  0.56834467259E+01  0.00000000000E+00 0.  1.
</event>
<event>
 7    1  0.2900470E-011  0.5052886E+02  0.7816164E-02  0.1300439E+00
        -11   -1    0    0    0    0  0.00000000000E+00  0.00000000000E+00  0.45593999997E+02  0.45594000000E+02  0.51100000000E-03 0.  1.
         11   -1    0    0    0    0 -0.00000000000E+00 -0.00000000000E+00 -0.45593999997E+02  0.45594000000E+02  0.51100000000E-03 0. -1.
    9900012    2    1    2    0    0  0.20387474044E+02  0.31941059886E+02  0.14740604236E+02  0.50528858128E+02  0.29999994765E+02 0.  0.
         12    1    1    2    0    0 -0.20387474044E+02 -0.31941059886E+02 -0.14740604236E+02  0.40659141872E+02  0.00000000000E+00 0. -1.
         11    1    3    3    0    0  0.75464070599E+01  0.22769675608E+02  0.75507626934E+00  0.23999510979E+02  0.51100000000E-03 0. -1.
        -11    1    3    3    0    0  0.15103103241E+02  0.22600398016E+01  0.94252874138E+01  0.17945683339E+02  0.51100000000E-03 0.  1.
        -12    1    3    3    0    0 -0.22620362566E+01  0.69113444759E+01  0.45602405531E+01  0.85836638094E+01  0.00000000000E+00 0.  1.
</event>
<event>
 7    1  0.2900470E-011  0.5052879E+02  0.7816164E-02  0.1300439E+00
        -11   -1    0    0    0    0  0.00000000000E+00  0.00000000000E+00  0.45593999997E+02  0.45594000000E+02  0.51100000000E-03 0. -1.
         11   -1    0    0    0    0 -0.00000000000E+00 -0.00000000000E+00 -0.45593999997E+02  0.45594000000E+02  0.51100000000E-03 0.  1.
    9900012    2    1    2    0    0 -0.11501252638E+02  0.38034373714E+02 -0.86185124892E+01  0.50528792511E+02  0.29999795317E+02 0.  0.
         12    1    1    2    0    0  0.11501252638E+02 -0.38034373714E+02  0.86185124892E+01  0.40659207489E+02  0.00000000000E+00 0. -1.
         11    1    3    3    0    0 -0.57261625136E+01  0.25436603798E+02  0.87841204248E+01  0.27513097278E+02  0.51100000000E-03 0. -1.
        -11    1    3    3    0    0  0.47248257585E+00  0.58327376164E+01 -0.69361826152E+01  0.90749488935E+01  0.51100000000E-03 0.  1.
         12    1    3    3    0    0 -0.62475727005E+01  0.67650322994E+01 -0.10466450299E+02  0.13940746340E+02  0.00000000000E+00 0. -1.
</event>
<event>
 7    1  0.2900470E-011  0.5052886E+02  0.7816164E-02  0.1300439E+00
        -11   -1    0    0    0    0  0.00000000000E+00  0.00000000000E+00  0.45593999997E+02  0.45594000000E+02  0.51100000000E-03 0.  1.
         11   -1    0    0    0    0 -0.00000000000E+00 -0.00000000000E+00 -0.45593999997E+02  0.45594000000E+02  0.51100000000E-03 0. -1.
    9900012    2    1    2    0    0 -0.22860735650E+02 -0.22648659050E+02  0.24851369346E+02  0.50528861426E+02  0.30000004790E+02 0.  0.
         12    1    1    2    0    0  0.22860735650E+02  0.22648659050E+02 -0.24851369346E+02  0.40659138574E+02  0.00000000000E+00 0. -1.
         11    1    3    3    0    0 -0.84207840724E+01  0.33199658742E+01  0.43672126533E+01  0.10050090767E+02  0.51100000000E-03 0. -1.
        -11    1    3    3    0    0 -0.39610915368E+01 -0.23900204211E+02  0.13871976582E+02  0.27916692893E+02  0.51100000000E-03 0.  1.
        -12    1    3    3    0    0 -0.10478860041E+02 -0.20684207126E+01  0.66121801109E+01  0.12562077767E+02  0.00000000000E+00 0.  1.
</event>
<event>
 7    1  0.2900470E-011  0.5052886E+02  0.7816164E-02  0.1300439E+00
        -11   -1    0    0    0    0  0.00000000000E+00  0.00000000000E+00  0.45593999997E+02  0.45594000000E+02  0.51100000000E-03 0.  1.
         11   -1    0    0    0    0 -0.00000000000E+00 -0.00000000000E+00 -0.45593999997E+02  0.45594000000E+02  0.51100000000E-03 0. -1.
    9900012    2    1    2    0    0  0.31944338955E+02 -0.24783617109E+02  0.43008047673E+01  0.50528863390E+02  0.30000010759E+02 0.  0.
         12    1    1    2    0    0 -0.31944338955E+02  0.24783617109E+02 -0.43008047673E+01  0.40659136610E+02  0.00000000000E+00 0. -1.
         11    1    3    3    0    0  0.34620417894E+01 -0.64309813239E+01 -0.90790584434E+01  0.11652148155E+02  0.51100000000E-03 0. -1.
        -11    1    3    3    0    0  0.19414668710E+02 -0.18702179451E+02  0.12635878021E+02  0.29771904389E+02  0.51100000000E-03 0.  1.
        -12    1    3    3    0    0  0.90676284557E+01  0.34954366602E+00  0.74398519014E+00  0.91048108464E+01  0.00000000000E+00 0.  1.
</event>
<event>
 7    1  0.2900470E-011  0.5052886E+02  0.7816164E-02  0.1300439E+00
        -11   -1    0    0    0    0  0.00000000000E+00  0.00000000000E+00  0.45593999997E+02  0.45594000000E+02  0.51100000000E-03 0. -1.
         11   -1    0    0    0    0 -0.00000000000E+00 -0.00000000000E+00 -0.45593999997E+02  0.45594000000E+02  0.51100000000E-03 0.  1.
    9900012    2    1    2    0    0  0.21285595591E+02  0.34577677298E+02 -0.21150586837E+01  0.50528858098E+02  0.29999994675E+02 0.  0.
         12    1    1    2    0    0 -0.21285595591E+02 -0.34577677298E+02  0.21150586837E+01  0.40659141902E+02  0.00000000000E+00 0. -1.
         11    1    3    3    0    0  0.78586858893E+01  0.16191383954E+01  0.73997797239E+01  0.10915003128E+02  0.51100000000E-03 0. -1.
        -11    1    3    3    0    0  0.14995556085E+02  0.18811820619E+02 -0.77317731943E+01  0.25269183095E+02  0.51100000000E-03 0.  1.
         12    1    3    3    0    0 -0.15686463830E+01  0.14146718283E+02 -0.17830652134E+01  0.14344671876E+02  0.00000000000E+00 0. -1.
</event>
<event>
 7    1  0.2900470E-011  0.5052887E+02  0.7816164E-02  0.1300439E+00
        -11   -1    0    0    0    0  0.00000000000E+00  0.00000000000E+00  0.45593999997E+02  0.45594000000E+02  0.51100000000E-03 0.  1.
         11   -1    0    0    0    0 -0.00000000000E+00 -0.00000000000E+00 -0.45593999997E+02  0.45594000000E+02  0.51100000000E-03 0. -1.
    9900012    2    1    2    0    0  0.22114163390E+02 -0.33718135224E+02 -0.52169016032E+01  0.50528869073E+02  0.30000028034E+02 0.  0.
         12    1    1    2    0    0 -0.22114163390E+02  0.33718135224E+02  0.52169016032E+01  0.40659130927E+02  0.00000000000E+00 0. -1.
         11    1    3    3    0    0 -0.38501728560E+01  0.73371839798E+00  0.46635180993E+01  0.60918449613E+01  0.51100000000E-03 0. -1.
        -11    1    3    3    0    0  0.19849332061E+02 -0.26866606954E+02 -0.59428367622E+01  0.33928275251E+02  0.51100000000E-03 0.  1.
        -12    1    3    3    0    0  0.61150041855E+01 -0.75852466673E+01 -0.39375829402E+01  0.10508748860E+02  0.00000000000E+00 0.  1.
</event>
<event>
 7    1  0.2900470E-011  0.5052885E+02  0.7816164E-02  0.1300439E+00
        -11   -1    0    0    0    0  0.00000000000E+00  0.00000000000E+00  0.45593999997E+02  0.45594000000E+02  0.51100000000E-03 0.  1.
         11   -1    0    0    0    0 -0.00000000000E+00 -0.00000000000E+00 -0.45593999997E+02  0.45594000000E+02  0.51100000000E-03 0. -1.
    9900012    2    1    2    0    0  0.17509305347E+02  0.34055540933E+02  0.13667865036E+02  0.50528853715E+02  0.29999981353E+02 0.  0.
         12    1    1    2    0    0 -0.17509305347E+02 -0.34055540933E+02 -0.13667865036E+02  0.40659146285E+02  0.00000000000E+00 0. -1.
         11    1    3    3    0    0  0.22478928046E+01 -0.30990108006E+01 -0.29723152112E+01  0.48468080196E+01  0.51100000000E-03 0. -1.
        -11    1    3    3    0    0  0.11523161084E+02  0.28367537453E+02  0.56721888908E+01  0.31139591352E+02  0.51100000000E-03 0.  1.
        -12    1    3    3    0    0  0.37382514588E+01  0.87870142801E+01  0.10967991356E+02  0.14542454343E+02  0.00000000000E+00 0.  1.
</event>
<event>
 7    1  0.2900470E-011  0.5052887E+02  0.7816164E-02  0.1300439E+00
        -11   -1    0    0    0    0  0.00000000000E+00  0.00000000000E+00  0.45593999997E+02  0.45594000000E+02  0.51100000000E-03 0.  1.
         11   -1    0    0    0    0 -0.00000000000E+00 -0.00000000000E+00 -0.45593999997E+02  0.45594000000E+02  0.51100000000E-03 0. -1.
    9900012    2    1    2    0    0  0.35804871458E+01  0.83166193688E+01  0.39638101952E+02  0.50528866065E+02  0.30000018893E+02 0.  0.
         12    1    1    2    0    0 -0.35804871458E+01 -0.83166193688E+01 -0.39638101952E+02  0.40659133935E+02  0.00000000000E+00 0. -1.
         11    1    3    3    0    0  0.42115968360E+01  0.18058598257E+02  0.25751140539E+02  0.31732818315E+02  0.51100000000E-03 0. -1.
        -11    1    3    3    0    0 -0.22738240433E+01 -0.60114704459E+01  0.13173735022E+02  0.14657944856E+02  0.51100000000E-03 0.  1.
         12    1    3    3    0    0  0.16427143531E+01 -0.37305084421E+01  0.71322639158E+00  0.41381028948E+01  0.00000000000E+00 0. -1.
</event>
<event>
 7    1  0.2900470E-011  0.5052886E+02  0.7816164E-02  0.1300439E+00
        -11   -1    0    0    0    0  0.00000000000E+00  0.00000000000E+00  0.45593999997E+02  0.45594000000E+02  0.51100000000E-03 0. -1.
         11   -1    0    0    0    0 -0.00000000000E+00 -0.00000000000E+00 -0.45593999997E+02  0.45594000000E+02  0.51100000000E-03 0.  1.
    9900012    2    1    2    0    0 -0.10403607055E+02 -0.14894427633E+02 -0.36374262142E+02  0.50528856371E+02  0.29999989424E+02 0.  0.
         12    1    1    2    0    0  0.10403607055E+02  0.14894427633E+02  0.36374262142E+02  0.40659143629E+02  0.00000000000E+00 0. -1.
         11    1    3    3    0    0  0.14543387609E+01 -0.17941759961E+02 -0.15070148767E+02  0.23476184440E+02  0.51100000000E-03 0. -1.
        -11    1    3    3    0    0 -0.41684160881E+01  0.57242863117E+01 -0.45281106723E+01  0.84051729896E+01  0.51100000000E-03 0.  1.
         12    1    3    3    0    0 -0.76895297280E+01 -0.26769539839E+01 -0.16776002702E+02  0.18647498941E+02  0.00000000000E+00 0. -1.
</event>
<event>
 7    1  0.2900470E-011  0.5052887E+02  0.7816164E-02  0.1300439E+00
        -11   -1    0    0    0    0  0.00000000000E+00  0.00000000000E+00  0.45593999997E+02  0.45594000000E+02  0.51100000000E-03 0.  1.
         11   -1    0    0    0    0 -0.00000000000E+00 -0.00000000000E+00 -0.45593999997E+02  0.45594000000E+02  0.51100000000E-03 0. -1.
    9900012    2    1    2    0    0 -0.17553701946E+02  0.29860517794E+02  0.21292761245E+02  0.50528872410E+02  0.30000038178E+02 0.  0.
         12    1    1    2    0    0  0.17553701946E+02 -0.29860517794E+02 -0.21292761245E+02  0.40659127590E+02  0.00000000000E+00 0. -1.
         11    1    3    3    0    0 -0.93953359301E+01  0.36142562303E+01  0.20461599746E+01  0.10272388050E+02  0.51100000000E-03 0. -1.
        -11    1    3    3    0    0  0.47110219875E+01  0.65599350261E+01 -0.22597801681E+01  0.83864821220E+01  0.51100000000E-03 0.  1.
        -12    1    3    3    0    0 -0.12869388003E+02  0.19686326538E+02  0.21506381438E+02  0.31870002239E+02  0.00000000000E+00 0.  1.
</event>
<event>
 7    1  0.2900470E-011  0.5052886E+02  0.7816164E-02  0.1300439E+00
        -11   -1    0    0    0    0  0.00000000000E+00  0.00000000000E+00  0.45593999997E+02  0.45594000000E+02  0.51100000000E-03 0. -1.
         11   -1    0    0    0    0 -0.00000000000E+00 -0.00000000000E+00 -0.45593999997E+02  0.45594000000E+02  0.51100000000E-03 0.  1.
    9900012    2    1    2    0    0 -0.99189902045E+01  0.15758683029E+02 -0.36144752926E+02  0.50528860541E+02  0.30000002099E+02 0.  0.
         12    1    1    2    0    0  0.99189902045E+01 -0.15758683029E+02  0.36144752926E+02  0.40659139459E+02  0.00000000000E+00 0. -1.
         11    1    3    3    0    0  0.56715214218E+01  0.62814855318E+01 -0.10207728965E+02  0.13259749115E+02  0.51100000000E-03 0. -1.
        -11    1    3    3    0    0 -0.16109778927E+02 -0.22341985655E+00 -0.20706052066E+02  0.26235767302E+02  0.51100000000E-03 0.  1.
        -12    1    3    3    0    0  0.51926730042E+00  0.97006173534E+01 -0.52309718952E+01  0.11033344123E+02  0.00000000000E+00 0.  1.
</event>
<event>
 7    1  0.2900470E-011  0.5052887E+02  0.7816164E-02  0.1300439E+00
        -11   -1    0    0    0    0  0.00000000000E+00  0.00000000000E+00  0.45593999997E+02  0.45594000000E+02  0.51100000000E-03 0.  1.
         11   -1    0    0    0    0 -0.00000000000E+00 -0.00000000000E+00 -0.45593999997E+02  0.45594000000E+02  0.51100000000E-03 0. -1.
    9900012    2    1    2    0    0 -0.35191049374E+02 -0.10514891823E+02 -0.17441098975E+02  0.50528870158E+02  0.30000031331E+02 0.  0.
         12    1    1    2    0    0  0.35191049374E+02  0.10514891823E+02  0.17441098975E+02  0.40659129842E+02  0.00000000000E+00 0. -1.
         11    1    3    3    0    0 -0.20987597735E+01  0.84699722649E+01 -0.38089619238E+01  0.95212086393E+01  0.51100000000E-03 0. -1.
        -11    1    3    3    0    0 -0.21656442944E+02 -0.11705293191E+02 -0.55851886376E+01  0.25243013727E+02  0.51100000000E-03 0.  1.
         12    1    3    3    0    0 -0.11435846657E+02 -0.72795708971E+01 -0.80469484135E+01  0.15764647791E+02  0.00000000000E+00 0. -1.
</event>
<event>
 7    1  0.2900470E-011  0.5052885E+02  0.7816164E-02  0.1300439E+00
        -11   -1    0    0    0    0  0.00000000000E+00  0.00000000000E+00  0.45593999997E+02  0.45594000000E+02  0.51100000000E-03 0. -1.
         11   -1    0    0    0    0 -0.00000000000E+00 -0.00000000000E+00 -0.45593999997E+02  0.45594000000E+02  0.51100000000E-03 0.  1.
    9900012    2    1    2    0    0  0.11846721770E+02  0.37269106480E+02 -0.11128128870E+02  0.50528851377E+02  0.29999974247E+02 0.  0.
         12    1    1    2    0    0 -0.11846721770E+02 -0.37269106480E+02  0.11128128870E+02  0.40659148623E+02  0.00000000000E+00 0. -1.
         11    1    3    3    0    0  0.40472001740E+01  0.37250812310E+02 -0.14838250103E+02  0.40301073353E+02  0.51100000000E-03 0.  1.
        -11    1    3    3    0    0  0.63689326882E+01  0.15968980747E+01  0.44951260131E+01  0.79573579272E+01  0.51100000000E-03 0. -1.
        -12    1    3    3    0    0  0.14305889082E+01 -0.15786039047E+01 -0.78500478093E+00  0.22704200973E+01  0.00000000000E+00 0.  1.
</event>
<event>
 7    1  0.2900470E-011  0.5052886E+02  0.7816164E-02  0.1300439E+00
        -11   -1    0    0    0    0  0.00000000000E+00  0.00000000000E+00  0.45593999997E+02  0.45594000000E+02  0.51100000000E-03 0. -1.
         11   -1    0    0    0    0 -0.00000000000E+00 -0.00000000000E+00 -0.45593999997E+02  0.45594000000E+02  0.51100000000E-03 0.  1.
    9900012    2    1    2    0    0 -0.12452903648E+02 -0.24114356498E+02 -0.30275211728E+02  0.50528862727E+02  0.30000008746E+02 0.  0.
         12    1    1    2    0    0  0.12452903648E+02  0.24114356498E+02  0.30275211728E+02  0.40659137273E+02  0.00000000000E+00 0. -1.
         11    1    3    3    0    0  0.30539712959E+01 -0.14717310658E+02 -0.53670918796E+01  0.15960314821E+02  0.51100000000E-03 0. -1.
        -11    1    3    3    0    0 -0.79754800228E+01 -0.79576377822E+01 -0.24410116456E+02  0.26884680886E+02  0.51100000000E-03 0.  1.
         12    1    3    3    0    0 -0.75313949208E+01 -0.14394080572E+01 -0.49800339283E+00  0.76838670204E+01  0.00000000000E+00 0. -1.
</event>
<event>
 7    1  0.2900470E-011  0.5052887E+02  0.7816164E-02  0.1300439E+00
        -11   -1    0    0    0    0  0.00000000000E+00  0.00000000000E+00  0.45593999997E+02  0.45594000000E+02  0.51100000000E-03 0. -1.
         11   -1    0    0    0    0 -0.00000000000E+00 -0.00000000000E+00 -0.45593999997E+02  0.45594000000E+02  0.51100000000E-03 0.  1.
    9900012    2    1    2    0    0  0.14790403687E+02 -0.17845078619E+02 -0.33406021777E+02  0.50528866178E+02  0.30000019236E+02 0.  0.
         12    1    1    2    0    0 -0.14790403687E+02  0.17845078619E+02  0.33406021777E+02  0.40659133822E+02  0.00000000000E+00 0. -1.
         11    1    3    3    0    0  0.79075755826E+01 -0.46707826055E+01  0.14691364320E+01  0.93007700681E+01  0.51100000000E-03 0. -1.
        -11    1    3    3    0    0  0.49426410890E+01 -0.16625898748E+02 -0.23676633340E+02  0.29350181885E+02  0.51100000000E-03 0.  1.
         12    1    3    3    0    0  0.19401870157E+01  0.34516027344E+01 -0.11198524869E+02  0.11877914225E+02  0.00000000000E+00 0. -1.
</event>
<event>
 7    1  0.2900470E-011  0.5052886E+02  0.7816164E-02  0.1300439E+00
        -11   -1    0    0    0    0  0.00000000000E+00  0.00000000000E+00  0.45593999997E+02  0.45594000000E+02  0.51100000000E-03 0.  1.
         11   -1    0    0    0    0 -0.00000000000E+00 -0.00000000000E+00 -0.45593999997E+02  0.45594000000E+02  0.51100000000E-03 0. -1.
    9900012    2    1    2    0    0 -0.27397464616E+01  0.12832822030E+02  0.38483481021E+02  0.50528857813E+02  0.29999993807E+02 0.  0.
         12    1    1    2    0    0  0.27397464616E+01 -0.12832822030E+02 -0.38483481021E+02  0.40659142187E+02  0.00000000000E+00 0. -1.
         11    1    3    3    0    0  0.33458414220E+01 -0.39107187567E+01  0.26053414037E+02  0.26556896642E+02  0.51100000000E-03 0. -1.
        -11    1    3    3    0    0 -0.51036104063E+01  0.17931123331E+02  0.12472012751E+02  0.22430406269E+02  0.51100000000E-03 0.  1.
         12    1    3    3    0    0 -0.98197747721E+00 -0.11875825444E+01 -0.41945767302E-01  0.15415549010E+01  0.00000000000E+00 0. -1.
</event>
<event>
 7    1  0.2900470E-011  0.5052885E+02  0.7816164E-02  0.1300439E+00
        -11   -1    0    0    0    0  0.00000000000E+00  0.00000000000E+00  0.45593999997E+02  0.45594000000E+02  0.51100000000E-03 0.  1.
         11   -1    0    0    0    0 -0.00000000000E+00 -0.00000000000E+00 -0.45593999997E+02  0.45594000000E+02  0.51100000000E-03 0. -1.
    9900012    2    1    2    0    0 -0.28023778458E+02  0.50745051087E+01  0.29018684338E+02  0.50528846026E+02  0.29999957981E+02 0.  0.
         12    1    1    2    0    0  0.28023778458E+02 -0.50745051087E+01 -0.29018684338E+02  0.40659153974E+02  0.00000000000E+00 0. -1.
         11    1    3    3    0    0 -0.61812237041E+00  0.34732160259E+01  0.18415634736E+02  0.18750490869E+02  0.51100000000E-03 0. -1.
        -11    1    3    3    0    0 -0.17723994358E+02 -0.47683031068E+01  0.69718594685E+01  0.19633734114E+02  0.51100000000E-03 0.  1.
        -12    1    3    3    0    0 -0.96816617297E+01  0.63695921896E+01  0.36311901330E+01  0.12144621044E+02  0.00000000000E+00 0.  1.
</event>
<event>
 7    1  0.2900470E-011  0.5052888E+02  0.7816164E-02  0.1300439E+00
        -11   -1    0    0    0    0  0.00000000000E+00  0.00000000000E+00  0.45593999997E+02  0.45594000000E+02  0.51100000000E-03 0.  1.
         11   -1    0    0    0    0 -0.00000000000E+00 -0.00000000000E+00 -0.45593999997E+02  0.45594000000E+02  0.51100000000E-03 0. -1.
    9900012    2    1    2    0    0 -0.29014134778E+02  0.16760620884E+02  0.23030978637E+02  0.50528875486E+02  0.30000047526E+02 0.  0.
         12    1    1    2    0    0  0.29014134778E+02 -0.16760620884E+02 -0.23030978637E+02  0.40659124514E+02  0.00000000000E+00 0. -1.
         11    1    3    3    0    0 -0.19382465474E+01  0.33606377819E+01  0.19137469516E+02  0.19526736177E+02  0.51100000000E-03 0. -1.
        -11    1    3    3    0    0 -0.89762413327E+01  0.62747268379E+01  0.36657909122E+01  0.11549161382E+02  0.51100000000E-03 0.  1.
         12    1    3    3    0    0 -0.18099646897E+02  0.71252562643E+01  0.22771820870E+00  0.19452977927E+02  0.00000000000E+00 0. -1.
</event>
<event>
 7    1  0.2900470E-011  0.5052886E+02  0.7816164E-02  0.1300439E+00
        -11   -1    0    0    0    0  0.00000000000E+00  0.00000000000E+00  0.45593999997E+02  0.45594000000E+02  0.51100000000E-03 0. -1.
         11   -1    0    0    0    0 -0.00000000000E+00 -0.00000000000E+00 -0.45593999997E+02  0.45594000000E+02  0.51100000000E-03 0.  1.
    9900012    2    1    2    0    0  0.21801479119E+02 -0.29352895950E+02 -0.17783941527E+02  0.50528861191E+02  0.30000004078E+02 0.  0.
         12    1    1    2    0    0 -0.21801479119E+02  0.29352895950E+02  0.17783941527E+02  0.40659138809E+02  0.00000000000E+00 0. -1.
         11    1    3    3    0    0  0.73142468435E+01 -0.11586734992E+01 -0.32610484811E+01  0.80916727951E+01  0.51100000000E-03 0. -1.
        -11    1    3    3    0    0 -0.45182033760E+01 -0.16231468035E+02 -0.27175503995E+01  0.17066335188E+02  0.51100000000E-03 0.  1.
        -12    1    3    3    0    0  0.19005435652E+02 -0.11962754415E+02 -0.11805342647E+02  0.25370853208E+02  0.00000000000E+00 0.  1.
</event>
<event>
 7    1  0.2900470E-011  0.5052886E+02  0.7816164E-02  0.1300439E+00
        -11   -1    0    0    0    0  0.00000000000E+00  0.00000000000E+00  0.45593999997E+02  0.45594000000E+02  0.51100000000E-03 0.  1.
         11   -1    0    0    0    0 -0.00000000000E+00 -0.00000000000E+00 -0.45593999997E+02  0.45594000000E+02  0.51100000000E-03 0. -1.
    9900012    2    1    2    0    0  0.28999997722E+02  0.24024059737E+01  0.28397079478E+02  0.50528861479E+02  0.30000004953E+02 0.  0.
         12    1    1    2    0    0 -0.28999997722E+02 -0.24024059737E+01 -0.28397079478E+02  0.40659138521E+02  0.00000000000E+00 0. -1.
         11    1    3    3    0    0  0.84634040698E+01 -0.37756131577E+01  0.80047944826E+01  0.12245864532E+02  0.51100000000E-03 0. -1.
        -11    1    3    3    0    0  0.13402415047E+02  0.31168762518E+01 -0.26105195021E+01  0.14005515306E+02  0.51100000000E-03 0.  1.
        -12    1    3    3    0    0  0.71341786056E+01  0.30611428796E+01  0.23002804497E+02  0.24277481641E+02  0.00000000000E+00 0.  1.
</event>
<event>
 7    1  0.2900470E-011  0.5052887E+02  0.7816164E-02  0.1300439E+00
        -11   -1    0    0    0    0  0.00000000000E+00  0.00000000000E+00  0.45593999997E+02  0.45594000000E+02  0.51100000000E-03 0.  1.
         11   -1    0    0    0    0 -0.00000000000E+00 -0.00000000000E+00 -0.45593999997E+02  0.45594000000E+02  0.51100000000E-03 0. -1.
    9900012    2    1    2    0    0 -0.49353173121E+00  0.36445320973E+02  0.18018313737E+02  0.50528872804E+02  0.30000039375E+02 0.  0.
         12    1    1    2    0    0  0.49353173121E+00 -0.36445320973E+02 -0.18018313737E+02  0.40659127196E+02  0.00000000000E+00 0. -1.
         11    1    3    3    0    0 -0.89036669145E-01 -0.22772471084E+01 -0.45235458310E+01  0.50651998052E+01  0.51100000000E-03 0. -1.
        -11    1    3    3    0    0 -0.29474916011E+01  0.15822167018E+02  0.63481754979E+01  0.17301098471E+02  0.51100000000E-03 0.  1.
         12    1    3    3    0    0  0.25429965391E+01  0.22900401064E+02  0.16193684070E+02  0.28162574528E+02  0.00000000000E+00 0. -1.
</event>
<event>
 7    1  0.2900470E-011  0.5052880E+02  0.7816164E-02  0.1300439E+00
        -11   -1    0    0    0    0  0.00000000000E+00  0.00000000000E+00  0.45593999997E+02  0.45594000000E+02  0.51100000000E-03 0.  1.
         11   -1    0    0    0    0 -0.00000000000E+00 -0.00000000000E+00 -0.45593999997E+02  0.45594000000E+02  0.51100000000E-03 0. -1.
    9900012    2    1    2    0    0  0.52438831535E+01  0.39973967662E+02  0.52682199300E+01  0.50528800027E+02  0.29999818162E+02 0.  0.
         12    1    1    2    0    0 -0.52438831535E+01 -0.39973967662E+02 -0.52682199300E+01  0.40659199973E+02  0.00000000000E+00 0. -1.
         11    1    3    3    0    0 -0.71286465792E+00 -0.29989763039E+01  0.39402120312E+01  0.50027298552E+01  0.51100000000E-03 0. -1.
        -11    1    3    3    0    0  0.99179440684E+01  0.37046979269E+02  0.54763752856E+00  0.38355497581E+02  0.51100000000E-03 0.  1.
         12    1    3    3    0    0 -0.39611962571E+01  0.59259646969E+01  0.78037037033E+00  0.71705725915E+01  0.00000000000E+00 0. -1.
</event>
<event>
 7    1  0.2900470E-011  0.5052889E+02  0.7816164E-02  0.1300439E+00
        -11   -1    0    0    0    0  0.00000000000E+00  0.00000000000E+00  0.45593999997E+02  0.45594000000E+02  0.51100000000E-03 0.  1.
         11   -1    0    0    0    0 -0.00000000000E+00 -0.00000000000E+00 -0.45593999997E+02  0.45594000000E+02  0.51100000000E-03 0. -1.
    9900012    2    1    2    0    0 -0.36183255839E+01  0.10108470759E+02  0.39215941589E+02  0.50528886190E+02  0.30000080064E+02 0.  0.
         12    1    1    2    0    0  0.36183255839E+01 -0.10108470759E+02 -0.39215941589E+02  0.40659113810E+02  0.00000000000E+00 0. -1.
         11    1    3    3    0    0 -0.14372781896E+02  0.69688707211E+01  0.17536469755E+02  0.23720661674E+02  0.51100000000E-03 0. -1.
        -11    1    3    3    0    0  0.29587556140E+01  0.88335082159E+00  0.17325308223E+02  0.17598319487E+02  0.51100000000E-03 0.  1.
         12    1    3    3    0    0  0.77957006979E+01  0.22562492168E+01  0.43541636104E+01  0.92099050292E+01  0.00000000000E+00 0. -1.
</event>
<event>
 7    1  0.3010311E-011  0.5052886E+02  0.7816164E-02  0.1300439E+00
        -11   -1    0    0    0    0  0.00000000000E+00  0.00000000000E+00  0.45593999997E+02  0.45594000000E+02  0.51100000000E-03 0. -1.
         11   -1    0    0    0    0 -0.00000000000E+00 -0.00000000000E+00 -0.45593999997E+02  0.45594000000E+02  0.51100000000E-03 0.  1.
    9900012    2    1    2    0    0 -0.31946488943E+01  0.29803603707E+02 -0.27471895910E+02  0.50528860310E+02  0.30000001398E+02 0.  0.
         12    1    1    2    0    0  0.31946488943E+01 -0.29803603707E+02  0.27471895910E+02  0.40659139690E+02  0.00000000000E+00 0. -1.
         11    1    3    3    0    0  0.85437023416E+01  0.62819132776E+01 -0.33007901500E+01  0.11106417064E+02  0.51100000000E-03 0. -1.
        -11    1    3    3    0    0 -0.63524145419E+01  0.19609063438E+02 -0.25338713363E+02  0.32663725057E+02  0.51100000000E-03 0.  1.
         12    1    3    3    0    0 -0.53859366941E+01  0.39126269906E+01  0.11676076034E+01  0.67587181888E+01  0.00000000000E+00 0. -1.
</event>
<event>
 7    1  0.2900470E-011  0.5052886E+02  0.7816164E-02  0.1300439E+00
        -11   -1    0    0    0    0  0.00000000000E+00  0.00000000000E+00  0.45593999997E+02  0.45594000000E+02  0.51100000000E-03 0.  1.
         11   -1    0    0    0    0 -0.00000000000E+00 -0.00000000000E+00 -0.45593999997E+02  0.45594000000E+02  0.51100000000E-03 0. -1.
    9900012    2    1    2    0    0  0.79722549748E+01  0.21287213321E+02  0.33711473436E+02  0.50528859065E+02  0.29999997613E+02 0.  0.
         12    1    1    2    0    0 -0.79722549748E+01 -0.21287213321E+02 -0.33711473436E+02  0.40659140935E+02  0.00000000000E+00 0. -1.
         11    1    3    3    0    0 -0.91309852448E+01  0.34098027553E+01  0.11234230889E+02  0.14873116362E+02  0.51100000000E-03 0. -1.
        -11    1    3    3    0    0 -0.23486788208E+00 -0.13899286482E+01  0.27233045031E+01  0.30665048910E+01  0.51100000000E-03 0.  1.
         12    1    3    3    0    0  0.17338108102E+02  0.19267339214E+02  0.19753938044E+02  0.32589237812E+02  0.00000000000E+00 0. -1.
</event>
<event>
 7    1  0.2900470E-011  0.5052885E+02  0.7816164E-02  0.1300439E+00
        -11   -1    0    0    0    0  0.00000000000E+00  0.00000000000E+00  0.45593999997E+02  0.45594000000E+02  0.51100000000E-03 0.  1.
         11   -1    0    0    0    0 -0.00000000000E+00 -0.00000000000E+00 -0.45593999997E+02  0.45594000000E+02  0.51100000000E-03 0. -1.
    9900012    2    1    2    0    0  0.14271125709E+01 -0.32382818276E+02  0.24545528898E+02  0.50528849017E+02  0.29999967071E+02 0.  0.
         12    1    1    2    0    0 -0.14271125709E+01  0.32382818276E+02 -0.24545528898E+02  0.40659150983E+02  0.00000000000E+00 0. -1.
         11    1    3    3    0    0 -0.63201997196E+01 -0.17633086843E+01 -0.30171297461E+01  0.72219979353E+01  0.51100000000E-03 0. -1.
        -11    1    3    3    0    0  0.47972850010E+01 -0.22798147507E+02  0.25803056281E+02  0.34764452920E+02  0.51100000000E-03 0.  1.
        -12    1    3    3    0    0  0.29500272895E+01 -0.78213620845E+01  0.17596023628E+01  0.85423981610E+01  0.00000000000E+00 0.  1.
</event>
<event>
 7    1  0.2900470E-011  0.5052887E+02  0.7816164E-02  0.1300439E+00
        -11   -1    0    0    0    0  0.00000000000E+00  0.00000000000E+00  0.45593999997E+02  0.45594000000E+02  0.51100000000E-03 0.  1.
         11   -1    0    0    0    0 -0.00000000000E+00 -0.00000000000E+00 -0.45593999997E+02  0.45594000000E+02  0.51100000000E-03 0. -1.
    9900012    2    1    2    0    0  0.29752404321E+02  0.22139998014E+02  0.16666737854E+02  0.50528865410E+02  0.30000016899E+02 0.  0.
         12    1    1    2    0    0 -0.29752404321E+02 -0.22139998014E+02 -0.16666737854E+02  0.40659134590E+02  0.00000000000E+00 0. -1.
         11    1    3    3    0    0  0.54823429054E+01  0.17508570370E+02  0.14670447409E+02  0.23491022702E+02  0.51100000000E-03 0. -1.
        -11    1    3    3    0    0  0.16655058660E+02 -0.15518657902E+01 -0.10675776187E+01  0.16761234699E+02  0.51100000000E-03 0.  1.
        -12    1    3    3    0    0  0.76150027559E+01  0.61832934338E+01  0.30638680637E+01  0.10276608009E+02  0.00000000000E+00 0.  1.
</event>
<event>
 7    1  0.2900470E-011  0.5052884E+02  0.7816164E-02  0.1300439E+00
        -11   -1    0    0    0    0  0.00000000000E+00  0.00000000000E+00  0.45593999997E+02  0.45594000000E+02  0.51100000000E-03 0.  1.
         11   -1    0    0    0    0 -0.00000000000E+00 -0.00000000000E+00 -0.45593999997E+02  0.45594000000E+02  0.51100000000E-03 0. -1.
    9900012    2    1    2    0    0 -0.11736250405E+02  0.97648460017E+01  0.37683885430E+02  0.50528843440E+02  0.29999950121E+02 0.  0.
         12    1    1    2    0    0  0.11736250405E+02 -0.97648460017E+01 -0.37683885430E+02  0.40659156560E+02  0.00000000000E+00 0. -1.
         11    1    3    3    0    0 -0.92140358689E+01  0.10614337574E+02  0.16934776362E+02  0.22007936519E+02  0.51100000000E-03 0. -1.
        -11    1    3    3    0    0 -0.13617601654E+01 -0.37890214617E+01  0.23794098666E+02  0.24132347709E+02  0.51100000000E-03 0.  1.
         12    1    3    3    0    0 -0.11604543709E+01  0.29395298892E+01 -0.30449895968E+01  0.43885592124E+01  0.00000000000E+00 0. -1.
</event>
<event>
 7    1  0.2900470E-011  0.5052886E+02  0.7816164E-02  0.1300439E+00
        -11   -1    0    0    0    0  0.00000000000E+00  0.00000000000E+00  0.45593999997E+02  0.45594000000E+02  0.51100000000E-03 0. -1.
         11   -1    0    0    0    0 -0.00000000000E+00 -0.00000000000E+00 -0.45593999997E+02  0.45594000000E+02  0.51100000000E-03 0.  1.
    9900012    2    1    2    0    0 -0.35650156523E+02  0.11544891191E+02 -0.15778059331E+02  0.50528864139E+02  0.30000013036E+02 0.  0.
         12    1    1    2    0    0  0.35650156523E+02 -0.11544891191E+02  0.15778059331E+02  0.40659135861E+02  0.00000000000E+00 0. -1.
         11    1    3    3    0    0 -0.11130559548E+02 -0.66594333452E+01  0.17705717415E+01  0.13090925593E+02  0.51100000000E-03 0. -1.
        -11    1    3    3    0    0 -0.24371175730E+01  0.71338271251E+01 -0.78961297746E+01  0.10916954575E+02  0.51100000000E-03 0.  1.
         12    1    3    3    0    0 -0.22082479402E+02  0.11070497411E+02 -0.96525012982E+01  0.26520983971E+02  0.00000000000E+00 0. -1.
</event>
<event>
 7    1  0.2900470E-011  0.5052886E+02  0.7816164E-02  0.1300439E+00
        -11   -1    0    0    0    0  0.00000000000E+00  0.00000000000E+00  0.45593999997E+02  0.45594000000E+02  0.51100000000E-03 0.  1.
         11   -1    0    0    0    0 -0.00000000000E+00 -0.00000000000E+00 -0.45593999997E+02  0.45594000000E+02  0.51100000000E-03 0. -1.
    9900012    2    1    2    0    0 -0.17128520345E+02 -0.32741533007E+02  0.16963816430E+02  0.50528864978E+02  0.30000015588E+02 0.  0.
         12    1    1    2    0    0  0.17128520345E+02  0.32741533007E+02 -0.16963816430E+02  0.40659135022E+02  0.00000000000E+00 0. -1.
         11    1    3    3    0    0 -0.18916499878E+01 -0.23998977644E+02  0.31901425123E+01  0.24283868661E+02  0.51100000000E-03 0. -1.
        -11    1    3    3    0    0 -0.43745440137E+01  0.30085488025E+01  0.71979000777E+01  0.89441470815E+01  0.51100000000E-03 0.  1.
        -12    1    3    3    0    0 -0.10862326343E+02 -0.11751104165E+02  0.65757738401E+01  0.17300849236E+02  0.00000000000E+00 0.  1.
</event>
<event>
 7    1  0.2900470E-011  0.5052886E+02  0.7816164E-02  0.1300439E+00
        -11   -1    0    0    0    0  0.00000000000E+00  0.00000000000E+00  0.45593999997E+02  0.45594000000E+02  0.51100000000E-03 0. -1.
         11   -1    0    0    0    0 -0.00000000000E+00 -0.00000000000E+00 -0.45593999997E+02  0.45594000000E+02  0.51100000000E-03 0.  1.
    9900012    2    1    2    0    0  0.17567154010E+02 -0.34904260084E+02 -0.11236239381E+02  0.50528863911E+02  0.30000012345E+02 0.  0.
         12    1    1    2    0    0 -0.17567154010E+02  0.34904260084E+02  0.11236239381E+02  0.40659136089E+02  0.00000000000E+00 0. -1.
         11    1    3    3    0    0  0.18596194939E+02 -0.13389002424E+02 -0.12530179261E+02  0.26116838336E+02  0.51100000000E-03 0. -1.
        -11    1    3    3    0    0 -0.10656269390E+01 -0.20109098098E+02 -0.25694041329E+01  0.20300572035E+02  0.51100000000E-03 0.  1.
         12    1    3    3    0    0  0.36586009652E-01 -0.14061595629E+01  0.38633440128E+01  0.41114535402E+01  0.00000000000E+00 0. -1.
</event>
<event>
 7    1  0.2900470E-011  0.5052891E+02  0.7816164E-02  0.1300439E+00
        -11   -1    0    0    0    0  0.00000000000E+00  0.00000000000E+00  0.45593999997E+02  0.45594000000E+02  0.51100000000E-03 0.  1.
         11   -1    0    0    0    0 -0.00000000000E+00 -0.00000000000E+00 -0.45593999997E+02  0.45594000000E+02  0.51100000000E-03 0. -1.
    9900012    2    1    2    0    0  0.39791726535E+01 -0.20043034039E+02  0.35151162352E+02  0.50528914383E+02  0.30000165760E+02 0.  0.
         12    1    1    2    0    0 -0.39791726535E+01  0.20043034039E+02 -0.35151162352E+02  0.40659085617E+02  0.00000000000E+00 0. -1.
         11    1    3    3    0    0 -0.10965526022E+01  0.88805741514E+00  0.56763965937E+01  0.58491496931E+01  0.51100000000E-03 0. -1.
        -11    1    3    3    0    0  0.32869867379E+01 -0.19144926278E+02  0.49777791394E+01  0.20052699804E+02  0.51100000000E-03 0.  1.
        -12    1    3    3    0    0  0.17887385178E+01 -0.17861651761E+01  0.24496986619E+02  0.24627064886E+02  0.00000000000E+00 0.  1.
</event>
<event>
 7    1  0.2900470E-011  0.5052885E+02  0.7816164E-02  0.1300439E+00
        -11   -1    0    0    0    0  0.00000000000E+00  0.00000000000E+00  0.45593999997E+02  0.45594000000E+02  0.51100000000E-03 0.  1.
         11   -1    0    0    0    0 -0.00000000000E+00 -0.00000000000E+00 -0.45593999997E+02  0.45594000000E+02  0.51100000000E-03 0. -1.
    9900012    2    1    2    0    0 -0.32382280385E+02 -0.24584991825E+02  0.36394541620E+00  0.50528851433E+02  0.29999974416E+02 0.  0.
         12    1    1    2    0    0  0.32382280385E+02  0.24584991825E+02 -0.36394541620E+00  0.40659148567E+02  0.00000000000E+00 0. -1.
         11    1    3    3    0    0 -0.21264332500E+01  0.31646340405E+01 -0.15816865931E+01  0.41277548034E+01  0.51100000000E-03 0. -1.
        -11    1    3    3    0    0 -0.32624291484E+02 -0.20137792330E+02  0.24195774486E+01  0.38415223936E+02  0.51100000000E-03 0.  1.
        -12    1    3    3    0    0  0.23684443492E+01 -0.76118335355E+01 -0.47394543931E+00  0.79858726941E+01  0.00000000000E+00 0.  1.
</event>
<event>
 7    1  0.2900470E-011  0.5052885E+02  0.7816164E-02  0.1300439E+00
        -11   -1    0    0    0    0  0.00000000000E+00  0.00000000000E+00  0.45593999997E+02  0.45594000000E+02  0.51100000000E-03 0.  1.
         11   -1    0    0    0    0 -0.00000000000E+00 -0.00000000000E+00 -0.45593999997E+02  0.45594000000E+02  0.51100000000E-03 0. -1.
    9900012    2    1    2    0    0 -0.70872789332E+01  0.30644043021E+02  0.25765853489E+02  0.50528854640E+02  0.29999984165E+02 0.  0.
         12    1    1    2    0    0  0.70872789332E+01 -0.30644043021E+02 -0.25765853489E+02  0.40659145360E+02  0.00000000000E+00 0. -1.
         11    1    3    3    0    0 -0.63949204401E+01  0.28907351365E+01 -0.47765692498E+01  0.84892267684E+01  0.51100000000E-03 0. -1.
        -11    1    3    3    0    0 -0.42869778198E+01  0.16257082770E+02  0.18727807226E+02  0.25167472713E+02  0.51100000000E-03 0.  1.
         12    1    3    3    0    0  0.35946193267E+01  0.11496225115E+02  0.11814615513E+02  0.16872155159E+02  0.00000000000E+00 0. -1.
</event>
<event>
 7    1  0.2900470E-011  0.5052886E+02  0.7816164E-02  0.1300439E+00
        -11   -1    0    0    0    0  0.00000000000E+00  0.00000000000E+00  0.45593999997E+02  0.45594000000E+02  0.51100000000E-03 0.  1.
         11   -1    0    0    0    0 -0.00000000000E+00 -0.00000000000E+00 -0.45593999997E+02  0.45594000000E+02  0.51100000000E-03 0. -1.
    9900012    2    1    2    0    0  0.26567880719E+02 -0.14374660070E+02  0.27215487152E+02  0.50528857376E+02  0.29999992480E+02 0.  0.
         12    1    1    2    0    0 -0.26567880719E+02  0.14374660070E+02 -0.27215487152E+02  0.40659142624E+02  0.00000000000E+00 0. -1.
         11    1    3    3    0    0  0.20951662388E+01  0.15543831264E+01  0.26920842872E+01  0.37487526649E+01  0.51100000000E-03 0. -1.
        -11    1    3    3    0    0 -0.12714911989E+01 -0.33246029102E+00 -0.46681572143E+01  0.48496300634E+01  0.51100000000E-03 0.  1.
        -12    1    3    3    0    0  0.25744205679E+02 -0.15596582905E+02  0.29191560079E+02  0.41930474648E+02  0.00000000000E+00 0.  1.
</event>
<event>
 7    1  0.2900470E-011  0.5052885E+02  0.7816164E-02  0.1300439E+00
        -11   -1    0    0    0    0  0.00000000000E+00  0.00000000000E+00  0.45593999997E+02  0.45594000000E+02  0.51100000000E-03 0. -1.
         11   -1    0    0    0    0 -0.00000000000E+00 -0.00000000000E+00 -0.45593999997E+02  0.45594000000E+02  0.51100000000E-03 0.  1.
    9900012    2    1    2    0    0  0.35272931906E+02  0.19095853746E+02 -0.66584427460E+01  0.50528853239E+02  0.29999979906E+02 0.  0.
         12    1    1    2    0    0 -0.35272931906E+02 -0.19095853746E+02  0.66584427460E+01  0.40659146761E+02  0.00000000000E+00 0. -1.
         11    1    3    3    0    0  0.29176715589E+01  0.28642730224E+00  0.25618058476E+01  0.38932887624E+01  0.51100000000E-03 0.  1.
        -11    1    3    3    0    0  0.13959905887E+02  0.11985505060E+02 -0.17451010847E+02  0.25358806829E+02  0.51100000000E-03 0. -1.
        -12    1    3    3    0    0  0.18395354460E+02  0.68239213832E+01  0.82307622535E+01  0.21276757648E+02  0.00000000000E+00 0.  1.
</event>
<event>
 7    1  0.2900470E-011  0.5052887E+02  0.7816164E-02  0.1300439E+00
        -11   -1    0    0    0    0  0.00000000000E+00  0.00000000000E+00  0.45593999997E+02  0.45594000000E+02  0.51100000000E-03 0. -1.
         11   -1    0    0    0    0 -0.00000000000E+00 -0.00000000000E+00 -0.45593999997E+02  0.45594000000E+02  0.51100000000E-03 0.  1.
    9900012    2    1    2    0    0  0.26622475499E+02  0.63037492411E+01 -0.30077750479E+02  0.50528873963E+02  0.30000042899E+02 0.  0.
         12    1    1    2    0    0 -0.26622475499E+02 -0.63037492411E+01  0.30077750479E+02  0.40659126037E+02  0.00000000000E+00 0. -1.
         11    1    3    3    0    0  0.73614979830E+01  0.56090216265E+01 -0.90091133652E+00  0.92986245035E+01  0.51100000000E-03 0. -1.
        -11    1    3    3    0    0  0.11472313872E+02  0.65916588749E+01 -0.28519176892E+02  0.31438947234E+02  0.51100000000E-03 0.  1.
        -12    1    3    3    0    0  0.77886636438E+01 -0.58969312603E+01 -0.65766225045E+00  0.97913022260E+01  0.00000000000E+00 0.  1.
</event>
<event>
 7    1  0.2900470E-011  0.5052884E+02  0.7816164E-02  0.1300439E+00
        -11   -1    0    0    0    0  0.00000000000E+00  0.00000000000E+00  0.45593999997E+02  0.45594000000E+02  0.51100000000E-03 0. -1.
         11   -1    0    0    0    0 -0.00000000000E+00 -0.00000000000E+00 -0.45593999997E+02  0.45594000000E+02  0.51100000000E-03 0.  1.
    9900012    2    1    2    0    0 -0.15053674479E+02  0.25148171620E+02 -0.28180202756E+02  0.50528837705E+02  0.29999932690E+02 0.  0.
         12    1    1    2    0    0  0.15053674479E+02 -0.25148171620E+02  0.28180202756E+02  0.40659162295E+02  0.00000000000E+00 0. -1.
         11    1    3    3    0    0 -0.75583594433E+01  0.21087346914E+02 -0.30252291415E+02  0.37643141918E+02  0.51100000000E-03 0. -1.
        -11    1    3    3    0    0 -0.23890424292E+00 -0.11287288041E+01 -0.25787067077E+01  0.28250367247E+01  0.51100000000E-03 0.  1.
         12    1    3    3    0    0 -0.72564107932E+01  0.51895535099E+01  0.46507953671E+01  0.10060659063E+02  0.00000000000E+00 0. -1.
</event>
<event>
 7    1  0.2900470E-011  0.5052886E+02  0.7816164E-02  0.1300439E+00
        -11   -1    0    0    0    0  0.00000000000E+00  0.00000000000E+00  0.45593999997E+02  0.45594000000E+02  0.51100000000E-03 0.  1.
         11   -1    0    0    0    0 -0.00000000000E+00 -0.00000000000E+00 -0.45593999997E+02  0.45594000000E+02  0.51100000000E-03 0. -1.
    9900012    2    1    2    0    0  0.10954922499E+02  0.13081058347E+02  0.36905838135E+02  0.50528864460E+02  0.30000014011E+02 0.  0.
         12    1    1    2    0    0 -0.10954922499E+02 -0.13081058347E+02 -0.36905838135E+02  0.40659135540E+02  0.00000000000E+00 0. -1.
         11    1    3    3    0    0  0.87472636155E+01  0.15038585694E+02  0.91307681809E+01  0.19648017922E+02  0.51100000000E-03 0. -1.
        -11    1    3    3    0    0  0.46439449953E+00  0.46767249166E+01  0.19853267720E+02  0.20401952299E+02  0.51100000000E-03 0.  1.
         12    1    3    3    0    0  0.17432643837E+01 -0.66342522639E+01  0.79218022342E+01  0.10478894238E+02  0.00000000000E+00 0. -1.
</event>
<event>
 7    1  0.2900470E-011  0.5052887E+02  0.7816164E-02  0.1300439E+00
        -11   -1    0    0    0    0  0.00000000000E+00  0.00000000000E+00  0.45593999997E+02  0.45594000000E+02  0.51100000000E-03 0.  1.
         11   -1    0    0    0    0 -0.00000000000E+00 -0.00000000000E+00 -0.45593999997E+02  0.45594000000E+02  0.51100000000E-03 0. -1.
    9900012    2    1    2    0    0  0.12955274594E+02  0.34989417191E+02  0.16157561593E+02  0.50528865087E+02  0.30000015920E+02 0.  0.
         12    1    1    2    0    0 -0.12955274594E+02 -0.34989417191E+02 -0.16157561593E+02  0.40659134913E+02  0.00000000000E+00 0. -1.
         11    1    3    3    0    0  0.10326625465E+02  0.15809418279E+01  0.37944143629E+01  0.11114681784E+02  0.51100000000E-03 0. -1.
        -11    1    3    3    0    0  0.37558532944E+01  0.18324799426E+02  0.15103698375E+02  0.24042179869E+02  0.51100000000E-03 0.  1.
        -12    1    3    3    0    0 -0.11272041649E+01  0.15083675937E+02 -0.27405511448E+01  0.15372003434E+02  0.00000000000E+00 0.  1.
</event>
<event>
 7    1  0.2900470E-011  0.5052886E+02  0.7816164E-02  0.1300439E+00
        -11   -1    0    0    0    0  0.00000000000E+00  0.00000000000E+00  0.45593999997E+02  0.45594000000E+02  0.51100000000E-03 0.  1.
         11   -1    0    0    0    0 -0.00000000000E+00 -0.00000000000E+00 -0.45593999997E+02  0.45594000000E+02  0.51100000000E-03 0. -1.
    9900012    2    1    2    0    0 -0.20469519590E+02  0.92712339857E+01  0.33885231473E+02  0.50528856824E+02  0.29999990801E+02 0.  0.
         12    1    1    2    0    0  0.20469519590E+02 -0.92712339857E+01 -0.33885231473E+02  0.40659143176E+02  0.00000000000E+00 0. -1.
         11    1    3    3    0    0 -0.33790676199E+01 -0.27964679016E+01  0.83650175250E+01  0.94452024414E+01  0.51100000000E-03 0. -1.
        -11    1    3    3    0    0 -0.29016433291E+01  0.16882741460E+02  0.15072507397E+02  0.22817251646E+02  0.51100000000E-03 0.  1.
        -12    1    3    3    0    0 -0.14188808641E+02 -0.48150395725E+01  0.10447706551E+02  0.18266402736E+02  0.00000000000E+00 0.  1.
</event>
<event>
 7    1  0.2900470E-011  0.5052879E+02  0.7816164E-02  0.1300439E+00
        -11   -1    0    0    0    0  0.00000000000E+00  0.00000000000E+00  0.45593999997E+02  0.45594000000E+02  0.51100000000E-03 0.  1.
         11   -1    0    0    0    0 -0.00000000000E+00 -0.00000000000E+00 -0.45593999997E+02  0.45594000000E+02  0.51100000000E-03 0. -1.
    9900012    2    1    2    0    0 -0.36697519815E+01  0.39571539331E+02  0.85905580761E+01  0.50528788342E+02  0.29999782644E+02 0.  0.
         12    1    1    2    0    0  0.36697519815E+01 -0.39571539331E+02 -0.85905580761E+01  0.40659211658E+02  0.00000000000E+00 0. -1.
         11    1    3    3    0    0 -0.49226950690E+01  0.16378429758E+01  0.22865538223E+01  0.56695489238E+01  0.51100000000E-03 0. -1.
        -11    1    3    3    0    0  0.91863883119E+01  0.34502900660E+02  0.41026788307E+01  0.35939836644E+02  0.51100000000E-03 0.  1.
        -12    1    3    3    0    0 -0.79334452244E+01  0.34307956950E+01  0.22013254232E+01  0.89194027742E+01  0.00000000000E+00 0.  1.
</event>
<event>
 7    1  0.2900470E-011  0.5052886E+02  0.7816164E-02  0.1300439E+00
        -11   -1    0    0    0    0  0.00000000000E+00  0.00000000000E+00  0.45593999997E+02  0.45594000000E+02  0.51100000000E-03 0.  1.
         11   -1    0    0    0    0 -0.00000000000E+00 -0.00000000000E+00 -0.45593999997E+02  0.45594000000E+02  0.51100000000E-03 0. -1.
    9900012    2    1    2    0    0  0.72990041212E+01  0.25097782275E+01  0.39919810906E+02  0.50528858953E+02  0.29999997273E+02 0.  0.
         12    1    1    2    0    0 -0.72990041212E+01 -0.25097782275E+01 -0.39919810906E+02  0.40659141047E+02  0.00000000000E+00 0. -1.
         11    1    3    3    0    0  0.27019984479E-02  0.41374722295E+00  0.34963543266E+00  0.54170034354E+00  0.51100000000E-03 0. -1.
        -11    1    3    3    0    0 -0.31342514126E+01 -0.65470284882E+01  0.34917892309E+02  0.35664356401E+02  0.51100000000E-03 0.  1.
        -12    1    3    3    0    0  0.10430553535E+02  0.86430594928E+01  0.46522831644E+01  0.14322802208E+02  0.00000000000E+00 0.  1.
</event>
<event>
 7    1  0.2900470E-011  0.5052885E+02  0.7816164E-02  0.1300439E+00
        -11   -1    0    0    0    0  0.00000000000E+00  0.00000000000E+00  0.45593999997E+02  0.45594000000E+02  0.51100000000E-03 0.  1.
         11   -1    0    0    0    0 -0.00000000000E+00 -0.00000000000E+00 -0.45593999997E+02  0.45594000000E+02  0.51100000000E-03 0. -1.
    9900012    2    1    2    0    0  0.60548725752E+01 -0.23384617819E+01  0.40137717186E+02  0.50528853104E+02  0.29999979494E+02 0.  0.
         12    1    1    2    0    0 -0.60548725752E+01  0.23384617819E+01 -0.40137717186E+02  0.40659146896E+02  0.00000000000E+00 0. -1.
         11    1    3    3    0    0  0.11197351408E+02 -0.24814971539E+01  0.14422407461E+02  0.18426729062E+02  0.51100000000E-03 0. -1.
        -11    1    3    3    0    0 -0.78409468842E+01  0.78181962517E+01  0.15278721588E+02  0.18869127544E+02  0.51100000000E-03 0.  1.
        -12    1    3    3    0    0  0.26984680510E+01 -0.76751608797E+01  0.10436588137E+02  0.13232996497E+02  0.00000000000E+00 0.  1.
</event>
<event>
 7    1  0.2900470E-011  0.5052886E+02  0.7816164E-02  0.1300439E+00
        -11   -1    0    0    0    0  0.00000000000E+00  0.00000000000E+00  0.45593999997E+02  0.45594000000E+02  0.51100000000E-03 0.  1.
         11   -1    0    0    0    0 -0.00000000000E+00 -0.00000000000E+00 -0.45593999997E+02  0.45594000000E+02  0.51100000000E-03 0. -1.
    9900012    2    1    2    0    0 -0.16715718180E+02 -0.87787057862E+01  0.36009513512E+02  0.50528856220E+02  0.29999988967E+02 0.  0.
         12    1    1    2    0    0  0.16715718180E+02  0.87787057862E+01 -0.36009513512E+02  0.40659143780E+02  0.00000000000E+00 0. -1.
         11    1    3    3    0    0  0.46371556134E+01 -0.36080171922E+01 -0.18259656091E+01  0.61526539728E+01  0.51100000000E-03 0. -1.
        -11    1    3    3    0    0 -0.15410110956E+02 -0.68840131385E+01  0.25542232433E+02  0.30614813318E+02  0.51100000000E-03 0.  1.
        -12    1    3    3    0    0 -0.59427628367E+01  0.17133245446E+01  0.12293246689E+02  0.13761388930E+02  0.00000000000E+00 0.  1.
</event>
<event>
 7    1  0.2900470E-011  0.5052886E+02  0.7816164E-02  0.1300439E+00
        -11   -1    0    0    0    0  0.00000000000E+00  0.00000000000E+00  0.45593999997E+02  0.45594000000E+02  0.51100000000E-03 0. -1.
         11   -1    0    0    0    0 -0.00000000000E+00 -0.00000000000E+00 -0.45593999997E+02  0.45594000000E+02  0.51100000000E-03 0.  1.
    9900012    2    1    2    0    0  0.14329628252E+02  0.34597368161E+02 -0.15838219353E+02  0.50528864227E+02  0.30000013305E+02 0.  0.
         12    1    1    2    0    0 -0.14329628252E+02 -0.34597368161E+02  0.15838219353E+02  0.40659135773E+02  0.00000000000E+00 0. -1.
         11    1    3    3    0    0  0.46965473250E+01  0.88991487452E+01  0.18292079156E+01  0.10227336262E+02  0.51100000000E-03 0. -1.
        -11    1    3    3    0    0  0.34389794166E+01  0.21829042229E+02 -0.22505655342E+02  0.31541055574E+02  0.51100000000E-03 0.  1.
        -12    1    3    3    0    0  0.61941015100E+01  0.38691771874E+01  0.48382280735E+01  0.87604723911E+01  0.00000000000E+00 0.  1.
</event>
<event>
 7    1  0.2900470E-011  0.5052886E+02  0.7816164E-02  0.1300439E+00
        -11   -1    0    0    0    0  0.00000000000E+00  0.00000000000E+00  0.45593999997E+02  0.45594000000E+02  0.51100000000E-03 0. -1.
         11   -1    0    0    0    0 -0.00000000000E+00 -0.00000000000E+00 -0.45593999997E+02  0.45594000000E+02  0.51100000000E-03 0.  1.
    9900012    2    1    2    0    0 -0.33487779827E+02  0.22843544717E+02 -0.31475029624E+01  0.50528859479E+02  0.29999998873E+02 0.  0.
         12    1    1    2    0    0  0.33487779827E+02 -0.22843544717E+02  0.31475029624E+01  0.40659140521E+02  0.00000000000E+00 0. -1.
         11    1    3    3    0    0  0.25568752769E+01  0.88517484167E+00  0.28447733584E+01  0.39260516303E+01  0.51100000000E-03 0. -1.
        -11    1    3    3    0    0 -0.30333995016E+02  0.24229688979E+02 -0.12553102587E+01  0.38843337726E+02  0.51100000000E-03 0.  1.
        -12    1    3    3    0    0 -0.57106600882E+01 -0.22713191033E+01 -0.47369660621E+01  0.77594701228E+01  0.00000000000E+00 0.  1.
</event>
<event>
 7    1  0.2900470E-011  0.5052886E+02  0.7816164E-02  0.1300439E+00
        -11   -1    0    0    0    0  0.00000000000E+00  0.00000000000E+00  0.45593999997E+02  0.45594000000E+02  0.51100000000E-03 0. -1.
         11   -1    0    0    0    0 -0.00000000000E+00 -0.00000000000E+00 -0.45593999997E+02  0.45594000000E+02  0.51100000000E-03 0.  1.
    9900012    2    1    2    0    0 -0.37439231946E+02 -0.79540752399E+01 -0.13718674423E+02  0.50528862902E+02  0.30000009277E+02 0.  0.
         12    1    1    2    0    0  0.37439231946E+02  0.79540752399E+01  0.13718674423E+02  0.40659137098E+02  0.00000000000E+00 0. -1.
         11    1    3    3    0    0 -0.17190287324E+02  0.89606320944E-01  0.10570367981E+01  0.17222988551E+02  0.51100000000E-03 0. -1.
        -11    1    3    3    0    0 -0.10610632516E+02  0.25920691706E+01 -0.15468176729E+02  0.18935913935E+02  0.51100000000E-03 0.  1.
        -12    1    3    3    0    0 -0.96383121058E+01 -0.10635750731E+02  0.69246550769E+00  0.14369960416E+02  0.00000000000E+00 0.  1.
</event>
<event>
 7    1  0.2900470E-011  0.5052886E+02  0.7816164E-02  0.1300439E+00
        -11   -1    0    0    0    0  0.00000000000E+00  0.00000000000E+00  0.45593999997E+02  0.45594000000E+02  0.51100000000E-03 0.  1.
         11   -1    0    0    0    0 -0.00000000000E+00 -0.00000000000E+00 -0.45593999997E+02  0.45594000000E+02  0.51100000000E-03 0. -1.
    9900012    2    1    2    0    0 -0.30077118194E+02  0.17202376019E+02  0.21274660674E+02  0.50528856301E+02  0.29999989212E+02 0.  0.
         12    1    1    2    0    0  0.30077118194E+02 -0.17202376019E+02 -0.21274660674E+02  0.40659143699E+02  0.00000000000E+00 0. -1.
         11    1    3    3    0    0 -0.41630033656E+01 -0.75374246008E+00 -0.55190339857E+01  0.69540248141E+01  0.51100000000E-03 0. -1.
        -11    1    3    3    0    0 -0.25964304662E+02  0.19668118776E+02  0.24753781623E+02  0.40911241947E+02  0.51100000000E-03 0.  1.
        -12    1    3    3    0    0  0.50189834385E-01 -0.17120002963E+01  0.20399130374E+01  0.26635895394E+01  0.00000000000E+00 0.  1.
</event>
<event>
 7    1  0.2900470E-011  0.5052885E+02  0.7816164E-02  0.1300439E+00
        -11   -1    0    0    0    0  0.00000000000E+00  0.00000000000E+00  0.45593999997E+02  0.45594000000E+02  0.51100000000E-03 0.  1.
         11   -1    0    0    0    0 -0.00000000000E+00 -0.00000000000E+00 -0.45593999997E+02  0.45594000000E+02  0.51100000000E-03 0. -1.
    9900012    2    1    2    0    0  0.34214455764E+02  0.10259175008E+02  0.19423880108E+02  0.50528846375E+02  0.29999959041E+02 0.  0.
         12    1    1    2    0    0 -0.34214455764E+02 -0.10259175008E+02 -0.19423880108E+02  0.40659153625E+02  0.00000000000E+00 0. -1.
         11    1    3    3    0    0  0.16247773115E+02  0.10307743148E+02  0.24759841993E+02  0.31357446895E+02  0.51100000000E-03 0.  1.
        -11    1    3    3    0    0  0.59366698309E+01 -0.16257866804E+01 -0.28650610878E+01  0.67893892442E+01  0.51100000000E-03 0. -1.
        -12    1    3    3    0    0  0.12030012818E+02  0.15772185411E+01 -0.24709007974E+01  0.12382010236E+02  0.00000000000E+00 0.  1.
</event>
<event>
 7    1  0.2900470E-011  0.5052887E+02  0.7816164E-02  0.1300439E+00
        -11   -1    0    0    0    0  0.00000000000E+00  0.00000000000E+00  0.45593999997E+02  0.45594000000E+02  0.51100000000E-03 0.  1.
         11   -1    0    0    0    0 -0.00000000000E+00 -0.00000000000E+00 -0.45593999997E+02  0.45594000000E+02  0.51100000000E-03 0. -1.
    9900012    2    1    2    0    0  0.19552487124E+01  0.36331942420E+02  0.18147496136E+02  0.50528872445E+02  0.30000038283E+02 0.  0.
         12    1    1    2    0    0 -0.19552487124E+01 -0.36331942420E+02 -0.18147496136E+02  0.40659127555E+02  0.00000000000E+00 0. -1.
         11    1    3    3    0    0  0.34590500261E+01 -0.10521201609E+01 -0.46770507546E+01  0.59115808324E+01  0.51100000000E-03 0.  1.
        -11    1    3    3    0    0 -0.18442031935E+01  0.23972616144E+02  0.19064513318E+02  0.30684573951E+02  0.51100000000E-03 0. -1.
        -12    1    3    3    0    0  0.34040187980E+00  0.13411446437E+02  0.37600335725E+01  0.13932717662E+02  0.00000000000E+00 0.  1.
</event>
<event>
 7    1  0.2900470E-011  0.5052885E+02  0.7816164E-02  0.1300439E+00
        -11   -1    0    0    0    0  0.00000000000E+00  0.00000000000E+00  0.45593999997E+02  0.45594000000E+02  0.51100000000E-03 0. -1.
         11   -1    0    0    0    0 -0.00000000000E+00 -0.00000000000E+00 -0.45593999997E+02  0.45594000000E+02  0.51100000000E-03 0.  1.
    9900012    2    1    2    0    0  0.39199414390E+02  0.61172729346E+01 -0.88966861718E+01  0.50528854147E+02  0.29999982664E+02 0.  0.
         12    1    1    2    0    0 -0.39199414390E+02 -0.61172729346E+01  0.88966861718E+01  0.40659145853E+02  0.00000000000E+00 0. -1.
         11    1    3    3    0    0  0.31738821256E+02 -0.71675904526E-01  0.61192504637E+00  0.31744800593E+02  0.51100000000E-03 0. -1.
        -11    1    3    3    0    0  0.54044231150E+01  0.12689034691E+01 -0.11753344935E+02  0.12998423852E+02  0.51100000000E-03 0.  1.
        -12    1    3    3    0    0  0.20561700193E+01  0.49200453700E+01  0.22447337165E+01  0.57856297021E+01  0.00000000000E+00 0.  1.
</event>
<event>
 7    1  0.2900470E-011  0.5052886E+02  0.7816164E-02  0.1300439E+00
        -11   -1    0    0    0    0  0.00000000000E+00  0.00000000000E+00  0.45593999997E+02  0.45594000000E+02  0.51100000000E-03 0. -1.
         11   -1    0    0    0    0 -0.00000000000E+00 -0.00000000000E+00 -0.45593999997E+02  0.45594000000E+02  0.51100000000E-03 0.  1.
    9900012    2    1    2    0    0  0.11387758962E+02 -0.36940403686E+02  0.12605198707E+02  0.50528861874E+02  0.30000006153E+02 0.  0.
         12    1    1    2    0    0 -0.11387758962E+02  0.36940403686E+02 -0.12605198707E+02  0.40659138126E+02  0.00000000000E+00 0. -1.
         11    1    3    3    0    0 -0.59285169043E+01 -0.12892924454E+02  0.94555408988E+01  0.17052333202E+02  0.51100000000E-03 0. -1.
        -11    1    3    3    0    0  0.17268518177E+02 -0.25990709771E+02  0.21188928610E+01  0.31276323659E+02  0.51100000000E-03 0.  1.
        -12    1    3    3    0    0  0.47757688999E-01  0.19432305389E+01  0.10307649473E+01  0.22002050133E+01  0.00000000000E+00 0.  1.
</event>
<event>
 7    1  0.2900470E-011  0.5052886E+02  0.7816164E-02  0.1300439E+00
        -11   -1    0    0    0    0  0.00000000000E+00  0.00000000000E+00  0.45593999997E+02  0.45594000000E+02  0.51100000000E-03 0.  1.
         11   -1    0    0    0    0 -0.00000000000E+00 -0.00000000000E+00 -0.45593999997E+02  0.45594000000E+02  0.51100000000E-03 0. -1.
    9900012    2    1    2    0    0 -0.24978592887E+02  0.17292230952E+02  0.27022476446E+02  0.50528860964E+02  0.30000003385E+02 0.  0.
         12    1    1    2    0    0  0.24978592887E+02 -0.17292230952E+02 -0.27022476446E+02  0.40659139036E+02  0.00000000000E+00 0. -1.
         11    1    3    3    0    0 -0.46276301988E+01  0.62212159206E+00  0.20875883874E+02  0.21391692881E+02  0.51100000000E-03 0. -1.
        -11    1    3    3    0    0 -0.14180421826E+02  0.63628031125E+01 -0.21410635331E+00  0.15543984959E+02  0.51100000000E-03 0.  1.
        -12    1    3    3    0    0 -0.61705408619E+01  0.10307306248E+02  0.63606989249E+01  0.13593183123E+02  0.00000000000E+00 0.  1.
</event>
<event>
 7    1  0.2900470E-011  0.5052886E+02  0.7816164E-02  0.1300439E+00
        -11   -1    0    0    0    0  0.00000000000E+00  0.00000000000E+00  0.45593999997E+02  0.45594000000E+02  0.51100000000E-03 0.  1.
         11   -1    0    0    0    0 -0.00000000000E+00 -0.00000000000E+00 -0.45593999997E+02  0.45594000000E+02  0.51100000000E-03 0. -1.
    9900012    2    1    2    0    0  0.24911591073E+02 -0.24341475961E+02  0.20977864578E+02  0.50528860511E+02  0.30000002008E+02 0.  0.
         12    1    1    2    0    0 -0.24911591073E+02  0.24341475961E+02 -0.20977864578E+02  0.40659139489E+02  0.00000000000E+00 0. -1.
         11    1    3    3    0    0  0.11282071708E+02 -0.51450933489E+01  0.14750384229E+02  0.19269949734E+02  0.51100000000E-03 0.  1.
        -11    1    3    3    0    0  0.16576320221E+02 -0.20140746413E+02  0.21966433950E+01  0.26177266866E+02  0.51100000000E-03 0. -1.
        -12    1    3    3    0    0 -0.29468008558E+01  0.94436380128E+00  0.40308369545E+01  0.50816439098E+01  0.00000000000E+00 0.  1.
</event>
<event>
 7    1  0.2900470E-011  0.5052885E+02  0.7816164E-02  0.1300439E+00
        -11   -1    0    0    0    0  0.00000000000E+00  0.00000000000E+00  0.45593999997E+02  0.45594000000E+02  0.51100000000E-03 0.  1.
         11   -1    0    0    0    0 -0.00000000000E+00 -0.00000000000E+00 -0.45593999997E+02  0.45594000000E+02  0.51100000000E-03 0. -1.
    9900012    2    1    2    0    0  0.29842976388E+02  0.26760803810E+02  0.68134001242E+01  0.50528852425E+02  0.29999977431E+02 0.  0.
         12    1    1    2    0    0 -0.29842976388E+02 -0.26760803810E+02 -0.68134001242E+01  0.40659147575E+02  0.00000000000E+00 0. -1.
         11    1    3    3    0    0  0.13202518842E+01  0.17525188588E+01 -0.73426053928E+01  0.76634353657E+01  0.51100000000E-03 0. -1.
        -11    1    3    3    0    0  0.19774235783E+02  0.11737929955E+02  0.24508238696E+01  0.23125871623E+02  0.51100000000E-03 0.  1.
         12    1    3    3    0    0  0.87484887208E+01  0.13270354996E+02  0.11705181647E+02  0.19739545436E+02  0.00000000000E+00 0. -1.
</event>
<event>
 7    1  0.2900470E-011  0.5052885E+02  0.7816164E-02  0.1300439E+00
        -11   -1    0    0    0    0  0.00000000000E+00  0.00000000000E+00  0.45593999997E+02  0.45594000000E+02  0.51100000000E-03 0.  1.
         11   -1    0    0    0    0 -0.00000000000E+00 -0.00000000000E+00 -0.45593999997E+02  0.45594000000E+02  0.51100000000E-03 0. -1.
    9900012    2    1    2    0    0 -0.19826902099E+01 -0.83710591255E+01  0.39738657636E+02  0.50528848483E+02  0.29999965448E+02 0.  0.
         12    1    1    2    0    0  0.19826902099E+01  0.83710591255E+01 -0.39738657636E+02  0.40659151517E+02  0.00000000000E+00 0. -1.
         11    1    3    3    0    0 -0.11371736176E+02 -0.15317307247E+02  0.22779139485E+02  0.29712379254E+02  0.51100000000E-03 0. -1.
        -11    1    3    3    0    0  0.29399382926E+01  0.23339695420E+01  0.80978977242E+01  0.89256147575E+01  0.51100000000E-03 0.  1.
         12    1    3    3    0    0  0.64491076738E+01  0.46122785791E+01  0.88616204268E+01  0.11890854472E+02  0.00000000000E+00 0. -1.
</event>
<event>
 7    1  0.2900470E-011  0.5052886E+02  0.7816164E-02  0.1300439E+00
        -11   -1    0    0    0    0  0.00000000000E+00  0.00000000000E+00  0.45593999997E+02  0.45594000000E+02  0.51100000000E-03 0.  1.
         11   -1    0    0    0    0 -0.00000000000E+00 -0.00000000000E+00 -0.45593999997E+02  0.45594000000E+02  0.51100000000E-03 0. -1.
    9900012    2    1    2    0    0 -0.91823739678E+01  0.20085330930E+02  0.34138380185E+02  0.50528861889E+02  0.30000006197E+02 0.  0.
         12    1    1    2    0    0  0.91823739678E+01 -0.20085330930E+02 -0.34138380185E+02  0.40659138111E+02  0.00000000000E+00 0. -1.
         11    1    3    3    0    0  0.55991451361E+01  0.17639206339E+02  0.11575945911E+02  0.21828755129E+02  0.51100000000E-03 0. -1.
        -11    1    3    3    0    0 -0.43601948456E+01 -0.28613417304E+01  0.11385258230E+02  0.12522886282E+02  0.51100000000E-03 0.  1.
         12    1    3    3    0    0 -0.10421324258E+02  0.53074663219E+01  0.11177176044E+02  0.16177220478E+02  0.00000000000E+00 0. -1.
</event>
<event>
 7    1  0.2900470E-011  0.5052886E+02  0.7816164E-02  0.1300439E+00
        -11   -1    0    0    0    0  0.00000000000E+00  0.00000000000E+00  0.45593999997E+02  0.45594000000E+02  0.51100000000E-03 0. -1.
         11   -1    0    0    0    0 -0.00000000000E+00 -0.00000000000E+00 -0.45593999997E+02  0.45594000000E+02  0.51100000000E-03 0.  1.
    9900012    2    1    2    0    0 -0.32227207665E+02 -0.22715441127E+02 -0.99288326264E+01  0.50528857156E+02  0.29999991812E+02 0.  0.
         12    1    1    2    0    0  0.32227207665E+02  0.22715441127E+02  0.99288326264E+01  0.40659142844E+02  0.00000000000E+00 0. -1.
         11    1    3    3    0    0 -0.26749686133E+02 -0.23847595356E+02 -0.35935090564E+01  0.36016202188E+02  0.51100000000E-03 0. -1.
        -11    1    3    3    0    0 -0.49971130390E+01 -0.27917842285E+01 -0.83123732164E+01  0.10092608516E+02  0.51100000000E-03 0.  1.
         12    1    3    3    0    0 -0.48040849281E+00  0.39239384571E+01  0.19770496464E+01  0.44200464521E+01  0.00000000000E+00 0. -1.
</event>
<event>
 7    1  0.2900470E-011  0.5052886E+02  0.7816164E-02  0.1300439E+00
        -11   -1    0    0    0    0  0.00000000000E+00  0.00000000000E+00  0.45593999997E+02  0.45594000000E+02  0.51100000000E-03 0.  1.
         11   -1    0    0    0    0 -0.00000000000E+00 -0.00000000000E+00 -0.45593999997E+02  0.45594000000E+02  0.51100000000E-03 0. -1.
    9900012    2    1    2    0    0  0.19358336593E+02 -0.87784925397E+01  0.34660617653E+02  0.50528861506E+02  0.30000005035E+02 0.  0.
         12    1    1    2    0    0 -0.19358336593E+02  0.87784925397E+01 -0.34660617653E+02  0.40659138494E+02  0.00000000000E+00 0. -1.
         11    1    3    3    0    0  0.83819840285E+01 -0.11149008510E+02  0.21288849154E+02  0.25451387891E+02  0.51100000000E-03 0. -1.
        -11    1    3    3    0    0 -0.45726488324E+01  0.17517342107E+01  0.63144942024E+01  0.79906525004E+01  0.51100000000E-03 0.  1.
        -12    1    3    3    0    0  0.15549001397E+02  0.61878175992E+00  0.70572742974E+01  0.17086821115E+02  0.00000000000E+00 0.  1.
</event>
<event>
 7    1  0.2900470E-011  0.5052876E+02  0.7816164E-02  0.1300439E+00
        -11   -1    0    0    0    0  0.00000000000E+00  0.00000000000E+00  0.45593999997E+02  0.45594000000E+02  0.51100000000E-03 0. -1.
         11   -1    0    0    0    0 -0.00000000000E+00 -0.00000000000E+00 -0.45593999997E+02  0.45594000000E+02  0.51100000000E-03 0.  1.
    9900012    2    1    2    0    0 -0.34782735740E+02  0.12140182651E+02 -0.17203226058E+02  0.50528760863E+02  0.29999699119E+02 0.  0.
         12    1    1    2    0    0  0.34782735740E+02 -0.12140182651E+02  0.17203226058E+02  0.40659239137E+02  0.00000000000E+00 0. -1.
         11    1    3    3    0    0 -0.52628851140E+01  0.12994167332E+02 -0.91239557694E+01  0.16727011494E+02  0.51100000000E-03 0. -1.
        -11    1    3    3    0    0 -0.17732245260E+02 -0.24314986476E+01 -0.11684543854E+02  0.21374594101E+02  0.51100000000E-03 0.  1.
         12    1    3    3    0    0 -0.11787605367E+02  0.15775139661E+01  0.36052735653E+01  0.12427155269E+02  0.00000000000E+00 0. -1.
</event>
<event>
 7    1  0.2900470E-011  0.5052886E+02  0.7816164E-02  0.1300439E+00
        -11   -1    0    0    0    0  0.00000000000E+00  0.00000000000E+00  0.45593999997E+02  0.45594000000E+02  0.51100000000E-03 0.  1.
         11   -1    0    0    0    0 -0.00000000000E+00 -0.00000000000E+00 -0.45593999997E+02  0.45594000000E+02  0.51100000000E-03 0. -1.
    9900012    2    1    2    0    0  0.15312811901E+02  0.33695148167E+02  0.16832128578E+02  0.50528858706E+02  0.29999996522E+02 0.  0.
         12    1    1    2    0    0 -0.15312811901E+02 -0.33695148167E+02 -0.16832128578E+02  0.40659141294E+02  0.00000000000E+00 0. -1.
         11    1    3    3    0    0  0.45724640213E+01  0.40505284042E+01 -0.69810196824E+01  0.92762515947E+01  0.51100000000E-03 0. -1.
        -11    1    3    3    0    0  0.13200359944E+02  0.26056474760E+02  0.21861509175E+02  0.36484448239E+02  0.51100000000E-03 0.  1.
         12    1    3    3    0    0 -0.24600120646E+01  0.35881450021E+01  0.19516390857E+01  0.47681588727E+01  0.00000000000E+00 0. -1.
</event>
<event>
 7    1  0.2900470E-011  0.5052887E+02  0.7816164E-02  0.1300439E+00
        -11   -1    0    0    0    0  0.00000000000E+00  0.00000000000E+00  0.45593999997E+02  0.45594000000E+02  0.51100000000E-03 0. -1.
         11   -1    0    0    0    0 -0.00000000000E+00 -0.00000000000E+00 -0.45593999997E+02  0.45594000000E+02  0.51100000000E-03 0.  1.
    9900012    2    1    2    0    0  0.10345989688E+02  0.22538789531E+02 -0.32220003840E+02  0.50528865927E+02  0.30000018472E+02 0.  0.
         12    1    1    2    0    0 -0.10345989688E+02 -0.22538789531E+02  0.32220003840E+02  0.40659134073E+02  0.00000000000E+00 0. -1.
         11    1    3    3    0    0  0.61432502207E+01  0.27005808348E+01 -0.25046707557E+02  0.25930102581E+02  0.51100000000E-03 0. -1.
        -11    1    3    3    0    0 -0.15918786585E+00  0.17718448158E+02 -0.83804865333E+01  0.19601053561E+02  0.51100000000E-03 0.  1.
         12    1    3    3    0    0  0.43619273332E+01  0.21197605376E+01  0.12071902507E+01  0.49977097853E+01  0.00000000000E+00 0. -1.
</event>
<event>
 7    1  0.2900470E-011  0.5052886E+02  0.7816164E-02  0.1300439E+00
        -11   -1    0    0    0    0  0.00000000000E+00  0.00000000000E+00  0.45593999997E+02  0.45594000000E+02  0.51100000000E-03 0. -1.
         11   -1    0    0    0    0 -0.00000000000E+00 -0.00000000000E+00 -0.45593999997E+02  0.45594000000E+02  0.51100000000E-03 0.  1.
    9900012    2    1    2    0    0  0.24034044004E+02  0.78533514060E+01  0.31841096299E+02  0.50528858187E+02  0.29999994945E+02 0.  0.
         12    1    1    2    0    0 -0.24034044004E+02 -0.78533514060E+01 -0.31841096299E+02  0.40659141813E+02  0.00000000000E+00 0. -1.
         11    1    3    3    0    0 -0.11144738817E+01 -0.27862890914E+01  0.15315689243E+01  0.33691486410E+01  0.51100000000E-03 0. -1.
        -11    1    3    3    0    0  0.12653956988E+02  0.17133899152E+02  0.13441908249E+02  0.25186862156E+02  0.51100000000E-03 0.  1.
        -12    1    3    3    0    0  0.12494560897E+02 -0.64942586546E+01  0.16867619125E+02  0.21972847390E+02  0.00000000000E+00 0.  1.
</event>
<event>
 7    1  0.2900470E-011  0.5052886E+02  0.7816164E-02  0.1300439E+00
        -11   -1    0    0    0    0  0.00000000000E+00  0.00000000000E+00  0.45593999997E+02  0.45594000000E+02  0.51100000000E-03 0. -1.
         11   -1    0    0    0    0 -0.00000000000E+00 -0.00000000000E+00 -0.45593999997E+02  0.45594000000E+02  0.51100000000E-03 0.  1.
    9900012    2    1    2    0    0  0.28245828452E+01 -0.37679262538E+02 -0.15015352731E+02  0.50528856978E+02  0.29999991269E+02 0.  0.
         12    1    1    2    0    0 -0.28245828452E+01  0.37679262538E+02  0.15015352731E+02  0.40659143022E+02  0.00000000000E+00 0. -1.
         11    1    3    3    0    0 -0.71620653736E+01 -0.14912564949E+02 -0.31342227166E+01  0.16837551071E+02  0.51100000000E-03 0. -1.
        -11    1    3    3    0    0  0.99460681883E+01 -0.14037505834E+01 -0.24498102469E+01  0.10339069524E+02  0.51100000000E-03 0.  1.
        -12    1    3    3    0    0  0.40580030465E-01 -0.21362947006E+02 -0.94313197679E+01  0.23352236383E+02  0.00000000000E+00 0.  1.
</event>
<event>
 7    1  0.2900470E-011  0.5052886E+02  0.7816164E-02  0.1300439E+00
        -11   -1    0    0    0    0  0.00000000000E+00  0.00000000000E+00  0.45593999997E+02  0.45594000000E+02  0.51100000000E-03 0. -1.
         11   -1    0    0    0    0 -0.00000000000E+00 -0.00000000000E+00 -0.45593999997E+02  0.45594000000E+02  0.51100000000E-03 0.  1.
    9900012    2    1    2    0    0 -0.34820262892E+02  0.14170725700E+02  0.15488891117E+02  0.50528856837E+02  0.29999990842E+02 0.  0.
         12    1    1    2    0    0  0.34820262892E+02 -0.14170725700E+02 -0.15488891117E+02  0.40659143163E+02  0.00000000000E+00 0. -1.
         11    1    3    3    0    0 -0.26905457570E+02  0.11268292724E+02  0.22514514777E+02  0.36848086027E+02  0.51100000000E-03 0. -1.
        -11    1    3    3    0    0 -0.87032412621E+01  0.46143202992E+01 -0.57737661144E+01  0.11418175673E+02  0.51100000000E-03 0.  1.
         12    1    3    3    0    0  0.78843594009E+00 -0.17118873235E+01 -0.12518575456E+01  0.22625951371E+01  0.00000000000E+00 0. -1.
</event>
<event>
 7    1  0.2900470E-011  0.5052886E+02  0.7816164E-02  0.1300439E+00
        -11   -1    0    0    0    0  0.00000000000E+00  0.00000000000E+00  0.45593999997E+02  0.45594000000E+02  0.51100000000E-03 0.  1.
         11   -1    0    0    0    0 -0.00000000000E+00 -0.00000000000E+00 -0.45593999997E+02  0.45594000000E+02  0.51100000000E-03 0. -1.
    9900012    2    1    2    0    0  0.39412264014E+02 -0.21624672010E+01  0.97551485898E+01  0.50528859046E+02  0.29999997556E+02 0.  0.
         12    1    1    2    0    0 -0.39412264014E+02  0.21624672010E+01 -0.97551485898E+01  0.40659140954E+02  0.00000000000E+00 0. -1.
         11    1    3    3    0    0  0.22852567490E+00  0.14534110326E+01  0.62554207567E+01  0.64261120997E+01  0.51100000000E-03 0. -1.
        -11    1    3    3    0    0  0.36153992304E+02 -0.86849401592E+01 -0.10758700112E+00  0.37182669623E+02  0.51100000000E-03 0.  1.
        -12    1    3    3    0    0  0.30297460350E+01  0.50690619257E+01  0.36073148342E+01  0.69200773229E+01  0.00000000000E+00 0.  1.
</event>
<event>
 7    1  0.2900470E-011  0.5052886E+02  0.7816164E-02  0.1300439E+00
        -11   -1    0    0    0    0  0.00000000000E+00  0.00000000000E+00  0.45593999997E+02  0.45594000000E+02  0.51100000000E-03 0. -1.
         11   -1    0    0    0    0 -0.00000000000E+00 -0.00000000000E+00 -0.45593999997E+02  0.45594000000E+02  0.51100000000E-03 0.  1.
    9900012    2    1    2    0    0  0.37696338869E+02 -0.11542242828E+02 -0.99462814381E+01  0.50528857755E+02  0.29999993633E+02 0.  0.
         12    1    1    2    0    0 -0.37696338869E+02  0.11542242828E+02  0.99462814381E+01  0.40659142245E+02  0.00000000000E+00 0. -1.
         11    1    3    3    0    0 -0.43999555498E+01  0.11148909394E+00 -0.35103528196E+01  0.56297971400E+01  0.51100000000E-03 0. -1.
        -11    1    3    3    0    0  0.14603306989E+02 -0.73596254841E+01 -0.66785077003E-01  0.16353138010E+02  0.51100000000E-03 0.  1.
         12    1    3    3    0    0  0.27492987430E+02 -0.42941064374E+01 -0.63691435415E+01  0.28545922605E+02  0.00000000000E+00 0. -1.
</event>
<event>
 7    1  0.2900470E-011  0.5052890E+02  0.7816164E-02  0.1300439E+00
        -11   -1    0    0    0    0  0.00000000000E+00  0.00000000000E+00  0.45593999997E+02  0.45594000000E+02  0.51100000000E-03 0.  1.
         11   -1    0    0    0    0 -0.00000000000E+00 -0.00000000000E+00 -0.45593999997E+02  0.45594000000E+02  0.51100000000E-03 0. -1.
    9900012    2    1    2    0    0 -0.22111486420E+02 -0.15417703341E+02  0.30439104306E+02  0.50528899186E+02  0.30000119567E+02 0.  0.
         12    1    1    2    0    0  0.22111486420E+02  0.15417703341E+02 -0.30439104306E+02  0.40659100814E+02  0.00000000000E+00 0. -1.
         11    1    3    3    0    0 -0.35679641981E+01 -0.15996451731E+01  0.38593105655E+01  0.54939522659E+01  0.51100000000E-03 0. -1.
        -11    1    3    3    0    0 -0.10584335792E+02  0.11756370294E+01 -0.28821184711E+01  0.11032537955E+02  0.51100000000E-03 0.  1.
        -12    1    3    3    0    0 -0.79591864296E+01 -0.14993695198E+02  0.29461912212E+02  0.34002408966E+02  0.00000000000E+00 0.  1.
</event>
<event>
 7    1  0.2900470E-011  0.5052886E+02  0.7816164E-02  0.1300439E+00
        -11   -1    0    0    0    0  0.00000000000E+00  0.00000000000E+00  0.45593999997E+02  0.45594000000E+02  0.51100000000E-03 0.  1.
         11   -1    0    0    0    0 -0.00000000000E+00 -0.00000000000E+00 -0.45593999997E+02  0.45594000000E+02  0.51100000000E-03 0. -1.
    9900012    2    1    2    0    0 -0.45155676046E+01 -0.40203771035E+02  0.40536537647E+01  0.50528860006E+02  0.30000000475E+02 0.  0.
         12    1    1    2    0    0  0.45155676046E+01  0.40203771035E+02 -0.40536537647E+01  0.40659139994E+02  0.00000000000E+00 0. -1.
         11    1    3    3    0    0 -0.41471801899E+01 -0.26930876463E+02 -0.30335899955E+01  0.27416671554E+02  0.51100000000E-03 0. -1.
        -11    1    3    3    0    0 -0.37606632091E+01 -0.11152371373E+02  0.11978739859E+02  0.16793099294E+02  0.51100000000E-03 0.  1.
        -12    1    3    3    0    0  0.33922757944E+01 -0.21205231982E+01 -0.48914960990E+01  0.63190891580E+01  0.00000000000E+00 0.  1.
</event>
<event>
 7    1  0.2900470E-011  0.5052888E+02  0.7816164E-02  0.1300439E+00
        -11   -1    0    0    0    0  0.00000000000E+00  0.00000000000E+00  0.45593999997E+02  0.45594000000E+02  0.51100000000E-03 0.  1.
         11   -1    0    0    0    0 -0.00000000000E+00 -0.00000000000E+00 -0.45593999997E+02  0.45594000000E+02  0.51100000000E-03 0. -1.
    9900012    2    1    2    0    0 -0.28601988123E+02  0.15454437511E+02  0.24418240529E+02  0.50528882524E+02  0.30000068921E+02 0.  0.
         12    1    1    2    0    0  0.28601988123E+02 -0.15454437511E+02 -0.24418240529E+02  0.40659117476E+02  0.00000000000E+00 0. -1.
         11    1    3    3    0    0 -0.63574404840E+01  0.13745098779E+02 -0.15337761952E+01  0.15221605028E+02  0.51100000000E-03 0. -1.
        -11    1    3    3    0    0 -0.18436940720E+02  0.22079238183E+01  0.15552440727E+02  0.24221356765E+02  0.51100000000E-03 0.  1.
         12    1    3    3    0    0 -0.38076069190E+01 -0.49858508609E+00  0.10399575998E+02  0.11085920732E+02  0.00000000000E+00 0. -1.
</event>
<event>
 7    1  0.2900470E-011  0.5052886E+02  0.7816164E-02  0.1300439E+00
        -11   -1    0    0    0    0  0.00000000000E+00  0.00000000000E+00  0.45593999997E+02  0.45594000000E+02  0.51100000000E-03 0.  1.
         11   -1    0    0    0    0 -0.00000000000E+00 -0.00000000000E+00 -0.45593999997E+02  0.45594000000E+02  0.51100000000E-03 0. -1.
    9900012    2    1    2    0    0  0.15515512733E+01  0.80762474796E+01  0.39818746058E+02  0.50528860532E+02  0.30000002072E+02 0.  0.
         12    1    1    2    0    0 -0.15515512733E+01 -0.80762474796E+01 -0.39818746058E+02  0.40659139468E+02  0.00000000000E+00 0. -1.
         11    1    3    3    0    0  0.47870167017E+01 -0.16816930962E+01  0.12200467751E+02  0.13213441421E+02  0.51100000000E-03 0. -1.
        -11    1    3    3    0    0 -0.32850463977E+01  0.17200656301E+02  0.21114592137E+02  0.27431370881E+02  0.51100000000E-03 0.  1.
        -12    1    3    3    0    0  0.49580969239E-01 -0.74427157247E+01  0.65036861691E+01  0.98840482302E+01  0.00000000000E+00 0.  1.
</event>
<event>
 7    1  0.2900470E-011  0.5052886E+02  0.7816164E-02  0.1300439E+00
        -11   -1    0    0    0    0  0.00000000000E+00  0.00000000000E+00  0.45593999997E+02  0.45594000000E+02  0.51100000000E-03 0. -1.
         11   -1    0    0    0    0 -0.00000000000E+00 -0.00000000000E+00 -0.45593999997E+02  0.45594000000E+02  0.51100000000E-03 0.  1.
    9900012    2    1    2    0    0 -0.14378540236E+02 -0.26434953159E+02 -0.27342582112E+02  0.50528856324E+02  0.29999989284E+02 0.  0.
         12    1    1    2    0    0  0.14378540236E+02  0.26434953159E+02  0.27342582112E+02  0.40659143676E+02  0.00000000000E+00 0. -1.
         11    1    3    3    0    0  0.19106032921E+01 -0.17379776479E+02 -0.90510426776E+00  0.17507891061E+02  0.51100000000E-03 0. -1.
        -11    1    3    3    0    0 -0.76582595261E+01 -0.65504247398E+01 -0.95128001732E+01  0.13858223935E+02  0.51100000000E-03 0.  1.
         12    1    3    3    0    0 -0.86308840021E+01 -0.25047519405E+01 -0.16924677671E+02  0.19162741328E+02  0.00000000000E+00 0. -1.
</event>
<event>
 7    1  0.2900470E-011  0.5052890E+02  0.7816164E-02  0.1300439E+00
        -11   -1    0    0    0    0  0.00000000000E+00  0.00000000000E+00  0.45593999997E+02  0.45594000000E+02  0.51100000000E-03 0.  1.
         11   -1    0    0    0    0 -0.00000000000E+00 -0.00000000000E+00 -0.45593999997E+02  0.45594000000E+02  0.51100000000E-03 0. -1.
    9900012    2    1    2    0    0 -0.53702084436E+01 -0.40233361840E+02  0.23663869476E+01  0.50528901008E+02  0.30000125102E+02 0.  0.
         12    1    1    2    0    0  0.53702084436E+01  0.40233361840E+02 -0.23663869476E+01  0.40659098992E+02  0.00000000000E+00 0. -1.
         11    1    3    3    0    0  0.32451467442E+01  0.35420135007E+00  0.21777469015E+00  0.32716757273E+01  0.51100000000E-03 0. -1.
        -11    1    3    3    0    0 -0.82059622104E+01 -0.25239137005E+02  0.11882037792E+02  0.29078078941E+02  0.51100000000E-03 0.  1.
        -12    1    3    3    0    0 -0.40939297738E+00 -0.15348426185E+02 -0.97334255347E+01  0.18179146339E+02  0.00000000000E+00 0.  1.
</event>
<event>
 7    1  0.2900470E-011  0.5052886E+02  0.7816164E-02  0.1300439E+00
        -11   -1    0    0    0    0  0.00000000000E+00  0.00000000000E+00  0.45593999997E+02  0.45594000000E+02  0.51100000000E-03 0.  1.
         11   -1    0    0    0    0 -0.00000000000E+00 -0.00000000000E+00 -0.45593999997E+02  0.45594000000E+02  0.51100000000E-03 0. -1.
    9900012    2    1    2    0    0  0.10639711636E+02  0.19915167085E+02  0.33813432380E+02  0.50528861383E+02  0.30000004660E+02 0.  0.
         12    1    1    2    0    0 -0.10639711636E+02 -0.19915167085E+02 -0.33813432380E+02  0.40659138617E+02  0.00000000000E+00 0. -1.
         11    1    3    3    0    0 -0.37239549923E+01  0.18972166472E+02  0.94459307105E+01  0.21518284055E+02  0.51100000000E-03 0. -1.
        -11    1    3    3    0    0  0.82482978191E+01 -0.92103425692E+00  0.83899641494E+01  0.11801449898E+02  0.51100000000E-03 0.  1.
        -12    1    3    3    0    0  0.61153688094E+01  0.18640348698E+01  0.15977537520E+02  0.17209127429E+02  0.00000000000E+00 0.  1.
</event>
<event>
 7    1  0.2900470E-011  0.5052886E+02  0.7816164E-02  0.1300439E+00
        -11   -1    0    0    0    0  0.00000000000E+00  0.00000000000E+00  0.45593999997E+02  0.45594000000E+02  0.51100000000E-03 0.  1.
         11   -1    0    0    0    0 -0.00000000000E+00 -0.00000000000E+00 -0.45593999997E+02  0.45594000000E+02  0.51100000000E-03 0. -1.
    9900012    2    1    2    0    0 -0.99034270071E+01  0.45174644425E+00  0.39432015820E+02  0.50528858187E+02  0.29999994947E+02 0.  0.
         12    1    1    2    0    0  0.99034270071E+01 -0.45174644425E+00 -0.39432015820E+02  0.40659141813E+02  0.00000000000E+00 0. -1.
         11    1    3    3    0    0 -0.94745583665E-01 -0.22971756560E+01 -0.34323883094E+01  0.41312567685E+01  0.51100000000E-03 0. -1.
        -11    1    3    3    0    0 -0.59472166316E+01  0.73276189714E+01  0.36319878297E+02  0.37525950291E+02  0.51100000000E-03 0.  1.
        -12    1    3    3    0    0 -0.38614647918E+01 -0.45786968711E+01  0.65445258319E+01  0.88716511282E+01  0.00000000000E+00 0.  1.
</event>
<event>
 7    1  0.2900470E-011  0.5052886E+02  0.7816164E-02  0.1300439E+00
        -11   -1    0    0    0    0  0.00000000000E+00  0.00000000000E+00  0.45593999997E+02  0.45594000000E+02  0.51100000000E-03 0.  1.
         11   -1    0    0    0    0 -0.00000000000E+00 -0.00000000000E+00 -0.45593999997E+02  0.45594000000E+02  0.51100000000E-03 0. -1.
    9900012    2    1    2    0    0  0.22276338553E+02  0.91568102259E+01  0.32757949992E+02  0.50528859324E+02  0.29999998402E+02 0.  0.
         12    1    1    2    0    0 -0.22276338553E+02 -0.91568102259E+01 -0.32757949992E+02  0.40659140676E+02  0.00000000000E+00 0. -1.
         11    1    3    3    0    0  0.96985502142E+01  0.20009324600E+01  0.25614953223E+01  0.10228727463E+02  0.51100000000E-03 0. -1.
        -11    1    3    3    0    0 -0.55263914693E+01 -0.25647615759E+01  0.79410221228E+01  0.10008937867E+02  0.51100000000E-03 0.  1.
         12    1    3    3    0    0  0.18104179808E+02  0.97206393418E+01  0.22255432547E+02  0.30291193994E+02  0.00000000000E+00 0. -1.
</event>
<event>
 7    1  0.2900470E-011  0.5052886E+02  0.7816164E-02  0.1300439E+00
        -11   -1    0    0    0    0  0.00000000000E+00  0.00000000000E+00  0.45593999997E+02  0.45594000000E+02  0.51100000000E-03 0.  1.
         11   -1    0    0    0    0 -0.00000000000E+00 -0.00000000000E+00 -0.45593999997E+02  0.45594000000E+02  0.51100000000E-03 0. -1.
    9900012    2    1    2    0    0 -0.23946386792E+02 -0.28139113784E+02  0.16968389925E+02  0.50528863000E+02  0.30000009574E+02 0.  0.
         12    1    1    2    0    0  0.23946386792E+02  0.28139113784E+02 -0.16968389925E+02  0.40659137000E+02  0.00000000000E+00 0. -1.
         11    1    3    3    0    0  0.40694893726E+01 -0.68208308582E+01  0.79302034275E+01  0.11223751780E+02  0.51100000000E-03 0.  1.
        -11    1    3    3    0    0 -0.11146954134E+02 -0.26306315437E+01 -0.23209140691E+01  0.11685951017E+02  0.51100000000E-03 0. -1.
         12    1    3    3    0    0 -0.16868922031E+02 -0.18687651382E+02  0.11359100567E+02  0.27619160203E+02  0.00000000000E+00 0. -1.
</event>
<event>
 7    1  0.2900470E-011  0.5052886E+02  0.7816164E-02  0.1300439E+00
        -11   -1    0    0    0    0  0.00000000000E+00  0.00000000000E+00  0.45593999997E+02  0.45594000000E+02  0.51100000000E-03 0.  1.
         11   -1    0    0    0    0 -0.00000000000E+00 -0.00000000000E+00 -0.45593999997E+02  0.45594000000E+02  0.51100000000E-03 0. -1.
    9900012    2    1    2    0    0  0.68333704349E+01 -0.98330923744E+01  0.38855905311E+02  0.50528855460E+02  0.29999986657E+02 0.  0.
         12    1    1    2    0    0 -0.68333704349E+01  0.98330923744E+01 -0.38855905311E+02  0.40659144540E+02  0.00000000000E+00 0. -1.
         11    1    3    3    0    0  0.29477994884E+01  0.46701464286E+01  0.96296588419E+01  0.11100906232E+02  0.51100000000E-03 0. -1.
        -11    1    3    3    0    0 -0.61822212505E+01 -0.15147073861E+02  0.18748078464E+02  0.24882607429E+02  0.51100000000E-03 0.  1.
        -12    1    3    3    0    0  0.10067792197E+02  0.64383505775E+00  0.10478168006E+02  0.14545341799E+02  0.00000000000E+00 0.  1.
</event>
<event>
 7    1  0.2900470E-011  0.5052886E+02  0.7816164E-02  0.1300439E+00
        -11   -1    0    0    0    0  0.00000000000E+00  0.00000000000E+00  0.45593999997E+02  0.45594000000E+02  0.51100000000E-03 0.  1.
         11   -1    0    0    0    0 -0.00000000000E+00 -0.00000000000E+00 -0.45593999997E+02  0.45594000000E+02  0.51100000000E-03 0. -1.
    9900012    2    1    2    0    0 -0.35556034739E+02 -0.19706785641E+02 -0.75937942295E+00  0.50528860021E+02  0.30000000521E+02 0.  0.
         12    1    1    2    0    0  0.35556034739E+02  0.19706785641E+02  0.75937942295E+00  0.40659139979E+02  0.00000000000E+00 0. -1.
         11    1    3    3    0    0 -0.18488691590E+01 -0.67275715139E+01 -0.84961237385E-01  0.69775177760E+01  0.51100000000E-03 0. -1.
        -11    1    3    3    0    0 -0.92799575060E+01  0.67792264571E+01 -0.34817913361E+01  0.12008263565E+02  0.51100000000E-03 0.  1.
        -12    1    3    3    0    0 -0.24427208074E+02 -0.19758440584E+02  0.28073731505E+01  0.31543078681E+02  0.00000000000E+00 0.  1.
</event>
<event>
 7    1  0.2900470E-011  0.5052884E+02  0.7816164E-02  0.1300439E+00
        -11   -1    0    0    0    0  0.00000000000E+00  0.00000000000E+00  0.45593999997E+02  0.45594000000E+02  0.51100000000E-03 0.  1.
         11   -1    0    0    0    0 -0.00000000000E+00 -0.00000000000E+00 -0.45593999997E+02  0.45594000000E+02  0.51100000000E-03 0. -1.
    9900012    2    1    2    0    0  0.25516873839E+02 -0.49839352851E+01  0.31260463563E+02  0.50528843053E+02  0.29999948943E+02 0.  0.
         12    1    1    2    0    0 -0.25516873839E+02  0.49839352851E+01 -0.31260463563E+02  0.40659156947E+02  0.00000000000E+00 0. -1.
         11    1    3    3    0    0  0.95450438062E+01  0.49928568195E+01  0.18371422461E+00  0.10773589544E+02  0.51100000000E-03 0. -1.
        -11    1    3    3    0    0  0.84409886634E+01 -0.38631970625E+01  0.28123029546E+02  0.29615525865E+02  0.51100000000E-03 0.  1.
        -12    1    3    3    0    0  0.75308413699E+01 -0.61135950420E+01  0.29537197930E+01  0.10139727644E+02  0.00000000000E+00 0.  1.
</event>
<event>
 7    1  0.2900470E-011  0.5052881E+02  0.7816164E-02  0.1300439E+00
        -11   -1    0    0    0    0  0.00000000000E+00  0.00000000000E+00  0.45593999997E+02  0.45594000000E+02  0.51100000000E-03 0.  1.
         11   -1    0    0    0    0 -0.00000000000E+00 -0.00000000000E+00 -0.45593999997E+02  0.45594000000E+02  0.51100000000E-03 0. -1.
    9900012    2    1    2    0    0  0.34622140464E+02 -0.20213548121E+02  0.67742152308E+01  0.50528805100E+02  0.29999833580E+02 0.  0.
         12    1    1    2    0    0 -0.34622140464E+02  0.20213548121E+02 -0.67742152308E+01  0.40659194900E+02  0.00000000000E+00 0. -1.
         11    1    3    3    0    0 -0.41224237159E+01 -0.66095069126E+01 -0.21574256087E+01  0.80829725002E+01  0.51100000000E-03 0. -1.
        -11    1    3    3    0    0  0.28253231780E+02 -0.12120064374E+02  0.82361212685E+01  0.31827264416E+02  0.51100000000E-03 0.  1.
         12    1    3    3    0    0  0.10491332400E+02 -0.14839768345E+01  0.69551957106E+00  0.10618568183E+02  0.00000000000E+00 0. -1.
</event>
<event>
 7    1  0.2900470E-011  0.5052886E+02  0.7816164E-02  0.1300439E+00
        -11   -1    0    0    0    0  0.00000000000E+00  0.00000000000E+00  0.45593999997E+02  0.45594000000E+02  0.51100000000E-03 0.  1.
         11   -1    0    0    0    0 -0.00000000000E+00 -0.00000000000E+00 -0.45593999997E+02  0.45594000000E+02  0.51100000000E-03 0. -1.
    9900012    2    1    2    0    0 -0.17169853666E+02 -0.17810047811E+02  0.32267070645E+02  0.50528861717E+02  0.30000005674E+02 0.  0.
         12    1    1    2    0    0  0.17169853666E+02  0.17810047811E+02 -0.32267070645E+02  0.40659138283E+02  0.00000000000E+00 0. -1.
         11    1    3    3    0    0 -0.14243058614E+02 -0.60788786571E+01  0.42306574290E+01  0.16053533784E+02  0.51100000000E-03 0. -1.
        -11    1    3    3    0    0  0.66017088114E+01 -0.35129097580E+01  0.10253919802E+02  0.12691176689E+02  0.51100000000E-03 0.  1.
        -12    1    3    3    0    0 -0.95285038638E+01 -0.82182593956E+01  0.17782493414E+02  0.21784151243E+02  0.00000000000E+00 0.  1.
</event>
<event>
 7    1  0.2900470E-011  0.5052886E+02  0.7816164E-02  0.1300439E+00
        -11   -1    0    0    0    0  0.00000000000E+00  0.00000000000E+00  0.45593999997E+02  0.45594000000E+02  0.51100000000E-03 0. -1.
         11   -1    0    0    0    0 -0.00000000000E+00 -0.00000000000E+00 -0.45593999997E+02  0.45594000000E+02  0.51100000000E-03 0.  1.
    9900012    2    1    2    0    0 -0.12465029702E+02 -0.44036343823E+01 -0.38449922968E+02  0.50528861575E+02  0.30000005244E+02 0.  0.
         12    1    1    2    0    0  0.12465029702E+02  0.44036343823E+01  0.38449922968E+02  0.40659138425E+02  0.00000000000E+00 0. -1.
         11    1    3    3    0    0 -0.17280145582E+01  0.17736469404E+01  0.30614635602E+01  0.39375648787E+01  0.51100000000E-03 0. -1.
        -11    1    3    3    0    0 -0.14404841139E+02 -0.84031412512E+01 -0.35314396857E+02  0.39054050453E+02  0.51100000000E-03 0.  1.
        -12    1    3    3    0    0  0.36678259957E+01  0.22258599285E+01 -0.61969896708E+01  0.75372462435E+01  0.00000000000E+00 0.  1.
</event>
<event>
 7    1  0.2900470E-011  0.5052886E+02  0.7816164E-02  0.1300439E+00
        -11   -1    0    0    0    0  0.00000000000E+00  0.00000000000E+00  0.45593999997E+02  0.45594000000E+02  0.51100000000E-03 0.  1.
         11   -1    0    0    0    0 -0.00000000000E+00 -0.00000000000E+00 -0.45593999997E+02  0.45594000000E+02  0.51100000000E-03 0. -1.
    9900012    2    1    2    0    0  0.20853806483E+02  0.14225349164E+02  0.31873556426E+02  0.50528863230E+02  0.30000010274E+02 0.  0.
         12    1    1    2    0    0 -0.20853806483E+02 -0.14225349164E+02 -0.31873556426E+02  0.40659136770E+02  0.00000000000E+00 0. -1.
         11    1    3    3    0    0  0.16241418085E+01 -0.81962123285E+01  0.92280374520E+01  0.12448791452E+02  0.51100000000E-03 0. -1.
        -11    1    3    3    0    0  0.17307376014E+02  0.22342543353E+02  0.22546610764E+02  0.36153618977E+02  0.51100000000E-03 0.  1.
        -12    1    3    3    0    0  0.19222886599E+01  0.79018139537E-01  0.98908209704E-01  0.19264528004E+01  0.00000000000E+00 0.  1.
</event>
<event>
 7    1  0.2900470E-011  0.5052886E+02  0.7816164E-02  0.1300439E+00
        -11   -1    0    0    0    0  0.00000000000E+00  0.00000000000E+00  0.45593999997E+02  0.45594000000E+02  0.51100000000E-03 0.  1.
         11   -1    0    0    0    0 -0.00000000000E+00 -0.00000000000E+00 -0.45593999997E+02  0.45594000000E+02  0.51100000000E-03 0. -1.
    9900012    2    1    2    0    0 -0.27619759533E+02 -0.26818812472E+02  0.13079224573E+02  0.50528856692E+02  0.29999990401E+02 0.  0.
         12    1    1    2    0    0  0.27619759533E+02  0.26818812472E+02 -0.13079224573E+02  0.40659143308E+02  0.00000000000E+00 0. -1.
         11    1    3    3    0    0 -0.89494121638E+01 -0.59895308900E+00  0.25152908174E+01  0.93154393905E+01  0.51100000000E-03 0. -1.
        -11    1    3    3    0    0 -0.29341848862E+01 -0.18715007426E+02 -0.29278025792E+01  0.19168541209E+02  0.51100000000E-03 0.  1.
        -12    1    3    3    0    0 -0.15736162483E+02 -0.75048519578E+01  0.13491736335E+02  0.22044876092E+02  0.00000000000E+00 0.  1.
</event>
<event>
 7    1  0.2900470E-011  0.5052885E+02  0.7816164E-02  0.1300439E+00
        -11   -1    0    0    0    0  0.00000000000E+00  0.00000000000E+00  0.45593999997E+02  0.45594000000E+02  0.51100000000E-03 0.  1.
         11   -1    0    0    0    0 -0.00000000000E+00 -0.00000000000E+00 -0.45593999997E+02  0.45594000000E+02  0.51100000000E-03 0. -1.
    9900012    2    1    2    0    0  0.31266199219E+02  0.55760548830E+01  0.25386985986E+02  0.50528847782E+02  0.29999963318E+02 0.  0.
         12    1    1    2    0    0 -0.31266199219E+02 -0.55760548830E+01 -0.25386985986E+02  0.40659152218E+02  0.00000000000E+00 0. -1.
         11    1    3    3    0    0  0.20187692736E+02  0.12876193062E+02  0.56983334358E+01  0.24613213728E+02  0.51100000000E-03 0. -1.
        -11    1    3    3    0    0  0.43105121920E+01  0.65073960109E+00  0.94600280582E+00  0.44608181935E+01  0.51100000000E-03 0.  1.
         12    1    3    3    0    0  0.67679942905E+01 -0.79508777804E+01  0.18742649744E+02  0.21454815861E+02  0.00000000000E+00 0. -1.
</event>
<event>
 7    1  0.2900470E-011  0.5052888E+02  0.7816164E-02  0.1300439E+00
        -11   -1    0    0    0    0  0.00000000000E+00  0.00000000000E+00  0.45593999997E+02  0.45594000000E+02  0.51100000000E-03 0.  1.
         11   -1    0    0    0    0 -0.00000000000E+00 -0.00000000000E+00 -0.45593999997E+02  0.45594000000E+02  0.51100000000E-03 0. -1.
    9900012    2    1    2    0    0 -0.13708855578E+02 -0.12103838707E+02  0.36314297008E+02  0.50528882942E+02  0.30000070192E+02 0.  0.
         12    1    1    2    0    0  0.13708855578E+02  0.12103838707E+02 -0.36314297008E+02  0.40659117058E+02  0.00000000000E+00 0. -1.
         11    1    3    3    0    0 -0.71194053850E+01 -0.11342300350E+01 -0.14322838451E+01  0.73500917057E+01  0.51100000000E-03 0. -1.
        -11    1    3    3    0    0 -0.10273641702E+02 -0.60862488747E+01  0.33926830009E+02  0.35966928336E+02  0.51100000000E-03 0.  1.
         12    1    3    3    0    0  0.36841915097E+01 -0.48833597974E+01  0.38197508445E+01  0.72118629012E+01  0.00000000000E+00 0. -1.
</event>
<event>
 7    1  0.2900470E-011  0.5052885E+02  0.7816164E-02  0.1300439E+00
        -11   -1    0    0    0    0  0.00000000000E+00  0.00000000000E+00  0.45593999997E+02  0.45594000000E+02  0.51100000000E-03 0.  1.
         11   -1    0    0    0    0 -0.00000000000E+00 -0.00000000000E+00 -0.45593999997E+02  0.45594000000E+02  0.51100000000E-03 0. -1.
    9900012    2    1    2    0    0  0.44992037771E+01  0.99197294437E+01  0.39172978397E+02  0.50528854616E+02  0.29999984090E+02 0.  0.
         12    1    1    2    0    0 -0.44992037771E+01 -0.99197294437E+01 -0.39172978397E+02  0.40659145384E+02  0.00000000000E+00 0. -1.
         11    1    3    3    0    0  0.33052250174E+01 -0.64497334441E+01  0.29048853883E+00  0.72531343409E+01  0.51100000000E-03 0. -1.
        -11    1    3    3    0    0  0.22697055388E+00  0.18436451557E+01  0.16312784312E+02  0.16418205608E+02  0.51100000000E-03 0.  1.
         12    1    3    3    0    0  0.96700820578E+00  0.14525817732E+02  0.22569705546E+02  0.26857514667E+02  0.00000000000E+00 0. -1.
</event>
<event>
 7    1  0.2900470E-011  0.5052887E+02  0.7816164E-02  0.1300439E+00
        -11   -1    0    0    0    0  0.00000000000E+00  0.00000000000E+00  0.45593999997E+02  0.45594000000E+02  0.51100000000E-03 0.  1.
         11   -1    0    0    0    0 -0.00000000000E+00 -0.00000000000E+00 -0.45593999997E+02  0.45594000000E+02  0.51100000000E-03 0. -1.
    9900012    2    1    2    0    0 -0.26746855349E+02 -0.30380893779E+02 -0.38434522928E+01  0.50528866913E+02  0.30000021469E+02 0.  0.
         12    1    1    2    0    0  0.26746855349E+02  0.30380893779E+02  0.38434522928E+01  0.40659133087E+02  0.00000000000E+00 0. -1.
         11    1    3    3    0    0 -0.16393288332E+02 -0.10149554620E+02  0.27685004139E+01  0.19478653858E+02  0.51100000000E-03 0. -1.
        -11    1    3    3    0    0  0.31719904414E+01 -0.15359905628E+02 -0.55420539576E+01  0.16634379658E+02  0.51100000000E-03 0.  1.
        -12    1    3    3    0    0 -0.13525557458E+02 -0.48714335311E+01 -0.10698987491E+01  0.14415833397E+02  0.00000000000E+00 0.  1.
</event>
<event>
 7    1  0.2900470E-011  0.5052885E+02  0.7816164E-02  0.1300439E+00
        -11   -1    0    0    0    0  0.00000000000E+00  0.00000000000E+00  0.45593999997E+02  0.45594000000E+02  0.51100000000E-03 0. -1.
         11   -1    0    0    0    0 -0.00000000000E+00 -0.00000000000E+00 -0.45593999997E+02  0.45594000000E+02  0.51100000000E-03 0.  1.
    9900012    2    1    2    0    0 -0.39841611807E+02 -0.56835424127E+01 -0.57887436628E+01  0.50528852949E+02  0.29999979023E+02 0.  0.
         12    1    1    2    0    0  0.39841611807E+02  0.56835424127E+01  0.57887436628E+01  0.40659147051E+02  0.00000000000E+00 0. -1.
         11    1    3    3    0    0 -0.31737775567E+02 -0.77795473276E+01 -0.13848928357E+02  0.35490851941E+02  0.51100000000E-03 0.  1.
        -11    1    3    3    0    0 -0.86838672012E+01  0.47925454902E+01  0.66364409853E+01  0.11934001469E+02  0.51100000000E-03 0. -1.
        -12    1    3    3    0    0  0.58003096122E+00 -0.26965405754E+01  0.14237437088E+01  0.31039995392E+01  0.00000000000E+00 0.  1.
</event>
<event>
 7    1  0.2900470E-011  0.5052887E+02  0.7816164E-02  0.1300439E+00
        -11   -1    0    0    0    0  0.00000000000E+00  0.00000000000E+00  0.45593999997E+02  0.45594000000E+02  0.51100000000E-03 0. -1.
         11   -1    0    0    0    0 -0.00000000000E+00 -0.00000000000E+00 -0.45593999997E+02  0.45594000000E+02  0.51100000000E-03 0.  1.
    9900012    2    1    2    0    0 -0.28463692226E+02 -0.27575263596E+02 -0.90877960030E+01  0.50528868507E+02  0.30000026315E+02 0.  0.
         12    1    1    2    0    0  0.28463692226E+02  0.27575263596E+02  0.90877960030E+01  0.40659131493E+02  0.00000000000E+00 0. -1.
         11    1    3    3    0    0 -0.14098845085E+02  0.27132602637E+01 -0.37207375913E+01  0.14831827348E+02  0.51100000000E-03 0. -1.
        -11    1    3    3    0    0 -0.16194947656E+02 -0.28027152897E+02 -0.51836839656E+01  0.32782132463E+02  0.51100000000E-03 0.  1.
         12    1    3    3    0    0  0.18301005146E+01 -0.22613709622E+01 -0.18337444610E+00  0.29149086966E+01  0.00000000000E+00 0. -1.
</event>
<event>
 7    1  0.2900470E-011  0.5052885E+02  0.7816164E-02  0.1300439E+00
        -11   -1    0    0    0    0  0.00000000000E+00  0.00000000000E+00  0.45593999997E+02  0.45594000000E+02  0.51100000000E-03 0.  1.
         11   -1    0    0    0    0 -0.00000000000E+00 -0.00000000000E+00 -0.45593999997E+02  0.45594000000E+02  0.51100000000E-03 0. -1.
    9900012    2    1    2    0    0  0.19559369764E+02  0.32275727908E+01  0.35499019395E+02  0.50528849127E+02  0.29999967408E+02 0.  0.
         12    1    1    2    0    0 -0.19559369764E+02 -0.32275727908E+01 -0.35499019395E+02  0.40659150873E+02  0.00000000000E+00 0. -1.
         11    1    3    3    0    0  0.12802538437E+02  0.13456625093E+02  0.21540015760E+02  0.28442187478E+02  0.51100000000E-03 0. -1.
        -11    1    3    3    0    0  0.55284096145E+01 -0.12051137549E+02  0.74318700471E+01  0.15199536893E+02  0.51100000000E-03 0.  1.
        -12    1    3    3    0    0  0.12284217126E+01  0.18220852473E+01  0.65271335873E+01  0.68871247570E+01  0.00000000000E+00 0.  1.
</event>
<event>
 7    1  0.2900470E-011  0.5052886E+02  0.7816164E-02  0.1300439E+00
        -11   -1    0    0    0    0  0.00000000000E+00  0.00000000000E+00  0.45593999997E+02  0.45594000000E+02  0.51100000000E-03 0.  1.
         11   -1    0    0    0    0 -0.00000000000E+00 -0.00000000000E+00 -0.45593999997E+02  0.45594000000E+02  0.51100000000E-03 0. -1.
    9900012    2    1    2    0    0  0.24994163112E+01  0.13326176945E+02  0.38331860662E+02  0.50528860613E+02  0.30000002320E+02 0.  0.
         12    1    1    2    0    0 -0.24994163112E+01 -0.13326176945E+02 -0.38331860662E+02  0.40659139387E+02  0.00000000000E+00 0. -1.
         11    1    3    3    0    0 -0.22067588648E+01  0.57011838447E+00  0.33703093217E+02  0.33780072710E+02  0.51100000000E-03 0. -1.
        -11    1    3    3    0    0  0.66613259495E+01  0.66241213456E+01  0.12420408794E+01  0.94760177720E+01  0.51100000000E-03 0.  1.
        -12    1    3    3    0    0 -0.19551507736E+01  0.61319372147E+01  0.33867265660E+01  0.72727701315E+01  0.00000000000E+00 0.  1.
</event>
<event>
 7    1  0.2900470E-011  0.5052886E+02  0.7816164E-02  0.1300439E+00
        -11   -1    0    0    0    0  0.00000000000E+00  0.00000000000E+00  0.45593999997E+02  0.45594000000E+02  0.51100000000E-03 0.  1.
         11   -1    0    0    0    0 -0.00000000000E+00 -0.00000000000E+00 -0.45593999997E+02  0.45594000000E+02  0.51100000000E-03 0. -1.
    9900012    2    1    2    0    0  0.16626311005E+02 -0.18277683017E+02  0.32290210236E+02  0.50528860914E+02  0.30000003235E+02 0.  0.
         12    1    1    2    0    0 -0.16626311005E+02  0.18277683017E+02 -0.32290210236E+02  0.40659139086E+02  0.00000000000E+00 0. -1.
         11    1    3    3    0    0  0.78362787507E+01  0.76335518410E+00  0.10105389038E+02  0.12810498182E+02  0.51100000000E-03 0. -1.
        -11    1    3    3    0    0 -0.50649628371E+01 -0.82025935156E+01  0.30632250326E+00  0.96452176056E+01  0.51100000000E-03 0.  1.
        -12    1    3    3    0    0  0.13854995092E+02 -0.10838444686E+02  0.21878498694E+02  0.28073145127E+02  0.00000000000E+00 0.  1.
</event>
<event>
 7    1  0.2900470E-011  0.5052886E+02  0.7816164E-02  0.1300439E+00
        -11   -1    0    0    0    0  0.00000000000E+00  0.00000000000E+00  0.45593999997E+02  0.45594000000E+02  0.51100000000E-03 0.  1.
         11   -1    0    0    0    0 -0.00000000000E+00 -0.00000000000E+00 -0.45593999997E+02  0.45594000000E+02  0.51100000000E-03 0. -1.
    9900012    2    1    2    0    0  0.24314764673E+02 -0.33595065410E+01 -0.32414068434E+02  0.50528857144E+02  0.29999991775E+02 0.  0.
         12    1    1    2    0    0 -0.24314764673E+02  0.33595065410E+01  0.32414068434E+02  0.40659142856E+02  0.00000000000E+00 0. -1.
         11    1    3    3    0    0  0.16173998712E+02  0.93029458573E+01 -0.19866793917E+02  0.27254954352E+02  0.51100000000E-03 0. -1.
        -11    1    3    3    0    0  0.11361994802E+02 -0.11235443651E+02 -0.11145574121E+02  0.19482144201E+02  0.51100000000E-03 0.  1.
        -12    1    3    3    0    0 -0.32212288409E+01 -0.14270087471E+01 -0.14017003966E+01  0.37917585910E+01  0.00000000000E+00 0.  1.
</event>
<event>
 7    1  0.2900470E-011  0.5052886E+02  0.7816164E-02  0.1300439E+00
        -11   -1    0    0    0    0  0.00000000000E+00  0.00000000000E+00  0.45593999997E+02  0.45594000000E+02  0.51100000000E-03 0.  1.
         11   -1    0    0    0    0 -0.00000000000E+00 -0.00000000000E+00 -0.45593999997E+02  0.45594000000E+02  0.51100000000E-03 0. -1.
    9900012    2    1    2    0    0 -0.26647964367E+02 -0.15677921606E+02  0.26405576510E+02  0.50528859556E+02  0.29999999108E+02 0.  0.
         12    1    1    2    0    0  0.26647964367E+02  0.15677921606E+02 -0.26405576510E+02  0.40659140444E+02  0.00000000000E+00 0. -1.
         11    1    3    3    0    0 -0.43791127431E+00  0.62857486438E+00 -0.11473157375E+01  0.13795674347E+01  0.51100000000E-03 0. -1.
        -11    1    3    3    0    0 -0.27481510302E+02 -0.10651844150E+02  0.10746645021E+02  0.31371732048E+02  0.51100000000E-03 0.  1.
        -12    1    3    3    0    0  0.12714572094E+01 -0.56546523205E+01  0.16806247227E+02  0.17777560073E+02  0.00000000000E+00 0.  1.
</event>
<event>
 7    1  0.2900470E-011  0.5052885E+02  0.7816164E-02  0.1300439E+00
        -11   -1    0    0    0    0  0.00000000000E+00  0.00000000000E+00  0.45593999997E+02  0.45594000000E+02  0.51100000000E-03 0.  1.
         11   -1    0    0    0    0 -0.00000000000E+00 -0.00000000000E+00 -0.45593999997E+02  0.45594000000E+02  0.51100000000E-03 0. -1.
    9900012    2    1    2    0    0 -0.23357268257E+02  0.13577230057E+02  0.30385243414E+02  0.50528853750E+02  0.29999981459E+02 0.  0.
         12    1    1    2    0    0  0.23357268257E+02 -0.13577230057E+02 -0.30385243414E+02  0.40659146250E+02  0.00000000000E+00 0. -1.
         11    1    3    3    0    0 -0.16768742411E+02  0.61127963397E+01  0.20795829239E+02  0.27404808248E+02  0.51100000000E-03 0.  1.
        -11    1    3    3    0    0 -0.27645700864E+00  0.12631255811E+02  0.40644136342E+01  0.13271944481E+02  0.51100000000E-03 0. -1.
         12    1    3    3    0    0 -0.63120688376E+01 -0.51668220935E+01  0.55250005408E+01  0.98521010212E+01  0.00000000000E+00 0. -1.
</event>
<event>
 7    1  0.2900470E-011  0.5052887E+02  0.7816164E-02  0.1300439E+00
        -11   -1    0    0    0    0  0.00000000000E+00  0.00000000000E+00  0.45593999997E+02  0.45594000000E+02  0.51100000000E-03 0.  1.
         11   -1    0    0    0    0 -0.00000000000E+00 -0.00000000000E+00 -0.45593999997E+02  0.45594000000E+02  0.51100000000E-03 0. -1.
    9900012    2    1    2    0    0 -0.37589123156E+02  0.13927214307E+02  0.68011293621E+01  0.50528870169E+02  0.30000031365E+02 0.  0.
         12    1    1    2    0    0  0.37589123156E+02 -0.13927214307E+02 -0.68011293621E+01  0.40659129831E+02  0.00000000000E+00 0. -1.
         11    1    3    3    0    0 -0.37682520472E+01 -0.56237872478E+01  0.22294873818E+01  0.71272239159E+01  0.51100000000E-03 0. -1.
        -11    1    3    3    0    0 -0.10325083150E+02  0.16499575882E+02  0.23247227560E+01  0.19602236671E+02  0.51100000000E-03 0.  1.
        -12    1    3    3    0    0 -0.23495787959E+02  0.30514256730E+01  0.22469192243E+01  0.23799409582E+02  0.00000000000E+00 0.  1.
</event>
<event>
 7    1  0.2900470E-011  0.5052886E+02  0.7816164E-02  0.1300439E+00
        -11   -1    0    0    0    0  0.00000000000E+00  0.00000000000E+00  0.45593999997E+02  0.45594000000E+02  0.51100000000E-03 0.  1.
         11   -1    0    0    0    0 -0.00000000000E+00 -0.00000000000E+00 -0.45593999997E+02  0.45594000000E+02  0.51100000000E-03 0. -1.
    9900012    2    1    2    0    0 -0.16904046673E+02 -0.22765884468E+02  0.29139897626E+02  0.50528856832E+02  0.29999990825E+02 0.  0.
         12    1    1    2    0    0  0.16904046673E+02  0.22765884468E+02 -0.29139897626E+02  0.40659143168E+02  0.00000000000E+00 0. -1.
         11    1    3    3    0    0 -0.11713326908E+02 -0.22348226967E+02  0.64472375421E+01  0.26042506562E+02  0.51100000000E-03 0. -1.
        -11    1    3    3    0    0  0.18701726978E+00 -0.30737923357E+01  0.96771369562E+01  0.10155301803E+02  0.51100000000E-03 0.  1.
         12    1    3    3    0    0 -0.53777370348E+01  0.26561348346E+01  0.13015523128E+02  0.14331048467E+02  0.00000000000E+00 0. -1.
</event>
<event>
 7    1  0.2900470E-011  0.5052886E+02  0.7816164E-02  0.1300439E+00
        -11   -1    0    0    0    0  0.00000000000E+00  0.00000000000E+00  0.45593999997E+02  0.45594000000E+02  0.51100000000E-03 0.  1.
         11   -1    0    0    0    0 -0.00000000000E+00 -0.00000000000E+00 -0.45593999997E+02  0.45594000000E+02  0.51100000000E-03 0. -1.
    9900012    2    1    2    0    0 -0.19457742812E+02  0.10515973907E+02  0.34117091646E+02  0.50528863205E+02  0.30000010197E+02 0.  0.
         12    1    1    2    0    0  0.19457742812E+02 -0.10515973907E+02 -0.34117091646E+02  0.40659136795E+02  0.00000000000E+00 0. -1.
         11    1    3    3    0    0 -0.34679385419E+01  0.21548178512E+01  0.12183908857E+00  0.40846888164E+01  0.51100000000E-03 0. -1.
        -11    1    3    3    0    0  0.43181777264E+01  0.82160614597E+01  0.19174236118E+02  0.21302620866E+02  0.51100000000E-03 0.  1.
        -12    1    3    3    0    0 -0.20307981997E+02  0.14509459657E+00  0.14821016439E+02  0.25141553523E+02  0.00000000000E+00 0.  1.
</event>
<event>
 7    1  0.2900470E-011  0.5052885E+02  0.7816164E-02  0.1300439E+00
        -11   -1    0    0    0    0  0.00000000000E+00  0.00000000000E+00  0.45593999997E+02  0.45594000000E+02  0.51100000000E-03 0.  1.
         11   -1    0    0    0    0 -0.00000000000E+00 -0.00000000000E+00 -0.45593999997E+02  0.45594000000E+02  0.51100000000E-03 0. -1.
    9900012    2    1    2    0    0 -0.35387536502E+02  0.10540769568E+02  0.17022958842E+02  0.50528847396E+02  0.29999962144E+02 0.  0.
         12    1    1    2    0    0  0.35387536502E+02 -0.10540769568E+02 -0.17022958842E+02  0.40659152604E+02  0.00000000000E+00 0. -1.
         11    1    3    3    0    0 -0.23776370747E+02  0.18390223329E+02  0.34885740203E+01  0.30260308474E+02  0.51100000000E-03 0. -1.
        -11    1    3    3    0    0 -0.87391198945E+01 -0.32766644090E+01  0.10598151579E+02  0.14121953241E+02  0.51100000000E-03 0.  1.
         12    1    3    3    0    0 -0.28720458598E+01 -0.45727893518E+01  0.29362332432E+01  0.61465856811E+01  0.00000000000E+00 0. -1.
</event>
<event>
 7    1  0.2900470E-011  0.5052886E+02  0.7816164E-02  0.1300439E+00
        -11   -1    0    0    0    0  0.00000000000E+00  0.00000000000E+00  0.45593999997E+02  0.45594000000E+02  0.51100000000E-03 0. -1.
         11   -1    0    0    0    0 -0.00000000000E+00 -0.00000000000E+00 -0.45593999997E+02  0.45594000000E+02  0.51100000000E-03 0.  1.
    9900012    2    1    2    0    0 -0.60193015640E+01  0.20297466643E+02 -0.34712340029E+02  0.50528859653E+02  0.29999999403E+02 0.  0.
         12    1    1    2    0    0  0.60193015640E+01 -0.20297466643E+02  0.34712340029E+02  0.40659140347E+02  0.00000000000E+00 0. -1.
         11    1    3    3    0    0 -0.15581578303E+02  0.61379995917E+01 -0.92963955907E+01  0.19154205612E+02  0.51100000000E-03 0. -1.
        -11    1    3    3    0    0  0.47154062240E+00  0.64523059569E+01 -0.93867079254E+01  0.11400214413E+02  0.51100000000E-03 0.  1.
         12    1    3    3    0    0  0.90907361167E+01  0.77071610942E+01 -0.16029236513E+02  0.19974439628E+02  0.00000000000E+00 0. -1.
</event>
<event>
 7    1  0.2900470E-011  0.5052886E+02  0.7816164E-02  0.1300439E+00
        -11   -1    0    0    0    0  0.00000000000E+00  0.00000000000E+00  0.45593999997E+02  0.45594000000E+02  0.51100000000E-03 0.  1.
         11   -1    0    0    0    0 -0.00000000000E+00 -0.00000000000E+00 -0.45593999997E+02  0.45594000000E+02  0.51100000000E-03 0. -1.
    9900012    2    1    2    0    0 -0.15160341784E+02  0.36756683338E+02  0.85015252861E+01  0.50528860004E+02  0.30000000468E+02 0.  0.
         12    1    1    2    0    0  0.15160341784E+02 -0.36756683338E+02 -0.85015252861E+01  0.40659139996E+02  0.00000000000E+00 0. -1.
         11    1    3    3    0    0 -0.43200039757E+01  0.13109082998E+02 -0.10179076357E+02  0.17150046273E+02  0.51100000000E-03 0. -1.
        -11    1    3    3    0    0 -0.81301011142E+01  0.10915107325E+02  0.14052093448E+02  0.19562705400E+02  0.51100000000E-03 0.  1.
         12    1    3    3    0    0 -0.27102366938E+01  0.12732493015E+02  0.46285081948E+01  0.13816108331E+02  0.00000000000E+00 0. -1.
</event>
<event>
 7    1  0.2900470E-011  0.5052885E+02  0.7816164E-02  0.1300439E+00
        -11   -1    0    0    0    0  0.00000000000E+00  0.00000000000E+00  0.45593999997E+02  0.45594000000E+02  0.51100000000E-03 0.  1.
         11   -1    0    0    0    0 -0.00000000000E+00 -0.00000000000E+00 -0.45593999997E+02  0.45594000000E+02  0.51100000000E-03 0. -1.
    9900012    2    1    2    0    0  0.34687075914E+02 -0.76906911140E+01 -0.19769338843E+02  0.50528846989E+02  0.29999960907E+02 0.  0.
         12    1    1    2    0    0 -0.34687075914E+02  0.76906911140E+01  0.19769338843E+02  0.40659153011E+02  0.00000000000E+00 0. -1.
         11    1    3    3    0    0  0.57306607109E+01  0.46550363058E+01 -0.15715383673E+02  0.17363269261E+02  0.51100000000E-03 0. -1.
        -11    1    3    3    0    0  0.12693278240E+02 -0.55126918729E+00 -0.29632116253E+01  0.13046219130E+02  0.51100000000E-03 0.  1.
         12    1    3    3    0    0  0.16263136963E+02 -0.11794458233E+02 -0.10907435451E+01  0.20119358597E+02  0.00000000000E+00 0. -1.
</event>
<event>
 7    1  0.2900470E-011  0.5052887E+02  0.7816164E-02  0.1300439E+00
        -11   -1    0    0    0    0  0.00000000000E+00  0.00000000000E+00  0.45593999997E+02  0.45594000000E+02  0.51100000000E-03 0.  1.
         11   -1    0    0    0    0 -0.00000000000E+00 -0.00000000000E+00 -0.45593999997E+02  0.45594000000E+02  0.51100000000E-03 0. -1.
    9900012    2    1    2    0    0 -0.31397899221E+02  0.17732404998E+02  0.18785591769E+02  0.50528871620E+02  0.30000035775E+02 0.  0.
         12    1    1    2    0    0  0.31397899221E+02 -0.17732404998E+02 -0.18785591769E+02  0.40659128380E+02  0.00000000000E+00 0. -1.
         11    1    3    3    0    0 -0.16662986378E+01  0.88516744932E+01  0.13652265982E+02  0.16355826460E+02  0.51100000000E-03 0. -1.
        -11    1    3    3    0    0 -0.14701134128E+02 -0.22563144285E+01  0.41449268443E+01  0.15440036213E+02  0.51100000000E-03 0.  1.
         12    1    3    3    0    0 -0.15030466455E+02  0.11137044934E+02  0.98839894256E+00  0.18733008946E+02  0.00000000000E+00 0. -1.
</event>
<event>
 7    1  0.2900470E-011  0.5052886E+02  0.7816164E-02  0.1300439E+00
        -11   -1    0    0    0    0  0.00000000000E+00  0.00000000000E+00  0.45593999997E+02  0.45594000000E+02  0.51100000000E-03 0.  1.
         11   -1    0    0    0    0 -0.00000000000E+00 -0.00000000000E+00 -0.45593999997E+02  0.45594000000E+02  0.51100000000E-03 0. -1.
    9900012    2    1    2    0    0  0.84280921276E+01 -0.39406551993E+02 -0.54088984137E+01  0.50528865000E+02  0.30000015653E+02 0.  0.
         12    1    1    2    0    0 -0.84280921276E+01  0.39406551993E+02  0.54088984137E+01  0.40659135000E+02  0.00000000000E+00 0. -1.
         11    1    3    3    0    0  0.44812527467E+00 -0.16985169249E+02  0.10007653818E+02  0.19719278026E+02  0.51100000000E-03 0. -1.
        -11    1    3    3    0    0  0.86311487366E+01 -0.12407465416E+02 -0.40508312662E+01  0.15647720625E+02  0.51100000000E-03 0.  1.
         12    1    3    3    0    0 -0.65118188364E+00 -0.10013917328E+02 -0.11365720965E+02  0.15161866348E+02  0.00000000000E+00 0. -1.
</event>
<event>
 7    1  0.2900470E-011  0.5052886E+02  0.7816164E-02  0.1300439E+00
        -11   -1    0    0    0    0  0.00000000000E+00  0.00000000000E+00  0.45593999997E+02  0.45594000000E+02  0.51100000000E-03 0. -1.
         11   -1    0    0    0    0 -0.00000000000E+00 -0.00000000000E+00 -0.45593999997E+02  0.45594000000E+02  0.51100000000E-03 0.  1.
    9900012    2    1    2    0    0 -0.21282720136E+02 -0.34567210635E+02 -0.23063907632E+01  0.50528859996E+02  0.30000000445E+02 0.  0.
         12    1    1    2    0    0  0.21282720136E+02  0.34567210635E+02  0.23063907632E+01  0.40659140004E+02  0.00000000000E+00 0. -1.
         11    1    3    3    0    0 -0.93983912289E+01 -0.22750516326E+02  0.35160291293E+01  0.24865200822E+02  0.51100000000E-03 0. -1.
        -11    1    3    3    0    0 -0.11538037683E+02 -0.80145980360E+01 -0.11950353731E+02  0.18443726570E+02  0.51100000000E-03 0.  1.
         12    1    3    3    0    0 -0.34629122441E+00 -0.38020962728E+01  0.61279338387E+01  0.72199326043E+01  0.00000000000E+00 0. -1.
</event>
<event>
 7    1  0.2900470E-011  0.5052886E+02  0.7816164E-02  0.1300439E+00
        -11   -1    0    0    0    0  0.00000000000E+00  0.00000000000E+00  0.45593999997E+02  0.45594000000E+02  0.51100000000E-03 0.  1.
         11   -1    0    0    0    0 -0.00000000000E+00 -0.00000000000E+00 -0.45593999997E+02  0.45594000000E+02  0.51100000000E-03 0. -1.
    9900012    2    1    2    0    0  0.70770523334E+01 -0.13725744320E+02  0.37612298531E+02  0.50528859236E+02  0.29999998133E+02 0.  0.
         12    1    1    2    0    0 -0.70770523334E+01  0.13725744320E+02 -0.37612298531E+02  0.40659140764E+02  0.00000000000E+00 0. -1.
         11    1    3    3    0    0  0.10521135281E+02 -0.45721920364E+01  0.96047249972E+01  0.14961616562E+02  0.51100000000E-03 0. -1.
        -11    1    3    3    0    0 -0.98236118927E+01 -0.58923598329E+01  0.25536814820E+02  0.27988429153E+02  0.51100000000E-03 0.  1.
        -12    1    3    3    0    0  0.63795289449E+01 -0.32611924510E+01  0.24707587138E+01  0.75788135208E+01  0.00000000000E+00 0.  1.
</event>
<event>
 7    1  0.2900470E-011  0.5052886E+02  0.7816164E-02  0.1300439E+00
        -11   -1    0    0    0    0  0.00000000000E+00  0.00000000000E+00  0.45593999997E+02  0.45594000000E+02  0.51100000000E-03 0.  1.
         11   -1    0    0    0    0 -0.00000000000E+00 -0.00000000000E+00 -0.45593999997E+02  0.45594000000E+02  0.51100000000E-03 0. -1.
    9900012    2    1    2    0    0 -0.36397716454E+02 -0.17853021086E+02  0.31050562206E+01  0.50528862046E+02  0.30000006676E+02 0.  0.
         12    1    1    2    0    0  0.36397716454E+02  0.17853021086E+02 -0.31050562206E+01  0.40659137954E+02  0.00000000000E+00 0. -1.
         11    1    3    3    0    0 -0.13488298816E+02 -0.22289021453E+01 -0.98274693240E+01  0.16836904802E+02  0.51100000000E-03 0.  1.
        -11    1    3    3    0    0 -0.43009781934E+01  0.17439039639E+01  0.54547694417E+01  0.71619916488E+01  0.51100000000E-03 0. -1.
         12    1    3    3    0    0 -0.18608439445E+02 -0.17368022904E+02  0.74777561029E+01  0.26529965596E+02  0.00000000000E+00 0. -1.
</event>
<event>
 7    1  0.2900470E-011  0.5052889E+02  0.7816164E-02  0.1300439E+00
        -11   -1    0    0    0    0  0.00000000000E+00  0.00000000000E+00  0.45593999997E+02  0.45594000000E+02  0.51100000000E-03 0. -1.
         11   -1    0    0    0    0 -0.00000000000E+00 -0.00000000000E+00 -0.45593999997E+02  0.45594000000E+02  0.51100000000E-03 0.  1.
    9900012    2    1    2    0    0 -0.76669635046E+01 -0.24097529084E+02 -0.31838494057E+02  0.50528893503E+02  0.30000102290E+02 0.  0.
         12    1    1    2    0    0  0.76669635046E+01  0.24097529084E+02  0.31838494057E+02  0.40659106497E+02  0.00000000000E+00 0. -1.
         11    1    3    3    0    0 -0.91567894174E+00  0.32474762552E+01 -0.43390606242E+00  0.34018883997E+01  0.51100000000E-03 0. -1.
        -11    1    3    3    0    0 -0.91064887413E+01 -0.24757492693E+02 -0.33808329963E+02  0.42881986390E+02  0.51100000000E-03 0.  1.
        -12    1    3    3    0    0  0.23552041784E+01 -0.25875126465E+01  0.24037419684E+01  0.42450187124E+01  0.00000000000E+00 0.  1.
</event>
<event>
 7    1  0.2900470E-011  0.5052885E+02  0.7816164E-02  0.1300439E+00
        -11   -1    0    0    0    0  0.00000000000E+00  0.00000000000E+00  0.45593999997E+02  0.45594000000E+02  0.51100000000E-03 0. -1.
         11   -1    0    0    0    0 -0.00000000000E+00 -0.00000000000E+00 -0.45593999997E+02  0.45594000000E+02  0.51100000000E-03 0.  1.
    9900012    2    1    2    0    0  0.47691687527E+01  0.19611434246E+02 -0.35296079768E+02  0.50528848868E+02  0.29999966619E+02 0.  0.
         12    1    1    2    0    0 -0.47691687527E+01 -0.19611434246E+02  0.35296079768E+02  0.40659151132E+02  0.00000000000E+00 0. -1.
         11    1    3    3    0    0 -0.43436625131E+01 -0.49569371217E+01 -0.21430852733E+01  0.69304721633E+01  0.51100000000E-03 0. -1.
        -11    1    3    3    0    0  0.45337597511E+01  0.17694296714E+02 -0.14931259100E+02  0.23592066723E+02  0.51100000000E-03 0.  1.
         12    1    3    3    0    0  0.45790715146E+01  0.68740746528E+01 -0.18221735395E+02  0.20006309981E+02  0.00000000000E+00 0. -1.
</event>
<event>
 7    1  0.2900470E-011  0.5052886E+02  0.7816164E-02  0.1300439E+00
        -11   -1    0    0    0    0  0.00000000000E+00  0.00000000000E+00  0.45593999997E+02  0.45594000000E+02  0.51100000000E-03 0. -1.
         11   -1    0    0    0    0 -0.00000000000E+00 -0.00000000000E+00 -0.45593999997E+02  0.45594000000E+02  0.51100000000E-03 0.  1.
    9900012    2    1    2    0    0  0.25137142737E+02  0.58796455654E+01 -0.31412094791E+02  0.50528857410E+02  0.29999992583E+02 0.  0.
         12    1    1    2    0    0 -0.25137142737E+02 -0.58796455654E+01  0.31412094791E+02  0.40659142590E+02  0.00000000000E+00 0. -1.
         11    1    3    3    0    0  0.67572127182E+01 -0.84550726405E+01 -0.46261282091E+01  0.11770694098E+02  0.51100000000E-03 0. -1.
        -11    1    3    3    0    0  0.20368618878E+02  0.14564079770E+02 -0.26903159251E+02  0.36752864276E+02  0.51100000000E-03 0.  1.
         12    1    3    3    0    0 -0.19886888586E+01 -0.22936156374E+00  0.11719266871E+00  0.20052990362E+01  0.00000000000E+00 0. -1.
</event>
<event>
 7    1  0.2900470E-011  0.5052886E+02  0.7816164E-02  0.1300439E+00
        -11   -1    0    0    0    0  0.00000000000E+00  0.00000000000E+00  0.45593999997E+02  0.45594000000E+02  0.51100000000E-03 0.  1.
         11   -1    0    0    0    0 -0.00000000000E+00 -0.00000000000E+00 -0.45593999997E+02  0.45594000000E+02  0.51100000000E-03 0. -1.
    9900012    2    1    2    0    0  0.31273801417E+02  0.17409188978E+02  0.19288209458E+02  0.50528861543E+02  0.30000005147E+02 0.  0.
         12    1    1    2    0    0 -0.31273801417E+02 -0.17409188978E+02 -0.19288209458E+02  0.40659138457E+02  0.00000000000E+00 0. -1.
         11    1    3    3    0    0  0.12672205980E+01 -0.35362196226E+01 -0.36559201190E+00  0.37741694509E+01  0.51100000000E-03 0. -1.
        -11    1    3    3    0    0  0.24835780857E+02  0.23719544781E+02  0.10555832553E+02  0.35928518151E+02  0.51100000000E-03 0.  1.
        -12    1    3    3    0    0  0.51707999619E+01 -0.27741361800E+01  0.90979689174E+01  0.10826173942E+02  0.00000000000E+00 0.  1.
</event>
<event>
 7    1  0.2900470E-011  0.5052886E+02  0.7816164E-02  0.1300439E+00
        -11   -1    0    0    0    0  0.00000000000E+00  0.00000000000E+00  0.45593999997E+02  0.45594000000E+02  0.51100000000E-03 0. -1.
         11   -1    0    0    0    0 -0.00000000000E+00 -0.00000000000E+00 -0.45593999997E+02  0.45594000000E+02  0.51100000000E-03 0.  1.
    9900012    2    1    2    0    0 -0.80632007234E+01 -0.17896734513E+02 -0.35606981833E+02  0.50528862437E+02  0.30000007863E+02 0.  0.
         12    1    1    2    0    0  0.80632007234E+01  0.17896734513E+02  0.35606981833E+02  0.40659137563E+02  0.00000000000E+00 0. -1.
         11    1    3    3    0    0 -0.13627933314E+01 -0.11214783970E+02 -0.47230713109E+01  0.12244835157E+02  0.51100000000E-03 0. -1.
        -11    1    3    3    0    0  0.52486943462E+01  0.39978679609E+01 -0.89713194265E+01  0.11136261181E+02  0.51100000000E-03 0.  1.
        -12    1    3    3    0    0 -0.11949101738E+02 -0.10679818504E+02 -0.21912591096E+02  0.27147766099E+02  0.00000000000E+00 0.  1.
</event>
<event>
 7    1  0.2900470E-011  0.5052886E+02  0.7816164E-02  0.1300439E+00
        -11   -1    0    0    0    0  0.00000000000E+00  0.00000000000E+00  0.45593999997E+02  0.45594000000E+02  0.51100000000E-03 0. -1.
         11   -1    0    0    0    0 -0.00000000000E+00 -0.00000000000E+00 -0.45593999997E+02  0.45594000000E+02  0.51100000000E-03 0.  1.
    9900012    2    1    2    0    0 -0.12766295006E+02  0.38098865879E+02 -0.62180371681E+01  0.50528857662E+02  0.29999993351E+02 0.  0.
         12    1    1    2    0    0  0.12766295006E+02 -0.38098865879E+02  0.62180371681E+01  0.40659142338E+02  0.00000000000E+00 0. -1.
         11    1    3    3    0    0 -0.43066811364E+00 -0.42115624130E+01 -0.25267491693E+01  0.49302327134E+01  0.51100000000E-03 0. -1.
        -11    1    3    3    0    0 -0.35708149141E+01  0.26823066842E+02  0.13792229221E+01  0.27094831428E+02  0.51100000000E-03 0.  1.
        -12    1    3    3    0    0 -0.87648119781E+01  0.15487361450E+02 -0.50705109209E+01  0.18503793521E+02  0.00000000000E+00 0.  1.
</event>
<event>
 7    1  0.2900470E-011  0.5052886E+02  0.7816164E-02  0.1300439E+00
        -11   -1    0    0    0    0  0.00000000000E+00  0.00000000000E+00  0.45593999997E+02  0.45594000000E+02  0.51100000000E-03 0.  1.
         11   -1    0    0    0    0 -0.00000000000E+00 -0.00000000000E+00 -0.45593999997E+02  0.45594000000E+02  0.51100000000E-03 0. -1.
    9900012    2    1    2    0    0  0.14907549571E+01  0.67600986686E+01  0.40065500079E+02  0.50528861041E+02  0.30000003619E+02 0.  0.
         12    1    1    2    0    0 -0.14907549571E+01 -0.67600986686E+01 -0.40065500079E+02  0.40659138959E+02  0.00000000000E+00 0. -1.
         11    1    3    3    0    0 -0.26612002641E+01 -0.24079583604E+01 -0.56432296363E+00  0.36330030250E+01  0.51100000000E-03 0. -1.
        -11    1    3    3    0    0  0.64965078485E+01  0.88569649754E+01  0.42490053688E+02  0.43886844333E+02  0.51100000000E-03 0.  1.
        -12    1    3    3    0    0 -0.23445526273E+01  0.31109205358E+00 -0.18602306458E+01  0.30090136829E+01  0.00000000000E+00 0.  1.
</event>
<event>
 7    1  0.2900470E-011  0.5052886E+02  0.7816164E-02  0.1300439E+00
        -11   -1    0    0    0    0  0.00000000000E+00  0.00000000000E+00  0.45593999997E+02  0.45594000000E+02  0.51100000000E-03 0.  1.
         11   -1    0    0    0    0 -0.00000000000E+00 -0.00000000000E+00 -0.45593999997E+02  0.45594000000E+02  0.51100000000E-03 0. -1.
    9900012    2    1    2    0    0  0.12116777057E+02 -0.25367266718E+02  0.29374326781E+02  0.50528861042E+02  0.30000003624E+02 0.  0.
         12    1    1    2    0    0 -0.12116777057E+02  0.25367266718E+02 -0.29374326781E+02  0.40659138958E+02  0.00000000000E+00 0. -1.
         11    1    3    3    0    0  0.14493390884E+02 -0.21553186563E+02  0.21313667587E+02  0.33598670459E+02  0.51100000000E-03 0.  1.
        -11    1    3    3    0    0 -0.81827180560E+01 -0.35593126013E+01  0.60483025296E+01  0.10779960331E+02  0.51100000000E-03 0. -1.
        -12    1    3    3    0    0  0.58061042288E+01 -0.25476755401E+00  0.20123566639E+01  0.61502302530E+01  0.00000000000E+00 0.  1.
</event>
<event>
 7    1  0.2900470E-011  0.5052885E+02  0.7816164E-02  0.1300439E+00
        -11   -1    0    0    0    0  0.00000000000E+00  0.00000000000E+00  0.45593999997E+02  0.45594000000E+02  0.51100000000E-03 0.  1.
         11   -1    0    0    0    0 -0.00000000000E+00 -0.00000000000E+00 -0.45593999997E+02  0.45594000000E+02  0.51100000000E-03 0. -1.
    9900012    2    1    2    0    0  0.10284453283E+02  0.21957382402E+02  0.32638473285E+02  0.50528849004E+02  0.29999967034E+02 0.  0.
         12    1    1    2    0    0 -0.10284453283E+02 -0.21957382402E+02 -0.32638473285E+02  0.40659150996E+02  0.00000000000E+00 0. -1.
         11    1    3    3    0    0  0.70805261820E+01  0.35529611395E+01  0.63865725111E+01  0.10175740394E+02  0.51100000000E-03 0. -1.
        -11    1    3    3    0    0 -0.10616369827E+02  0.80692217199E+01  0.10258545744E+02  0.16824310045E+02  0.51100000000E-03 0.  1.
        -12    1    3    3    0    0  0.13820296928E+02  0.10335199543E+02  0.15993355031E+02  0.23528798565E+02  0.00000000000E+00 0.  1.
</event>
<event>
 7    1  0.2900470E-011  0.5052887E+02  0.7816164E-02  0.1300439E+00
        -11   -1    0    0    0    0  0.00000000000E+00  0.00000000000E+00  0.45593999997E+02  0.45594000000E+02  0.51100000000E-03 0. -1.
         11   -1    0    0    0    0 -0.00000000000E+00 -0.00000000000E+00 -0.45593999997E+02  0.45594000000E+02  0.51100000000E-03 0.  1.
    9900012    2    1    2    0    0  0.20658052590E+02  0.34938369238E+02 -0.23916164147E+01  0.50528872970E+02  0.30000039879E+02 0.  0.
         12    1    1    2    0    0 -0.20658052590E+02 -0.34938369238E+02  0.23916164147E+01  0.40659127030E+02  0.00000000000E+00 0. -1.
         11    1    3    3    0    0  0.11210375161E+02  0.41205490171E+01  0.17171956584E+01  0.12066490652E+02  0.51100000000E-03 0. -1.
        -11    1    3    3    0    0  0.10230442769E+02  0.33681129665E+02 -0.44232588823E+01  0.35477396665E+02  0.51100000000E-03 0.  1.
        -12    1    3    3    0    0 -0.78276534060E+00 -0.28633094442E+01  0.31444680927E+00  0.29849856528E+01  0.00000000000E+00 0.  1.
</event>
<event>
 7    1  0.2900470E-011  0.5052886E+02  0.7816164E-02  0.1300439E+00
        -11   -1    0    0    0    0  0.00000000000E+00  0.00000000000E+00  0.45593999997E+02  0.45594000000E+02  0.51100000000E-03 0. -1.
         11   -1    0    0    0    0 -0.00000000000E+00 -0.00000000000E+00 -0.45593999997E+02  0.45594000000E+02  0.51100000000E-03 0.  1.
    9900012    2    1    2    0    0  0.11067268401E+01 -0.12057669889E+02 -0.38814344713E+02  0.50528860770E+02  0.30000002795E+02 0.  0.
         12    1    1    2    0    0 -0.11067268401E+01  0.12057669889E+02  0.38814344713E+02  0.40659139230E+02  0.00000000000E+00 0. -1.
         11    1    3    3    0    0 -0.79763542474E+01  0.18517336612E+01 -0.10348680683E+02  0.13196451673E+02  0.51100000000E-03 0. -1.
        -11    1    3    3    0    0  0.82882813363E+01 -0.12084916323E+02 -0.30893704421E+02  0.34193007811E+02  0.51100000000E-03 0.  1.
        -12    1    3    3    0    0  0.79479975120E+00 -0.18244872272E+01  0.24280403911E+01  0.31394012849E+01  0.00000000000E+00 0.  1.
</event>
<event>
 7    1  0.2900470E-011  0.5052888E+02  0.7816164E-02  0.1300439E+00
        -11   -1    0    0    0    0  0.00000000000E+00  0.00000000000E+00  0.45593999997E+02  0.45594000000E+02  0.51100000000E-03 0. -1.
         11   -1    0    0    0    0 -0.00000000000E+00 -0.00000000000E+00 -0.45593999997E+02  0.45594000000E+02  0.51100000000E-03 0.  1.
    9900012    2    1    2    0    0 -0.33524779316E+02  0.21238960178E+02 -0.88407944272E+01  0.50528881666E+02  0.30000066311E+02 0.  0.
         12    1    1    2    0    0  0.33524779316E+02 -0.21238960178E+02  0.88407944272E+01  0.40659118334E+02  0.00000000000E+00 0. -1.
         11    1    3    3    0    0 -0.80677932377E+00 -0.31058440915E+01  0.25011217770E+01  0.40685096537E+01  0.51100000000E-03 0. -1.
        -11    1    3    3    0    0 -0.13357851217E+02  0.20376297099E+02 -0.15732831957E+01  0.24415177510E+02  0.51100000000E-03 0.  1.
        -12    1    3    3    0    0 -0.19360148775E+02  0.39685071705E+01 -0.97686330084E+01  0.22045194502E+02  0.00000000000E+00 0.  1.
</event>
<event>
 7    1  0.2900470E-011  0.5052886E+02  0.7816164E-02  0.1300439E+00
        -11   -1    0    0    0    0  0.00000000000E+00  0.00000000000E+00  0.45593999997E+02  0.45594000000E+02  0.51100000000E-03 0.  1.
         11   -1    0    0    0    0 -0.00000000000E+00 -0.00000000000E+00 -0.45593999997E+02  0.45594000000E+02  0.51100000000E-03 0. -1.
    9900012    2    1    2    0    0 -0.11333564514E+02 -0.23418683976E+02  0.31245501263E+02  0.50528858433E+02  0.29999995694E+02 0.  0.
         12    1    1    2    0    0  0.11333564514E+02  0.23418683976E+02 -0.31245501263E+02  0.40659141567E+02  0.00000000000E+00 0. -1.
         11    1    3    3    0    0 -0.14711965460E+01 -0.13209976387E+02  0.20352411931E+01  0.13446564707E+02  0.51100000000E-03 0. -1.
        -11    1    3    3    0    0 -0.61913081414E+01 -0.86830840086E+01  0.30955244209E+02  0.32740729814E+02  0.51100000000E-03 0.  1.
         12    1    3    3    0    0 -0.36710598270E+01 -0.15256235802E+01 -0.17449841398E+01  0.43415639129E+01  0.00000000000E+00 0. -1.
</event>
<event>
 7    1  0.2900470E-011  0.5052886E+02  0.7816164E-02  0.1300439E+00
        -11   -1    0    0    0    0  0.00000000000E+00  0.00000000000E+00  0.45593999997E+02  0.45594000000E+02  0.51100000000E-03 0. -1.
         11   -1    0    0    0    0 -0.00000000000E+00 -0.00000000000E+00 -0.45593999997E+02  0.45594000000E+02  0.51100000000E-03 0.  1.
    9900012    2    1    2    0    0  0.38427199265E+02 -0.83181477722E+01 -0.10359757060E+02  0.50528858444E+02  0.29999995728E+02 0.  0.
         12    1    1    2    0    0 -0.38427199265E+02  0.83181477722E+01  0.10359757060E+02  0.40659141556E+02  0.00000000000E+00 0. -1.
         11    1    3    3    0    0 -0.30821351929E+01  0.12332805752E+01 -0.18278021326E+01  0.37896436800E+01  0.51100000000E-03 0. -1.
        -11    1    3    3    0    0  0.29160781835E+02 -0.94089440158E+01 -0.13428512398E+02  0.33454511955E+02  0.51100000000E-03 0.  1.
        -12    1    3    3    0    0  0.12348552623E+02 -0.14248433160E+00  0.48965574702E+01  0.13284702809E+02  0.00000000000E+00 0.  1.
</event>
<event>
 7    1  0.2900470E-011  0.5052888E+02  0.7816164E-02  0.1300439E+00
        -11   -1    0    0    0    0  0.00000000000E+00  0.00000000000E+00  0.45593999997E+02  0.45594000000E+02  0.51100000000E-03 0. -1.
         11   -1    0    0    0    0 -0.00000000000E+00 -0.00000000000E+00 -0.45593999997E+02  0.45594000000E+02  0.51100000000E-03 0.  1.
    9900012    2    1    2    0    0 -0.34991114205E+02 -0.35485058117E+01 -0.20400841623E+02  0.50528876722E+02  0.30000051285E+02 0.  0.
         12    1    1    2    0    0  0.34991114205E+02  0.35485058117E+01  0.20400841623E+02  0.40659123278E+02  0.00000000000E+00 0. -1.
         11    1    3    3    0    0 -0.20302112717E+02 -0.14902241275E+01 -0.82279710872E+00  0.20373353775E+02  0.51100000000E-03 0. -1.
        -11    1    3    3    0    0 -0.14108982760E+02 -0.15889273811E+01 -0.22793904766E+02  0.26854239507E+02  0.51100000000E-03 0.  1.
        -12    1    3    3    0    0 -0.58001872808E+00 -0.46935430302E+00  0.32158602524E+01  0.33012834398E+01  0.00000000000E+00 0.  1.
</event>
<event>
 7    1  0.2900470E-011  0.5052887E+02  0.7816164E-02  0.1300439E+00
        -11   -1    0    0    0    0  0.00000000000E+00  0.00000000000E+00  0.45593999997E+02  0.45594000000E+02  0.51100000000E-03 0.  1.
         11   -1    0    0    0    0 -0.00000000000E+00 -0.00000000000E+00 -0.45593999997E+02  0.45594000000E+02  0.51100000000E-03 0. -1.
    9900012    2    1    2    0    0 -0.80305626816E+01  0.11198306104E+02  0.38252751859E+02  0.50528867922E+02  0.30000024535E+02 0.  0.
         12    1    1    2    0    0  0.80305626816E+01 -0.11198306104E+02 -0.38252751859E+02  0.40659132078E+02  0.00000000000E+00 0. -1.
         11    1    3    3    0    0  0.64304312488E+01 -0.29241601285E+01  0.50422253539E+01  0.86790088883E+01  0.51100000000E-03 0. -1.
        -11    1    3    3    0    0 -0.12646368671E+02  0.56335839762E+01  0.10026009483E+02  0.17093530220E+02  0.51100000000E-03 0.  1.
         12    1    3    3    0    0 -0.18146252599E+01  0.84888822561E+01  0.23184517022E+02  0.24756328814E+02  0.00000000000E+00 0. -1.
</event>
<event>
 7    1  0.2932610E-011  0.5052886E+02  0.7816164E-02  0.1300439E+00
        -11   -1    0    0    0    0  0.00000000000E+00  0.00000000000E+00  0.45593999997E+02  0.45594000000E+02  0.51100000000E-03 0. -1.
         11   -1    0    0    0    0 -0.00000000000E+00 -0.00000000000E+00 -0.45593999997E+02  0.45594000000E+02  0.51100000000E-03 0.  1.
    9900012    2    1    2    0    0 -0.38875749235E+01 -0.36937047951E+02 -0.16544090263E+02  0.50528859911E+02  0.30000000186E+02 0.  0.
         12    1    1    2    0    0  0.38875749235E+01  0.36937047951E+02  0.16544090263E+02  0.40659140089E+02  0.00000000000E+00 0. -1.
         11    1    3    3    0    0  0.33664948598E+01  0.17519394031E+01  0.16554886183E+01  0.41404374334E+01  0.51100000000E-03 0. -1.
        -11    1    3    3    0    0  0.44977904439E+00 -0.32970810234E+02 -0.15409680660E+02  0.36396907656E+02  0.51100000000E-03 0.  1.
         12    1    3    3    0    0 -0.77038488277E+01 -0.57181771205E+01 -0.27898982213E+01  0.99915148214E+01  0.00000000000E+00 0. -1.
</event>
<event>
 7    1  0.2900470E-011  0.5052886E+02  0.7816164E-02  0.1300439E+00
        -11   -1    0    0    0    0  0.00000000000E+00  0.00000000000E+00  0.45593999997E+02  0.45594000000E+02  0.51100000000E-03 0.  1.
         11   -1    0    0    0    0 -0.00000000000E+00 -0.00000000000E+00 -0.45593999997E+02  0.45594000000E+02  0.51100000000E-03 0. -1.
    9900012    2    1    2    0    0  0.17912593710E+02 -0.30192922239E+02  0.20510781840E+02  0.50528859103E+02  0.29999997731E+02 0.  0.
         12    1    1    2    0    0 -0.17912593710E+02  0.30192922239E+02 -0.20510781840E+02  0.40659140897E+02  0.00000000000E+00 0. -1.
         11    1    3    3    0    0  0.13306953781E+02 -0.56785300060E+01  0.32833624000E+01  0.14835807725E+02  0.51100000000E-03 0. -1.
        -11    1    3    3    0    0  0.26470488192E+01 -0.23568766615E+02  0.62836233190E+01  0.24535230781E+02  0.51100000000E-03 0.  1.
        -12    1    3    3    0    0  0.19585911101E+01 -0.94562561865E+00  0.10943796121E+02  0.11157820597E+02  0.00000000000E+00 0.  1.
</event>
<event>
 7    1  0.2900470E-011  0.5052886E+02  0.7816164E-02  0.1300439E+00
        -11   -1    0    0    0    0  0.00000000000E+00  0.00000000000E+00  0.45593999997E+02  0.45594000000E+02  0.51100000000E-03 0.  1.
         11   -1    0    0    0    0 -0.00000000000E+00 -0.00000000000E+00 -0.45593999997E+02  0.45594000000E+02  0.51100000000E-03 0. -1.
    9900012    2    1    2    0    0  0.35552987167E+02 -0.10177480782E+02  0.16898795874E+02  0.50528864328E+02  0.30000013613E+02 0.  0.
         12    1    1    2    0    0 -0.35552987167E+02  0.10177480782E+02 -0.16898795874E+02  0.40659135672E+02  0.00000000000E+00 0. -1.
         11    1    3    3    0    0  0.35363731640E+01 -0.30246358728E+01  0.12604024705E+02  0.13435616708E+02  0.51100000000E-03 0. -1.
        -11    1    3    3    0    0  0.32962910924E+02 -0.39916064949E+01  0.53431588415E+01  0.33630875184E+02  0.51100000000E-03 0.  1.
        -12    1    3    3    0    0 -0.94629692055E+00 -0.31612384142E+01 -0.10483876724E+01  0.34623724359E+01  0.00000000000E+00 0.  1.
</event>
<event>
 7    1  0.2900470E-011  0.5052887E+02  0.7816164E-02  0.1300439E+00
        -11   -1    0    0    0    0  0.00000000000E+00  0.00000000000E+00  0.45593999997E+02  0.45594000000E+02  0.51100000000E-03 0.  1.
         11   -1    0    0    0    0 -0.00000000000E+00 -0.00000000000E+00 -0.45593999997E+02  0.45594000000E+02  0.51100000000E-03 0. -1.
    9900012    2    1    2    0    0  0.20902711463E+02 -0.17050512797E+02  0.30422391292E+02  0.50528865417E+02  0.30000016920E+02 0.  0.
         12    1    1    2    0    0 -0.20902711463E+02  0.17050512797E+02 -0.30422391292E+02  0.40659134583E+02  0.00000000000E+00 0. -1.
         11    1    3    3    0    0 -0.53351549537E+01 -0.12882308514E+01  0.12961407803E+01  0.56394501762E+01  0.51100000000E-03 0. -1.
        -11    1    3    3    0    0  0.25109027171E+02 -0.18298805121E+02  0.24821606490E+02  0.39767092719E+02  0.51100000000E-03 0.  1.
         12    1    3    3    0    0  0.11288392457E+01  0.25365231751E+01  0.43046440218E+01  0.51223225215E+01  0.00000000000E+00 0. -1.
</event>
<event>
 7    1  0.2900470E-011  0.5052886E+02  0.7816164E-02  0.1300439E+00
        -11   -1    0    0    0    0  0.00000000000E+00  0.00000000000E+00  0.45593999997E+02  0.45594000000E+02  0.51100000000E-03 0. -1.
         11   -1    0    0    0    0 -0.00000000000E+00 -0.00000000000E+00 -0.45593999997E+02  0.45594000000E+02  0.51100000000E-03 0.  1.
    9900012    2    1    2    0    0  0.22068347399E+02  0.16572114852E+02 -0.29858309722E+02  0.50528860719E+02  0.30000002641E+02 0.  0.
         12    1    1    2    0    0 -0.22068347399E+02 -0.16572114852E+02  0.29858309722E+02  0.40659139281E+02  0.00000000000E+00 0. -1.
         11    1    3    3    0    0 -0.23428299405E+01  0.17412229424E+01  0.32491944241E+01  0.43678340321E+01  0.51100000000E-03 0. -1.
        -11    1    3    3    0    0  0.78307332394E+01  0.86331593334E+01 -0.22981970509E+02  0.25768639698E+02  0.51100000000E-03 0.  1.
        -12    1    3    3    0    0  0.16580444100E+02  0.61977325764E+01 -0.10125533637E+02  0.20392386989E+02  0.00000000000E+00 0.  1.
</event>
<event>
 7    1  0.2900470E-011  0.5052880E+02  0.7816164E-02  0.1300439E+00
        -11   -1    0    0    0    0  0.00000000000E+00  0.00000000000E+00  0.45593999997E+02  0.45594000000E+02  0.51100000000E-03 0.  1.
         11   -1    0    0    0    0 -0.00000000000E+00 -0.00000000000E+00 -0.45593999997E+02  0.45594000000E+02  0.51100000000E-03 0. -1.
    9900012    2    1    2    0    0 -0.10259896068E+02 -0.37982674848E+02  0.10257747100E+02  0.50528801391E+02  0.29999822309E+02 0.  0.
         12    1    1    2    0    0  0.10259896068E+02  0.37982674848E+02 -0.10257747100E+02  0.40659198609E+02  0.00000000000E+00 0. -1.
         11    1    3    3    0    0 -0.57483672049E+00  0.36809974938E+01 -0.36066739847E+01  0.51853907566E+01  0.51100000000E-03 0. -1.
        -11    1    3    3    0    0 -0.34263404645E+00 -0.84554161022E+01  0.45625035785E+01  0.96139429329E+01  0.51100000000E-03 0.  1.
         12    1    3    3    0    0 -0.93424253008E+01 -0.33208256240E+02  0.93019175059E+01  0.35729467702E+02  0.00000000000E+00 0. -1.
</event>
<event>
 7    1  0.2900470E-011  0.5052886E+02  0.7816164E-02  0.1300439E+00
        -11   -1    0    0    0    0  0.00000000000E+00  0.00000000000E+00  0.45593999997E+02  0.45594000000E+02  0.51100000000E-03 0.  1.
         11   -1    0    0    0    0 -0.00000000000E+00 -0.00000000000E+00 -0.45593999997E+02  0.45594000000E+02  0.51100000000E-03 0. -1.
    9900012    2    1    2    0    0 -0.23617598238E+02  0.30597828843E+02  0.12615375418E+02  0.50528858674E+02  0.29999996426E+02 0.  0.
         12    1    1    2    0    0  0.23617598238E+02 -0.30597828843E+02 -0.12615375418E+02  0.40659141326E+02  0.00000000000E+00 0. -1.
         11    1    3    3    0    0 -0.39460970010E+01  0.16696709152E+02  0.65976980948E+01  0.18381550492E+02  0.51100000000E-03 0. -1.
        -11    1    3    3    0    0 -0.15942311697E+02  0.97754138130E+01 -0.53851231579E+01  0.19460615847E+02  0.51100000000E-03 0.  1.
        -12    1    3    3    0    0 -0.37291895398E+01  0.41257058771E+01  0.11402800481E+02  0.12686692335E+02  0.00000000000E+00 0.  1.
</event>
<event>
 7    1  0.2900470E-011  0.5052886E+02  0.7816164E-02  0.1300439E+00
        -11   -1    0    0    0    0  0.00000000000E+00  0.00000000000E+00  0.45593999997E+02  0.45594000000E+02  0.51100000000E-03 0.  1.
         11   -1    0    0    0    0 -0.00000000000E+00 -0.00000000000E+00 -0.45593999997E+02  0.45594000000E+02  0.51100000000E-03 0. -1.
    9900012    2    1    2    0    0 -0.18100749672E+02 -0.12897656611E+02  0.34046715832E+02  0.50528861499E+02  0.30000005011E+02 0.  0.
         12    1    1    2    0    0  0.18100749672E+02  0.12897656611E+02 -0.34046715832E+02  0.40659138501E+02  0.00000000000E+00 0. -1.
         11    1    3    3    0    0 -0.77606219344E+01  0.61201214854E+01 -0.11460105050E+00  0.98841425256E+01  0.51100000000E-03 0. -1.
        -11    1    3    3    0    0 -0.63082829210E+01 -0.11937732791E+02  0.17550000426E+02  0.22142863700E+02  0.51100000000E-03 0.  1.
         12    1    3    3    0    0 -0.40318448163E+01 -0.70800453056E+01  0.16611316456E+02  0.18501855273E+02  0.00000000000E+00 0. -1.
</event>
<event>
 7    1  0.2900470E-011  0.5052885E+02  0.7816164E-02  0.1300439E+00
        -11   -1    0    0    0    0  0.00000000000E+00  0.00000000000E+00  0.45593999997E+02  0.45594000000E+02  0.51100000000E-03 0. -1.
         11   -1    0    0    0    0 -0.00000000000E+00 -0.00000000000E+00 -0.45593999997E+02  0.45594000000E+02  0.51100000000E-03 0.  1.
    9900012    2    1    2    0    0  0.52468251664E+01 -0.24444133423E+02 -0.32064336002E+02  0.50528850029E+02  0.29999970148E+02 0.  0.
         12    1    1    2    0    0 -0.52468251664E+01  0.24444133423E+02  0.32064336002E+02  0.40659149971E+02  0.00000000000E+00 0. -1.
         11    1    3    3    0    0  0.66723833783E+00  0.31990634928E+01  0.31846860328E+01  0.45630515688E+01  0.51100000000E-03 0. -1.
        -11    1    3    3    0    0  0.31004440748E+01 -0.15200929074E+02 -0.12219645133E+02  0.19748436030E+02  0.51100000000E-03 0.  1.
         12    1    3    3    0    0  0.14791427537E+01 -0.12442267842E+02 -0.23029376901E+02  0.26217362430E+02  0.00000000000E+00 0. -1.
</event>
<event>
 7    1  0.2900470E-011  0.5052886E+02  0.7816164E-02  0.1300439E+00
        -11   -1    0    0    0    0  0.00000000000E+00  0.00000000000E+00  0.45593999997E+02  0.45594000000E+02  0.51100000000E-03 0. -1.
         11   -1    0    0    0    0 -0.00000000000E+00 -0.00000000000E+00 -0.45593999997E+02  0.45594000000E+02  0.51100000000E-03 0.  1.
    9900012    2    1    2    0    0 -0.24457763018E+01  0.40133989353E+02 -0.60371299848E+01  0.50528857590E+02  0.29999993130E+02 0.  0.
         12    1    1    2    0    0  0.24457763018E+01 -0.40133989353E+02  0.60371299848E+01  0.40659142410E+02  0.00000000000E+00 0. -1.
         11    1    3    3    0    0 -0.62399308932E+01 -0.89107827273E+00  0.17186590240E+01  0.65333411928E+01  0.51100000000E-03 0. -1.
        -11    1    3    3    0    0 -0.24516983543E+01  0.32468460990E+02 -0.42515060216E+01  0.32837281977E+02  0.51100000000E-03 0.  1.
         12    1    3    3    0    0  0.62458529456E+01  0.85566066350E+01 -0.35042829873E+01  0.11158234420E+02  0.00000000000E+00 0. -1.
</event>
<event>
 7    1  0.2900470E-011  0.5052887E+02  0.7816164E-02  0.1300439E+00
        -11   -1    0    0    0    0  0.00000000000E+00  0.00000000000E+00  0.45593999997E+02  0.45594000000E+02  0.51100000000E-03 0.  1.
         11   -1    0    0    0    0 -0.00000000000E+00 -0.00000000000E+00 -0.45593999997E+02  0.45594000000E+02  0.51100000000E-03 0. -1.
    9900012    2    1    2    0    0 -0.33216097192E+02 -0.73173131087E+01  0.22278072415E+02  0.50528871944E+02  0.30000036760E+02 0.  0.
         12    1    1    2    0    0  0.33216097192E+02  0.73173131087E+01 -0.22278072415E+02  0.40659128056E+02  0.00000000000E+00 0. -1.
         11    1    3    3    0    0 -0.11587929063E+02 -0.13228475008E+02 -0.22151581952E+00  0.17587544471E+02  0.51100000000E-03 0. -1.
        -11    1    3    3    0    0 -0.17828023443E+02  0.46019521876E+01  0.22297321391E+02  0.28916896882E+02  0.51100000000E-03 0.  1.
         12    1    3    3    0    0 -0.38001446856E+01  0.13092097116E+01  0.20226684314E+00  0.40244305903E+01  0.00000000000E+00 0. -1.
</event>
<event>
 7    1  0.2900470E-011  0.5052886E+02  0.7816164E-02  0.1300439E+00
        -11   -1    0    0    0    0  0.00000000000E+00  0.00000000000E+00  0.45593999997E+02  0.45594000000E+02  0.51100000000E-03 0. -1.
         11   -1    0    0    0    0 -0.00000000000E+00 -0.00000000000E+00 -0.45593999997E+02  0.45594000000E+02  0.51100000000E-03 0.  1.
    9900012    2    1    2    0    0 -0.35340516169E+02  0.16076745910E+02 -0.12072766539E+02  0.50528861617E+02  0.30000005371E+02 0.  0.
         12    1    1    2    0    0  0.35340516169E+02 -0.16076745910E+02  0.12072766539E+02  0.40659138383E+02  0.00000000000E+00 0. -1.
         11    1    3    3    0    0 -0.18360667246E+02  0.17043373153E+02 -0.55699255142E+01  0.25663490422E+02  0.51100000000E-03 0. -1.
        -11    1    3    3    0    0 -0.17769290920E+02 -0.17595471451E+01  0.41164546116E+00  0.17860939454E+02  0.51100000000E-03 0.  1.
        -12    1    3    3    0    0  0.78944199676E+00  0.79291990227E+00 -0.69144864863E+01  0.70044317405E+01  0.00000000000E+00 0.  1.
</event>
<event>
 7    1  0.2900470E-011  0.5052886E+02  0.7816164E-02  0.1300439E+00
        -11   -1    0    0    0    0  0.00000000000E+00  0.00000000000E+00  0.45593999997E+02  0.45594000000E+02  0.51100000000E-03 0.  1.
         11   -1    0    0    0    0 -0.00000000000E+00 -0.00000000000E+00 -0.45593999997E+02  0.45594000000E+02  0.51100000000E-03 0. -1.
    9900012    2    1    2    0    0 -0.29806224155E+02  0.79513630677E+00  0.27642766219E+02  0.50528858784E+02  0.29999996761E+02 0.  0.
         12    1    1    2    0    0  0.29806224155E+02 -0.79513630677E+00 -0.27642766219E+02  0.40659141216E+02  0.00000000000E+00 0. -1.
         11    1    3    3    0    0 -0.20766389671E+02 -0.52269298008E+01  0.21434944269E+01  0.21521112976E+02  0.51100000000E-03 0. -1.
        -11    1    3    3    0    0 -0.90566297182E+01  0.47912746815E+01  0.13511724406E+02  0.16957168149E+02  0.51100000000E-03 0.  1.
         12    1    3    3    0    0  0.16795233453E-01  0.12307914260E+01  0.11987547386E+02  0.12050577660E+02  0.00000000000E+00 0. -1.
</event>
<event>
 7    1  0.2900470E-011  0.5052886E+02  0.7816164E-02  0.1300439E+00
        -11   -1    0    0    0    0  0.00000000000E+00  0.00000000000E+00  0.45593999997E+02  0.45594000000E+02  0.51100000000E-03 0.  1.
         11   -1    0    0    0    0 -0.00000000000E+00 -0.00000000000E+00 -0.45593999997E+02  0.45594000000E+02  0.51100000000E-03 0. -1.
    9900012    2    1    2    0    0 -0.14231790021E+01  0.22759036636E+02  0.33662543125E+02  0.50528855928E+02  0.29999988078E+02 0.  0.
         12    1    1    2    0    0  0.14231790021E+01 -0.22759036636E+02 -0.33662543125E+02  0.40659144072E+02  0.00000000000E+00 0. -1.
         11    1    3    3    0    0 -0.91668117673E+01  0.38201868940E+01  0.53395350441E+01  0.11275411329E+02  0.51100000000E-03 0. -1.
        -11    1    3    3    0    0  0.13176102292E+02  0.96605907485E+01  0.15517767021E+02  0.22533037496E+02  0.51100000000E-03 0.  1.
         12    1    3    3    0    0 -0.54324695265E+01  0.92782589933E+01  0.12805241060E+02  0.16720407103E+02  0.00000000000E+00 0. -1.
</event>
<event>
 7    1  0.2900470E-011  0.5052887E+02  0.7816164E-02  0.1300439E+00
        -11   -1    0    0    0    0  0.00000000000E+00  0.00000000000E+00  0.45593999997E+02  0.45594000000E+02  0.51100000000E-03 0. -1.
         11   -1    0    0    0    0 -0.00000000000E+00 -0.00000000000E+00 -0.45593999997E+02  0.45594000000E+02  0.51100000000E-03 0.  1.
    9900012    2    1    2    0    0  0.17918541325E+02 -0.66568744612E+01 -0.35885608529E+02  0.50528868181E+02  0.30000025322E+02 0.  0.
         12    1    1    2    0    0 -0.17918541325E+02  0.66568744612E+01  0.35885608529E+02  0.40659131819E+02  0.00000000000E+00 0. -1.
         11    1    3    3    0    0  0.37489644734E+01 -0.16655366424E+02 -0.15405176643E+02  0.22995117590E+02  0.51100000000E-03 0. -1.
        -11    1    3    3    0    0  0.82239520245E+01  0.75565349356E+01 -0.16657885831E+02  0.20055417417E+02  0.51100000000E-03 0.  1.
         12    1    3    3    0    0  0.59456248273E+01  0.24419570273E+01 -0.38225460548E+01  0.74783331733E+01  0.00000000000E+00 0. -1.
</event>
<event>
 7    1  0.2900470E-011  0.5052884E+02  0.7816164E-02  0.1300439E+00
        -11   -1    0    0    0    0  0.00000000000E+00  0.00000000000E+00  0.45593999997E+02  0.45594000000E+02  0.51100000000E-03 0.  1.
         11   -1    0    0    0    0 -0.00000000000E+00 -0.00000000000E+00 -0.45593999997E+02  0.45594000000E+02  0.51100000000E-03 0. -1.
    9900012    2    1    2    0    0 -0.77827570323E+01  0.39734375422E+02  0.37115304807E+01  0.50528839215E+02  0.29999937278E+02 0.  0.
         12    1    1    2    0    0  0.77827570323E+01 -0.39734375422E+02 -0.37115304807E+01  0.40659160785E+02  0.00000000000E+00 0. -1.
         11    1    3    3    0    0  0.34208369706E+01 -0.40243071478E+00 -0.27776830272E-01  0.34445388477E+01  0.51100000000E-03 0. -1.
        -11    1    3    3    0    0 -0.15074167419E+02  0.28477841411E+02 -0.41454540352E+01  0.32486962989E+02  0.51100000000E-03 0.  1.
        -12    1    3    3    0    0  0.38705734163E+01  0.11658964726E+02  0.78847613462E+01  0.14597337378E+02  0.00000000000E+00 0.  1.
</event>
<event>
 7    1  0.2900470E-011  0.5052873E+02  0.7816164E-02  0.1300439E+00
        -11   -1    0    0    0    0  0.00000000000E+00  0.00000000000E+00  0.45593999997E+02  0.45594000000E+02  0.51100000000E-03 0.  1.
         11   -1    0    0    0    0 -0.00000000000E+00 -0.00000000000E+00 -0.45593999997E+02  0.45594000000E+02  0.51100000000E-03 0. -1.
    9900012    2    1    2    0    0  0.32938204199E+01 -0.26039642126E+02  0.31052602993E+02  0.50528728392E+02  0.29999600418E+02 0.  0.
         12    1    1    2    0    0 -0.32938204199E+01  0.26039642126E+02 -0.31052602993E+02  0.40659271608E+02  0.00000000000E+00 0. -1.
         11    1    3    3    0    0  0.93191090863E+01 -0.62021800470E+01  0.18125997463E+02  0.21304098568E+02  0.51100000000E-03 0. -1.
        -11    1    3    3    0    0 -0.88901479840E+01 -0.21194327917E+02  0.10707705981E+02  0.25355260493E+02  0.51100000000E-03 0.  1.
        -12    1    3    3    0    0  0.28648593176E+01  0.13568658377E+01  0.22188995494E+01  0.38693693312E+01  0.00000000000E+00 0.  1.
</event>
<event>
 7    1  0.2900470E-011  0.5052889E+02  0.7816164E-02  0.1300439E+00
        -11   -1    0    0    0    0  0.00000000000E+00  0.00000000000E+00  0.45593999997E+02  0.45594000000E+02  0.51100000000E-03 0.  1.
         11   -1    0    0    0    0 -0.00000000000E+00 -0.00000000000E+00 -0.45593999997E+02  0.45594000000E+02  0.51100000000E-03 0. -1.
    9900012    2    1    2    0    0 -0.28659973357E+02 -0.29196956559E+01  0.28692240597E+02  0.50528888278E+02  0.30000086409E+02 0.  0.
         12    1    1    2    0    0  0.28659973357E+02  0.29196956559E+01 -0.28692240597E+02  0.40659111722E+02  0.00000000000E+00 0. -1.
         11    1    3    3    0    0 -0.49363743189E+01  0.10625999507E+02  0.10142030033E+02  0.15496465094E+02  0.51100000000E-03 0. -1.
        -11    1    3    3    0    0 -0.12073231642E+02 -0.19361393499E+01  0.12558094500E+02  0.17527615229E+02  0.51100000000E-03 0.  1.
         12    1    3    3    0    0 -0.11650367396E+02 -0.11609555813E+02  0.59921160640E+01  0.17504807956E+02  0.00000000000E+00 0. -1.
</event>
<event>
 7    1  0.2900470E-011  0.5052886E+02  0.7816164E-02  0.1300439E+00
        -11   -1    0    0    0    0  0.00000000000E+00  0.00000000000E+00  0.45593999997E+02  0.45594000000E+02  0.51100000000E-03 0.  1.
         11   -1    0    0    0    0 -0.00000000000E+00 -0.00000000000E+00 -0.45593999997E+02  0.45594000000E+02  0.51100000000E-03 0. -1.
    9900012    2    1    2    0    0  0.24491453322E+01  0.40578276878E+02  0.75563700707E+00  0.50528857676E+02  0.29999993392E+02 0.  0.
         12    1    1    2    0    0 -0.24491453322E+01 -0.40578276878E+02 -0.75563700707E+00  0.40659142324E+02  0.00000000000E+00 0. -1.
         11    1    3    3    0    0  0.99269117026E+01  0.71951118347E+01 -0.38203692491E+01  0.12841667794E+02  0.51100000000E-03 0. -1.
        -11    1    3    3    0    0 -0.25655709649E+01  0.52213846072E+01  0.68770966518E+01  0.90077450126E+01  0.51100000000E-03 0.  1.
         12    1    3    3    0    0 -0.49121954055E+01  0.28161780436E+02 -0.23010903956E+01  0.28679444870E+02  0.00000000000E+00 0. -1.
</event>
<event>
 7    1  0.2900470E-011  0.5052888E+02  0.7816164E-02  0.1300439E+00
        -11   -1    0    0    0    0  0.00000000000E+00  0.00000000000E+00  0.45593999997E+02  0.45594000000E+02  0.51100000000E-03 0. -1.
         11   -1    0    0    0    0 -0.00000000000E+00 -0.00000000000E+00 -0.45593999997E+02  0.45594000000E+02  0.51100000000E-03 0.  1.
    9900012    2    1    2    0    0  0.36886529485E+02  0.25633322760E+01 -0.16910872390E+02  0.50528876365E+02  0.30000050200E+02 0.  0.
         12    1    1    2    0    0 -0.36886529485E+02 -0.25633322760E+01  0.16910872390E+02  0.40659123635E+02  0.00000000000E+00 0. -1.
         11    1    3    3    0    0  0.39071928535E+01  0.27649135973E+01 -0.68227866421E+01  0.83343458663E+01  0.51100000000E-03 0. -1.
        -11    1    3    3    0    0  0.34949250555E+02  0.47736605745E+01 -0.68277670814E+01  0.35928489437E+02  0.51100000000E-03 0.  1.
        -12    1    3    3    0    0 -0.19699139237E+01 -0.49752418958E+01 -0.32603186662E+01  0.62660410622E+01  0.00000000000E+00 0.  1.
</event>
<event>
 7    1  0.2900470E-011  0.5052885E+02  0.7816164E-02  0.1300439E+00
        -11   -1    0    0    0    0  0.00000000000E+00  0.00000000000E+00  0.45593999997E+02  0.45594000000E+02  0.51100000000E-03 0.  1.
         11   -1    0    0    0    0 -0.00000000000E+00 -0.00000000000E+00 -0.45593999997E+02  0.45594000000E+02  0.51100000000E-03 0. -1.
    9900012    2    1    2    0    0  0.30803643457E+02  0.15335463418E+02  0.21659303625E+02  0.50528851928E+02  0.29999975919E+02 0.  0.
         12    1    1    2    0    0 -0.30803643457E+02 -0.15335463418E+02 -0.21659303625E+02  0.40659148072E+02  0.00000000000E+00 0. -1.
         11    1    3    3    0    0  0.25138081717E+02  0.78797019017E+01  0.11553919874E+02  0.28766402611E+02  0.51100000000E-03 0. -1.
        -11    1    3    3    0    0 -0.24783148436E+01 -0.30779935354E+01  0.70802000959E+01  0.81083489273E+01  0.51100000000E-03 0.  1.
        -12    1    3    3    0    0  0.81438765833E+01  0.10533755052E+02  0.30251836557E+01  0.13654100389E+02  0.00000000000E+00 0.  1.
</event>
<event>
 7    1  0.2900470E-011  0.5052887E+02  0.7816164E-02  0.1300439E+00
        -11   -1    0    0    0    0  0.00000000000E+00  0.00000000000E+00  0.45593999997E+02  0.45594000000E+02  0.51100000000E-03 0.  1.
         11   -1    0    0    0    0 -0.00000000000E+00 -0.00000000000E+00 -0.45593999997E+02  0.45594000000E+02  0.51100000000E-03 0. -1.
    9900012    2    1    2    0    0 -0.21920706124E+02 -0.21634842079E+02  0.26543951396E+02  0.50528866900E+02  0.30000021429E+02 0.  0.
         12    1    1    2    0    0  0.21920706124E+02  0.21634842079E+02 -0.26543951396E+02  0.40659133100E+02  0.00000000000E+00 0. -1.
         11    1    3    3    0    0 -0.28385000538E+00 -0.82919943176E+01  0.66373517813E+01  0.10625073154E+02  0.51100000000E-03 0. -1.
        -11    1    3    3    0    0 -0.15521665006E+02  0.37873540793E+01  0.12409893752E+02  0.20230462146E+02  0.51100000000E-03 0.  1.
        -12    1    3    3    0    0 -0.61151911128E+01 -0.17130201840E+02  0.74967058635E+01  0.19673331600E+02  0.00000000000E+00 0.  1.
</event>
<event>
 7    1  0.2900470E-011  0.5052886E+02  0.7816164E-02  0.1300439E+00
        -11   -1    0    0    0    0  0.00000000000E+00  0.00000000000E+00  0.45593999997E+02  0.45594000000E+02  0.51100000000E-03 0.  1.
         11   -1    0    0    0    0 -0.00000000000E+00 -0.00000000000E+00 -0.45593999997E+02  0.45594000000E+02  0.51100000000E-03 0. -1.
    9900012    2    1    2    0    0 -0.12666753150E+02  0.28914106809E+02  0.25626033992E+02  0.50528858026E+02  0.29999994455E+02 0.  0.
         12    1    1    2    0    0  0.12666753150E+02 -0.28914106809E+02 -0.25626033992E+02  0.40659141974E+02  0.00000000000E+00 0. -1.
         11    1    3    3    0    0 -0.55415639888E+01  0.73551259482E-01 -0.17245335512E+01  0.58041672495E+01  0.51100000000E-03 0. -1.
        -11    1    3    3    0    0 -0.98437244851E+01  0.17755384309E+02  0.26355028410E+02  0.33267703655E+02  0.51100000000E-03 0.  1.
        -12    1    3    3    0    0  0.27185353241E+01  0.11085171240E+02  0.99553913365E+00  0.11456987121E+02  0.00000000000E+00 0.  1.
</event>
<event>
 7    1  0.2900470E-011  0.5052875E+02  0.7816164E-02  0.1300439E+00
        -11   -1    0    0    0    0  0.00000000000E+00  0.00000000000E+00  0.45593999997E+02  0.45594000000E+02  0.51100000000E-03 0.  1.
         11   -1    0    0    0    0 -0.00000000000E+00 -0.00000000000E+00 -0.45593999997E+02  0.45594000000E+02  0.51100000000E-03 0. -1.
    9900012    2    1    2    0    0  0.15431779836E+02  0.37596884769E+02 -0.12283399877E+01  0.50528752683E+02  0.29999674253E+02 0.  0.
         12    1    1    2    0    0 -0.15431779836E+02 -0.37596884769E+02  0.12283399877E+01  0.40659247317E+02  0.00000000000E+00 0. -1.
         11    1    3    3    0    0  0.10095267718E+02  0.14140927640E+00  0.13078267899E+01  0.10180610888E+02  0.51100000000E-03 0. -1.
        -11    1    3    3    0    0  0.83954991965E+01  0.30201932460E+02 -0.57051614440E+01  0.31862046363E+02  0.51100000000E-03 0.  1.
         12    1    3    3    0    0 -0.30589870786E+01  0.72535430324E+01  0.31689946664E+01  0.84860954311E+01  0.00000000000E+00 0. -1.
</event>
<event>
 7    1  0.2900470E-011  0.5052887E+02  0.7816164E-02  0.1300439E+00
        -11   -1    0    0    0    0  0.00000000000E+00  0.00000000000E+00  0.45593999997E+02  0.45594000000E+02  0.51100000000E-03 0.  1.
         11   -1    0    0    0    0 -0.00000000000E+00 -0.00000000000E+00 -0.45593999997E+02  0.45594000000E+02  0.51100000000E-03 0. -1.
    9900012    2    1    2    0    0 -0.26888640027E+02 -0.30352537548E+02  0.29815672985E+01  0.50528865212E+02  0.30000016300E+02 0.  0.
         12    1    1    2    0    0  0.26888640027E+02  0.30352537548E+02 -0.29815672985E+01  0.40659134788E+02  0.00000000000E+00 0. -1.
         11    1    3    3    0    0  0.23250324598E+00  0.17154333751E+01  0.27099478791E+01  0.32156783409E+01  0.51100000000E-03 0. -1.
        -11    1    3    3    0    0 -0.29699866535E+02 -0.26267686993E+02  0.41635172890E+01  0.39867384272E+02  0.51100000000E-03 0.  1.
        -12    1    3    3    0    0  0.25787232620E+01 -0.58002839298E+01 -0.38918978696E+01  0.74458025999E+01  0.00000000000E+00 0.  1.
</event>
<event>
 7    1  0.2900470E-011  0.5052886E+02  0.7816164E-02  0.1300439E+00
        -11   -1    0    0    0    0  0.00000000000E+00  0.00000000000E+00  0.45593999997E+02  0.45594000000E+02  0.51100000000E-03 0.  1.
         11   -1    0    0    0    0 -0.00000000000E+00 -0.00000000000E+00 -0.45593999997E+02  0.45594000000E+02  0.51100000000E-03 0. -1.
    9900012    2    1    2    0    0  0.39058163713E+02 -0.11187932631E+02  0.15670788302E+01  0.50528859266E+02  0.29999998224E+02 0.  0.
         12    1    1    2    0    0 -0.39058163713E+02  0.11187932631E+02 -0.15670788302E+01  0.40659140734E+02  0.00000000000E+00 0. -1.
         11    1    3    3    0    0  0.27935149277E+01  0.75405163460E+01  0.68134712911E+00  0.80701515839E+01  0.51100000000E-03 0.  1.
        -11    1    3    3    0    0  0.13450278916E+02 -0.10177210464E+02  0.53374032384E+01  0.17691056762E+02  0.51100000000E-03 0. -1.
         12    1    3    3    0    0  0.22814369869E+02 -0.85512385129E+01 -0.44516715373E+01  0.24767650920E+02  0.00000000000E+00 0. -1.
</event>
<event>
 7    1  0.2900470E-011  0.5052882E+02  0.7816164E-02  0.1300439E+00
        -11   -1    0    0    0    0  0.00000000000E+00  0.00000000000E+00  0.45593999997E+02  0.45594000000E+02  0.51100000000E-03 0.  1.
         11   -1    0    0    0    0 -0.00000000000E+00 -0.00000000000E+00 -0.45593999997E+02  0.45594000000E+02  0.51100000000E-03 0. -1.
    9900012    2    1    2    0    0 -0.16602518519E+02 -0.15278853156E+02  0.33824285447E+02  0.50528815786E+02  0.29999866063E+02 0.  0.
         12    1    1    2    0    0  0.16602518519E+02  0.15278853156E+02 -0.33824285447E+02  0.40659184214E+02  0.00000000000E+00 0. -1.
         11    1    3    3    0    0 -0.48605332936E+01 -0.16589567422E+02  0.23790763715E+02  0.29408144613E+02  0.51100000000E-03 0. -1.
        -11    1    3    3    0    0 -0.55716921780E+00 -0.32775147986E+01  0.82574472431E+01  0.89015715481E+01  0.51100000000E-03 0.  1.
         12    1    3    3    0    0 -0.11184816007E+02  0.45882290645E+01  0.17760744887E+01  0.12219099625E+02  0.00000000000E+00 0. -1.
</event>
<event>
 7    1  0.2900470E-011  0.5052891E+02  0.7816164E-02  0.1300439E+00
        -11   -1    0    0    0    0  0.00000000000E+00  0.00000000000E+00  0.45593999997E+02  0.45594000000E+02  0.51100000000E-03 0.  1.
         11   -1    0    0    0    0 -0.00000000000E+00 -0.00000000000E+00 -0.45593999997E+02  0.45594000000E+02  0.51100000000E-03 0. -1.
    9900012    2    1    2    0    0  0.11640356077E+02  0.35627184445E+02  0.15759686349E+02  0.50528906615E+02  0.30000142148E+02 0.  0.
         12    1    1    2    0    0 -0.11640356077E+02 -0.35627184445E+02 -0.15759686349E+02  0.40659093385E+02  0.00000000000E+00 0. -1.
         11    1    3    3    0    0  0.55896381219E+01 -0.14018454614E+01  0.11367362603E+02  0.12744652127E+02  0.51100000000E-03 0. -1.
        -11    1    3    3    0    0  0.20622489011E+01  0.12348276997E+02  0.11016911544E+01  0.12567678345E+02  0.51100000000E-03 0.  1.
         12    1    3    3    0    0  0.39884690537E+01  0.24680752909E+02  0.32906325918E+01  0.25216576144E+02  0.00000000000E+00 0. -1.
</event>
<event>
 7    1  0.2900470E-011  0.5052886E+02  0.7816164E-02  0.1300439E+00
        -11   -1    0    0    0    0  0.00000000000E+00  0.00000000000E+00  0.45593999997E+02  0.45594000000E+02  0.51100000000E-03 0.  1.
         11   -1    0    0    0    0 -0.00000000000E+00 -0.00000000000E+00 -0.45593999997E+02  0.45594000000E+02  0.51100000000E-03 0. -1.
    9900012    2    1    2    0    0 -0.23310234103E+02 -0.22460296184E+02  0.24603526665E+02  0.50528862736E+02  0.30000008774E+02 0.  0.
         12    1    1    2    0    0  0.23310234103E+02  0.22460296184E+02 -0.24603526665E+02  0.40659137264E+02  0.00000000000E+00 0. -1.
         11    1    3    3    0    0 -0.33784948781E+01 -0.18970897706E+01 -0.39219992676E+01  0.55131892544E+01  0.51100000000E-03 0. -1.
        -11    1    3    3    0    0 -0.19934306403E+02 -0.20988941128E+02  0.17177674409E+02  0.33659838380E+02  0.51100000000E-03 0.  1.
        -12    1    3    3    0    0  0.25671781219E-02  0.42573471383E+00  0.11347851524E+02  0.11355835102E+02  0.00000000000E+00 0.  1.
</event>
<event>
 7    1  0.2900470E-011  0.5052886E+02  0.7816164E-02  0.1300439E+00
        -11   -1    0    0    0    0  0.00000000000E+00  0.00000000000E+00  0.45593999997E+02  0.45594000000E+02  0.51100000000E-03 0. -1.
         11   -1    0    0    0    0 -0.00000000000E+00 -0.00000000000E+00 -0.45593999997E+02  0.45594000000E+02  0.51100000000E-03 0.  1.
    9900012    2    1    2    0    0  0.17411557466E+02 -0.86737879720E+01 -0.35703905039E+02  0.50528858762E+02  0.29999996693E+02 0.  0.
         12    1    1    2    0    0 -0.17411557466E+02  0.86737879720E+01  0.35703905039E+02  0.40659141238E+02  0.00000000000E+00 0. -1.
         11    1    3    3    0    0 -0.69199402674E+01  0.26854751750E+01 -0.53130609646E+01  0.91283058283E+01  0.51100000000E-03 0. -1.
        -11    1    3    3    0    0  0.11716966381E+02 -0.10586727799E+01 -0.14130353389E+02  0.18386815287E+02  0.51100000000E-03 0.  1.
         12    1    3    3    0    0  0.12614531352E+02 -0.10300590367E+02 -0.16260490686E+02  0.23013737647E+02  0.00000000000E+00 0. -1.
</event>
<event>
 7    1  0.2900470E-011  0.5052885E+02  0.7816164E-02  0.1300439E+00
        -11   -1    0    0    0    0  0.00000000000E+00  0.00000000000E+00  0.45593999997E+02  0.45594000000E+02  0.51100000000E-03 0. -1.
         11   -1    0    0    0    0 -0.00000000000E+00 -0.00000000000E+00 -0.45593999997E+02  0.45594000000E+02  0.51100000000E-03 0.  1.
    9900012    2    1    2    0    0  0.26043436765E+02 -0.27844951897E+02 -0.14126727398E+02  0.50528851317E+02  0.29999974062E+02 0.  0.
         12    1    1    2    0    0 -0.26043436765E+02  0.27844951897E+02  0.14126727398E+02  0.40659148683E+02  0.00000000000E+00 0. -1.
         11    1    3    3    0    0  0.25527830157E+02 -0.13964103193E+02 -0.12421208675E+02  0.31637836774E+02  0.51100000000E-03 0.  1.
        -11    1    3    3    0    0  0.43350754148E+01 -0.75788505866E+01  0.39684211456E+01  0.95906319769E+01  0.51100000000E-03 0. -1.
         12    1    3    3    0    0 -0.38194688070E+01 -0.63019981173E+01 -0.56739398687E+01  0.93003825659E+01  0.00000000000E+00 0. -1.
</event>
<event>
 7    1  0.2900470E-011  0.5052886E+02  0.7816164E-02  0.1300439E+00
        -11   -1    0    0    0    0  0.00000000000E+00  0.00000000000E+00  0.45593999997E+02  0.45594000000E+02  0.51100000000E-03 0. -1.
         11   -1    0    0    0    0 -0.00000000000E+00 -0.00000000000E+00 -0.45593999997E+02  0.45594000000E+02  0.51100000000E-03 0.  1.
    9900012    2    1    2    0    0 -0.24283313153E+02 -0.29636424224E+02 -0.13607662109E+02  0.50528863185E+02  0.30000010138E+02 0.  0.
         12    1    1    2    0    0  0.24283313153E+02  0.29636424224E+02  0.13607662109E+02  0.40659136815E+02  0.00000000000E+00 0. -1.
         11    1    3    3    0    0 -0.45376385199E+01  0.41585516896E+01 -0.19826737568E+01  0.64664295387E+01  0.51100000000E-03 0. -1.
        -11    1    3    3    0    0 -0.22100907394E+02 -0.25443570242E+02 -0.10573901509E+02  0.35321845474E+02  0.51100000000E-03 0.  1.
         12    1    3    3    0    0  0.23552327614E+01 -0.83514056713E+01 -0.10510868430E+01  0.87405881724E+01  0.00000000000E+00 0. -1.
</event>
<event>
 7    1  0.2900470E-011  0.5052887E+02  0.7816164E-02  0.1300439E+00
        -11   -1    0    0    0    0  0.00000000000E+00  0.00000000000E+00  0.45593999997E+02  0.45594000000E+02  0.51100000000E-03 0.  1.
         11   -1    0    0    0    0 -0.00000000000E+00 -0.00000000000E+00 -0.45593999997E+02  0.45594000000E+02  0.51100000000E-03 0. -1.
    9900012    2    1    2    0    0 -0.11865764347E+02  0.38081052026E+02 -0.78868034817E+01  0.50528873643E+02  0.30000041926E+02 0.  0.
         12    1    1    2    0    0  0.11865764347E+02 -0.38081052026E+02  0.78868034817E+01  0.40659126357E+02  0.00000000000E+00 0. -1.
         11    1    3    3    0    0 -0.17839474310E+01  0.59530862554E+01 -0.14304069916E+02  0.15595772531E+02  0.51100000000E-03 0. -1.
        -11    1    3    3    0    0 -0.45626956612E+01  0.91280960752E+01  0.46499203017E+01  0.11214369743E+02  0.51100000000E-03 0.  1.
         12    1    3    3    0    0 -0.55191212543E+01  0.22999869695E+02  0.17673461330E+01  0.23718731370E+02  0.00000000000E+00 0. -1.
</event>
<event>
 7    1  0.2900470E-011  0.5052885E+02  0.7816164E-02  0.1300439E+00
        -11   -1    0    0    0    0  0.00000000000E+00  0.00000000000E+00  0.45593999997E+02  0.45594000000E+02  0.51100000000E-03 0.  1.
         11   -1    0    0    0    0 -0.00000000000E+00 -0.00000000000E+00 -0.45593999997E+02  0.45594000000E+02  0.51100000000E-03 0. -1.
    9900012    2    1    2    0    0  0.26636046402E+02  0.29763675019E+02 -0.76033630660E+01  0.50528850372E+02  0.29999971190E+02 0.  0.
         12    1    1    2    0    0 -0.26636046402E+02 -0.29763675019E+02  0.76033630660E+01  0.40659149628E+02  0.00000000000E+00 0. -1.
         11    1    3    3    0    0  0.27094868752E+01 -0.98138836450E+00  0.71790276896E+01  0.77358180614E+01  0.51100000000E-03 0. -1.
        -11    1    3    3    0    0  0.24201613861E+02  0.29561333725E+02 -0.15664627388E+02  0.41291295893E+02  0.51100000000E-03 0.  1.
        -12    1    3    3    0    0 -0.27505433414E+00  0.11837296593E+01  0.88223663217E+00  0.15017364177E+01  0.00000000000E+00 0.  1.
</event>
<event>
 7    1  0.2900470E-011  0.5052886E+02  0.7816164E-02  0.1300439E+00
        -11   -1    0    0    0    0  0.00000000000E+00  0.00000000000E+00  0.45593999997E+02  0.45594000000E+02  0.51100000000E-03 0.  1.
         11   -1    0    0    0    0 -0.00000000000E+00 -0.00000000000E+00 -0.45593999997E+02  0.45594000000E+02  0.51100000000E-03 0. -1.
    9900012    2    1    2    0    0 -0.43084579030E+01 -0.34331781492E+02  0.21352550726E+02  0.50528862621E+02  0.30000008423E+02 0.  0.
         12    1    1    2    0    0  0.43084579030E+01  0.34331781492E+02 -0.21352550726E+02  0.40659137379E+02  0.00000000000E+00 0. -1.
         11    1    3    3    0    0 -0.47425503387E+01 -0.15068658954E+02  0.49886518821E+01  0.16566318670E+02  0.51100000000E-03 0.  1.
        -11    1    3    3    0    0  0.91787622027E+01 -0.72193647629E+01 -0.21924824640E+00  0.11679767686E+02  0.51100000000E-03 0. -1.
        -12    1    3    3    0    0 -0.87446697670E+01 -0.12043757774E+02  0.16583147090E+02  0.22282776265E+02  0.00000000000E+00 0.  1.
</event>
<event>
 7    1  0.2900470E-011  0.5052885E+02  0.7816164E-02  0.1300439E+00
        -11   -1    0    0    0    0  0.00000000000E+00  0.00000000000E+00  0.45593999997E+02  0.45594000000E+02  0.51100000000E-03 0.  1.
         11   -1    0    0    0    0 -0.00000000000E+00 -0.00000000000E+00 -0.45593999997E+02  0.45594000000E+02  0.51100000000E-03 0. -1.
    9900012    2    1    2    0    0 -0.14787888982E+01 -0.27314445215E+02  0.30081561706E+02  0.50528854797E+02  0.29999984640E+02 0.  0.
         12    1    1    2    0    0  0.14787888982E+01  0.27314445215E+02 -0.30081561706E+02  0.40659145203E+02  0.00000000000E+00 0. -1.
         11    1    3    3    0    0  0.38159162486E+01 -0.11314483328E+02  0.24609506417E+01  0.12191596618E+02  0.51100000000E-03 0. -1.
        -11    1    3    3    0    0 -0.12024539053E+02 -0.43208671972E+01  0.16459829439E+02  0.20837116359E+02  0.51100000000E-03 0.  1.
        -12    1    3    3    0    0  0.67298339059E+01 -0.11679094690E+02  0.11160781626E+02  0.17500141819E+02  0.00000000000E+00 0.  1.
</event>
<event>
 7    1  0.2900470E-011  0.5052891E+02  0.7816164E-02  0.1300439E+00
        -11   -1    0    0    0    0  0.00000000000E+00  0.00000000000E+00  0.45593999997E+02  0.45594000000E+02  0.51100000000E-03 0.  1.
         11   -1    0    0    0    0 -0.00000000000E+00 -0.00000000000E+00 -0.45593999997E+02  0.45594000000E+02  0.51100000000E-03 0. -1.
    9900012    2    1    2    0    0  0.17113655218E+02 -0.31206113199E+02  0.19658670076E+02  0.50528905014E+02  0.30000137279E+02 0.  0.
         12    1    1    2    0    0 -0.17113655218E+02  0.31206113199E+02 -0.19658670076E+02  0.40659094986E+02  0.00000000000E+00 0. -1.
         11    1    3    3    0    0  0.15182051659E+01 -0.38232147578E+00  0.14807467229E+02  0.14890003446E+02  0.51100000000E-03 0. -1.
        -11    1    3    3    0    0  0.11080334910E+01 -0.46125565807E+01  0.30428946628E+01  0.56358339771E+01  0.51100000000E-03 0.  1.
         12    1    3    3    0    0  0.14487416562E+02 -0.26211235143E+02  0.18083081846E+01  0.30003067590E+02  0.00000000000E+00 0. -1.
</event>
<event>
 7    1  0.2900470E-011  0.5052882E+02  0.7816164E-02  0.1300439E+00
        -11   -1    0    0    0    0  0.00000000000E+00  0.00000000000E+00  0.45593999997E+02  0.45594000000E+02  0.51100000000E-03 0. -1.
         11   -1    0    0    0    0 -0.00000000000E+00 -0.00000000000E+00 -0.45593999997E+02  0.45594000000E+02  0.51100000000E-03 0.  1.
    9900012    2    1    2    0    0  0.14765127342E+02  0.20812925285E+02 -0.31654104580E+02  0.50528816768E+02  0.29999869048E+02 0.  0.
         12    1    1    2    0    0 -0.14765127342E+02 -0.20812925285E+02  0.31654104580E+02  0.40659183232E+02  0.00000000000E+00 0. -1.
         11    1    3    3    0    0  0.31581253048E+01 -0.41642323683E+01 -0.47611220762E+01  0.70698564585E+01  0.51100000000E-03 0. -1.
        -11    1    3    3    0    0  0.15772904128E+02  0.14061786280E+02 -0.11263799973E+02  0.23945595171E+02  0.51100000000E-03 0.  1.
        -12    1    3    3    0    0 -0.41659020910E+01  0.10915371373E+02 -0.15629182531E+02  0.19513365138E+02  0.00000000000E+00 0.  1.
</event>
<event>
 7    1  0.2900470E-011  0.5052887E+02  0.7816164E-02  0.1300439E+00
        -11   -1    0    0    0    0  0.00000000000E+00  0.00000000000E+00  0.45593999997E+02  0.45594000000E+02  0.51100000000E-03 0.  1.
         11   -1    0    0    0    0 -0.00000000000E+00 -0.00000000000E+00 -0.45593999997E+02  0.45594000000E+02  0.51100000000E-03 0. -1.
    9900012    2    1    2    0    0  0.10001858406E+01  0.35297583336E+01  0.40493277969E+02  0.50528866631E+02  0.30000020613E+02 0.  0.
         12    1    1    2    0    0 -0.10001858406E+01 -0.35297583336E+01 -0.40493277969E+02  0.40659133369E+02  0.00000000000E+00 0. -1.
         11    1    3    3    0    0 -0.23794252719E+01 -0.57670001422E+01  0.13813137051E+02  0.15156606174E+02  0.51100000000E-03 0. -1.
        -11    1    3    3    0    0  0.76965137670E+01  0.14443273334E+02  0.20618713982E+02  0.26324434187E+02  0.51100000000E-03 0.  1.
        -12    1    3    3    0    0 -0.43169026545E+01 -0.51465148578E+01  0.60614269363E+01  0.90478262701E+01  0.00000000000E+00 0.  1.
</event>
<event>
 7    1  0.2900470E-011  0.5052887E+02  0.7816164E-02  0.1300439E+00
        -11   -1    0    0    0    0  0.00000000000E+00  0.00000000000E+00  0.45593999997E+02  0.45594000000E+02  0.51100000000E-03 0.  1.
         11   -1    0    0    0    0 -0.00000000000E+00 -0.00000000000E+00 -0.45593999997E+02  0.45594000000E+02  0.51100000000E-03 0. -1.
    9900012    2    1    2    0    0 -0.11382871300E+02  0.77241922220E+01  0.38261363055E+02  0.50528870553E+02  0.30000032533E+02 0.  0.
         12    1    1    2    0    0  0.11382871300E+02 -0.77241922220E+01 -0.38261363055E+02  0.40659129447E+02  0.00000000000E+00 0. -1.
         11    1    3    3    0    0 -0.52339553216E+01  0.58978083159E+01  0.13688931203E+01  0.80032680747E+01  0.51100000000E-03 0. -1.
        -11    1    3    3    0    0  0.20221388226E+01 -0.49216260256E+01  0.28541859912E+02  0.29033587716E+02  0.51100000000E-03 0.  1.
        -12    1    3    3    0    0 -0.81710548008E+01  0.67480099317E+01  0.83506100228E+01  0.13492014762E+02  0.00000000000E+00 0.  1.
</event>
<event>
 7    1  0.2900470E-011  0.5052886E+02  0.7816164E-02  0.1300439E+00
        -11   -1    0    0    0    0  0.00000000000E+00  0.00000000000E+00  0.45593999997E+02  0.45594000000E+02  0.51100000000E-03 0.  1.
         11   -1    0    0    0    0 -0.00000000000E+00 -0.00000000000E+00 -0.45593999997E+02  0.45594000000E+02  0.51100000000E-03 0. -1.
    9900012    2    1    2    0    0  0.96550378085E+01  0.11164157055E+02  0.37885455178E+02  0.50528857462E+02  0.29999992742E+02 0.  0.
         12    1    1    2    0    0 -0.96550378085E+01 -0.11164157055E+02 -0.37885455178E+02  0.40659142538E+02  0.00000000000E+00 0. -1.
         11    1    3    3    0    0  0.29108717397E+01 -0.85264341017E+01  0.11012235439E+02  0.14228231879E+02  0.51100000000E-03 0. -1.
        -11    1    3    3    0    0 -0.17459372439E+01  0.11127796186E+02  0.76770050831E+01  0.13631307792E+02  0.51100000000E-03 0.  1.
         12    1    3    3    0    0  0.84901033126E+01  0.85627949710E+01  0.19196214657E+02  0.22669317791E+02  0.00000000000E+00 0. -1.
</event>
<event>
 7    1  0.2900470E-011  0.5052886E+02  0.7816164E-02  0.1300439E+00
        -11   -1    0    0    0    0  0.00000000000E+00  0.00000000000E+00  0.45593999997E+02  0.45594000000E+02  0.51100000000E-03 0.  1.
         11   -1    0    0    0    0 -0.00000000000E+00 -0.00000000000E+00 -0.45593999997E+02  0.45594000000E+02  0.51100000000E-03 0. -1.
    9900012    2    1    2    0    0  0.21325871522E+02 -0.31700616171E+02  0.13908396469E+02  0.50528863830E+02  0.30000012096E+02 0.  0.
         12    1    1    2    0    0 -0.21325871522E+02  0.31700616171E+02 -0.13908396469E+02  0.40659136170E+02  0.00000000000E+00 0. -1.
         11    1    3    3    0    0  0.79498205419E+00 -0.70946591134E+01  0.90201566790E+01  0.11503452142E+02  0.51100000000E-03 0. -1.
        -11    1    3    3    0    0  0.11561307052E+02 -0.22258888745E+02 -0.48854875105E+01  0.25553667788E+02  0.51100000000E-03 0.  1.
        -12    1    3    3    0    0  0.89695824154E+01 -0.23470683126E+01  0.97737273003E+01  0.13471743900E+02  0.00000000000E+00 0.  1.
</event>
<event>
 7    1  0.2900470E-011  0.5052886E+02  0.7816164E-02  0.1300439E+00
        -11   -1    0    0    0    0  0.00000000000E+00  0.00000000000E+00  0.45593999997E+02  0.45594000000E+02  0.51100000000E-03 0. -1.
         11   -1    0    0    0    0 -0.00000000000E+00 -0.00000000000E+00 -0.45593999997E+02  0.45594000000E+02  0.51100000000E-03 0.  1.
    9900012    2    1    2    0    0 -0.31640583222E+02 -0.24700601947E+02 -0.64745025376E+01  0.50528862942E+02  0.30000009399E+02 0.  0.
         12    1    1    2    0    0  0.31640583222E+02  0.24700601947E+02  0.64745025376E+01  0.40659137058E+02  0.00000000000E+00 0. -1.
         11    1    3    3    0    0  0.32439170850E+01  0.14119600822E+01  0.82300628776E+00  0.36323503326E+01  0.51100000000E-03 0. -1.
        -11    1    3    3    0    0 -0.33025739891E+02 -0.17767335709E+02 -0.79029618903E+01  0.38325376977E+02  0.51100000000E-03 0.  1.
         12    1    3    3    0    0 -0.18587604165E+01 -0.83452263201E+01  0.60545306495E+00  0.85711356326E+01  0.00000000000E+00 0. -1.
</event>
<event>
 7    1  0.2900470E-011  0.5052886E+02  0.7816164E-02  0.1300439E+00
        -11   -1    0    0    0    0  0.00000000000E+00  0.00000000000E+00  0.45593999997E+02  0.45594000000E+02  0.51100000000E-03 0.  1.
         11   -1    0    0    0    0 -0.00000000000E+00 -0.00000000000E+00 -0.45593999997E+02  0.45594000000E+02  0.51100000000E-03 0. -1.
    9900012    2    1    2    0    0 -0.19575962341E+02 -0.28205684520E+02 -0.21780416401E+02  0.50528862289E+02  0.30000007413E+02 0.  0.
         12    1    1    2    0    0  0.19575962341E+02  0.28205684520E+02  0.21780416401E+02  0.40659137711E+02  0.00000000000E+00 0. -1.
         11    1    3    3    0    0 -0.15739208015E+02 -0.11383001617E+01 -0.30619541022E+01  0.16074637146E+02  0.51100000000E-03 0. -1.
        -11    1    3    3    0    0  0.88600012844E+00 -0.15412273008E+02 -0.59839062845E+01  0.16556880448E+02  0.51100000000E-03 0.  1.
        -12    1    3    3    0    0 -0.47227544545E+01 -0.11655111350E+02 -0.12734556014E+02  0.17897344694E+02  0.00000000000E+00 0.  1.
</event>
<event>
 7    1  0.2900470E-011  0.5052887E+02  0.7816164E-02  0.1300439E+00
        -11   -1    0    0    0    0  0.00000000000E+00  0.00000000000E+00  0.45593999997E+02  0.45594000000E+02  0.51100000000E-03 0. -1.
         11   -1    0    0    0    0 -0.00000000000E+00 -0.00000000000E+00 -0.45593999997E+02  0.45594000000E+02  0.51100000000E-03 0.  1.
    9900012    2    1    2    0    0 -0.37431018790E+02  0.22341814927E+01  0.15719161164E+02  0.50528871107E+02  0.30000034218E+02 0.  0.
         12    1    1    2    0    0  0.37431018790E+02 -0.22341814927E+01 -0.15719161164E+02  0.40659128893E+02  0.00000000000E+00 0. -1.
         11    1    3    3    0    0 -0.20666400513E-01  0.17129297966E+01  0.13440386882E+01  0.21773827970E+01  0.51100000000E-03 0. -1.
        -11    1    3    3    0    0 -0.32593604218E+02 -0.57224626705E+01  0.19998912691E+02  0.38665826308E+02  0.51100000000E-03 0.  1.
        -12    1    3    3    0    0 -0.48167481714E+01  0.62437143667E+01 -0.56237902158E+01  0.96856620027E+01  0.00000000000E+00 0.  1.
</event>
<event>
 7    1  0.2900470E-011  0.5052886E+02  0.7816164E-02  0.1300439E+00
        -11   -1    0    0    0    0  0.00000000000E+00  0.00000000000E+00  0.45593999997E+02  0.45594000000E+02  0.51100000000E-03 0.  1.
         11   -1    0    0    0    0 -0.00000000000E+00 -0.00000000000E+00 -0.45593999997E+02  0.45594000000E+02  0.51100000000E-03 0. -1.
    9900012    2    1    2    0    0  0.42612859595E+01  0.73326594467E+01  0.39764796590E+02  0.50528862030E+02  0.30000006626E+02 0.  0.
         12    1    1    2    0    0 -0.42612859595E+01 -0.73326594467E+01 -0.39764796590E+02  0.40659137970E+02  0.00000000000E+00 0. -1.
         11    1    3    3    0    0  0.21318855374E+01 -0.55737962890E+01  0.23041294297E+02  0.23801541634E+02  0.51100000000E-03 0.  1.
        -11    1    3    3    0    0 -0.59812719206E+01  0.54307386116E+01  0.19866038868E+01  0.83195631448E+01  0.51100000000E-03 0. -1.
        -12    1    3    3    0    0  0.81106723427E+01  0.74757171242E+01  0.14736898406E+02  0.18407757251E+02  0.00000000000E+00 0.  1.
</event>
<event>
 7    1  0.2900470E-011  0.5052881E+02  0.7816164E-02  0.1300439E+00
        -11   -1    0    0    0    0  0.00000000000E+00  0.00000000000E+00  0.45593999997E+02  0.45594000000E+02  0.51100000000E-03 0.  1.
         11   -1    0    0    0    0 -0.00000000000E+00 -0.00000000000E+00 -0.45593999997E+02  0.45594000000E+02  0.51100000000E-03 0. -1.
    9900012    2    1    2    0    0 -0.25922910557E+02  0.96690220573E+01  0.29793995130E+02  0.50528813768E+02  0.29999859929E+02 0.  0.
         12    1    1    2    0    0  0.25922910557E+02 -0.96690220573E+01 -0.29793995130E+02  0.40659186232E+02  0.00000000000E+00 0. -1.
         11    1    3    3    0    0  0.47670311740E+01  0.13724253911E+01 -0.15880862437E+01  0.52086616176E+01  0.51100000000E-03 0. -1.
        -11    1    3    3    0    0 -0.26051554852E+02  0.95394516862E+01  0.25096318282E+02  0.37410023259E+02  0.51100000000E-03 0.  1.
         12    1    3    3    0    0 -0.46383868788E+01 -0.12428550200E+01  0.62857630911E+01  0.79101288912E+01  0.00000000000E+00 0. -1.
</event>
<event>
 7    1  0.2900470E-011  0.5052886E+02  0.7816164E-02  0.1300439E+00
        -11   -1    0    0    0    0  0.00000000000E+00  0.00000000000E+00  0.45593999997E+02  0.45594000000E+02  0.51100000000E-03 0. -1.
         11   -1    0    0    0    0 -0.00000000000E+00 -0.00000000000E+00 -0.45593999997E+02  0.45594000000E+02  0.51100000000E-03 0.  1.
    9900012    2    1    2    0    0  0.28022634838E+02  0.28724251731E+02 -0.65433316980E+01  0.50528857234E+02  0.29999992048E+02 0.  0.
         12    1    1    2    0    0 -0.28022634838E+02 -0.28724251731E+02  0.65433316980E+01  0.40659142766E+02  0.00000000000E+00 0. -1.
         11    1    3    3    0    0  0.18015808247E+02  0.81503251762E+01  0.32063088658E+01  0.20031913640E+02  0.51100000000E-03 0. -1.
        -11    1    3    3    0    0  0.10950891443E+02  0.21545226290E+02 -0.12662357099E+02  0.27284685940E+02  0.51100000000E-03 0.  1.
        -12    1    3    3    0    0 -0.94406485206E+00 -0.97129973480E+00  0.29127165353E+01  0.32122576539E+01  0.00000000000E+00 0.  1.
</event>
<event>
 7    1  0.2900470E-011  0.5052885E+02  0.7816164E-02  0.1300439E+00
        -11   -1    0    0    0    0  0.00000000000E+00  0.00000000000E+00  0.45593999997E+02  0.45594000000E+02  0.51100000000E-03 0.  1.
         11   -1    0    0    0    0 -0.00000000000E+00 -0.00000000000E+00 -0.45593999997E+02  0.45594000000E+02  0.51100000000E-03 0. -1.
    9900012    2    1    2    0    0 -0.21321420020E+02  0.29518981306E+02  0.18088483819E+02  0.50528850281E+02  0.29999970914E+02 0.  0.
         12    1    1    2    0    0  0.21321420020E+02 -0.29518981306E+02 -0.18088483819E+02  0.40659149719E+02  0.00000000000E+00 0. -1.
         11    1    3    3    0    0  0.41801503313E+01  0.20616074862E+01 -0.21593642738E+01  0.51368021714E+01  0.51100000000E-03 0. -1.
        -11    1    3    3    0    0 -0.10281823002E+02  0.28162713514E+01  0.10150060798E+02  0.14719748742E+02  0.51100000000E-03 0.  1.
         12    1    3    3    0    0 -0.15219747349E+02  0.24641102468E+02  0.10097787295E+02  0.30672299367E+02  0.00000000000E+00 0. -1.
</event>
<event>
 7    1  0.2900470E-011  0.5052887E+02  0.7816164E-02  0.1300439E+00
        -11   -1    0    0    0    0  0.00000000000E+00  0.00000000000E+00  0.45593999997E+02  0.45594000000E+02  0.51100000000E-03 0.  1.
         11   -1    0    0    0    0 -0.00000000000E+00 -0.00000000000E+00 -0.45593999997E+02  0.45594000000E+02  0.51100000000E-03 0. -1.
    9900012    2    1    2    0    0  0.19966207239E+02 -0.51946885213E+01  0.35036136587E+02  0.50528867111E+02  0.30000022070E+02 0.  0.
         12    1    1    2    0    0 -0.19966207239E+02  0.51946885213E+01 -0.35036136587E+02  0.40659132889E+02  0.00000000000E+00 0. -1.
         11    1    3    3    0    0  0.19506919003E+02  0.32274087228E+01  0.10559324033E+02  0.22415070384E+02  0.51100000000E-03 0. -1.
        -11    1    3    3    0    0 -0.52140038657E+01 -0.33088804724E+01  0.10247608549E+02  0.11964447649E+02  0.51100000000E-03 0.  1.
        -12    1    3    3    0    0  0.56732921022E+01 -0.51132167718E+01  0.14229204005E+02  0.16149349078E+02  0.00000000000E+00 0.  1.
</event>
<event>
 7    1  0.2900470E-011  0.5052886E+02  0.7816164E-02  0.1300439E+00
        -11   -1    0    0    0    0  0.00000000000E+00  0.00000000000E+00  0.45593999997E+02  0.45594000000E+02  0.51100000000E-03 0.  1.
         11   -1    0    0    0    0 -0.00000000000E+00 -0.00000000000E+00 -0.45593999997E+02  0.45594000000E+02  0.51100000000E-03 0. -1.
    9900012    2    1    2    0    0 -0.91207412815E+00  0.21012672669E+01  0.40594557117E+02  0.50528864854E+02  0.30000015209E+02 0.  0.
         12    1    1    2    0    0  0.91207412815E+00 -0.21012672669E+01 -0.40594557117E+02  0.40659135146E+02  0.00000000000E+00 0. -1.
         11    1    3    3    0    0 -0.48182737857E+01  0.36863120348E+01 -0.18327168310E+01  0.63374687325E+01  0.51100000000E-03 0. -1.
        -11    1    3    3    0    0  0.15585064007E+01 -0.66225300588E+01  0.23189596725E+02  0.24167007326E+02  0.51100000000E-03 0.  1.
         12    1    3    3    0    0  0.23476932568E+01  0.50374852910E+01  0.19237677223E+02  0.20024388795E+02  0.00000000000E+00 0. -1.
</event>
<event>
 7    1  0.2900470E-011  0.5052885E+02  0.7816164E-02  0.1300439E+00
        -11   -1    0    0    0    0  0.00000000000E+00  0.00000000000E+00  0.45593999997E+02  0.45594000000E+02  0.51100000000E-03 0. -1.
         11   -1    0    0    0    0 -0.00000000000E+00 -0.00000000000E+00 -0.45593999997E+02  0.45594000000E+02  0.51100000000E-03 0.  1.
    9900012    2    1    2    0    0  0.18144733364E+02  0.36255551993E+02  0.30772945583E+01  0.50528854154E+02  0.29999982685E+02 0.  0.
         12    1    1    2    0    0 -0.18144733364E+02 -0.36255551993E+02 -0.30772945583E+01  0.40659145846E+02  0.00000000000E+00 0. -1.
         11    1    3    3    0    0 -0.60153163127E+00  0.83003290697E+00 -0.75098078191E+01  0.75794464620E+01  0.51100000000E-03 0. -1.
        -11    1    3    3    0    0  0.56290819420E+01  0.17249025262E+02  0.95643726674E+01  0.20510793763E+02  0.51100000000E-03 0.  1.
         12    1    3    3    0    0  0.13117183053E+02  0.18176493824E+02  0.10227297099E+01  0.22438613928E+02  0.00000000000E+00 0. -1.
</event>
<event>
 7    1  0.2900470E-011  0.5052885E+02  0.7816164E-02  0.1300439E+00
        -11   -1    0    0    0    0  0.00000000000E+00  0.00000000000E+00  0.45593999997E+02  0.45594000000E+02  0.51100000000E-03 0.  1.
         11   -1    0    0    0    0 -0.00000000000E+00 -0.00000000000E+00 -0.45593999997E+02  0.45594000000E+02  0.51100000000E-03 0. -1.
    9900012    2    1    2    0    0 -0.30295184472E+02 -0.25838972863E+01 -0.26994289675E+02  0.50528850938E+02  0.29999972912E+02 0.  0.
         12    1    1    2    0    0  0.30295184472E+02  0.25838972863E+01  0.26994289675E+02  0.40659149062E+02  0.00000000000E+00 0. -1.
         11    1    3    3    0    0 -0.14743514556E+02 -0.21607034699E+01 -0.21601636955E+02  0.26242533802E+02  0.51100000000E-03 0. -1.
        -11    1    3    3    0    0 -0.37564005710E+01 -0.69705991787E+01  0.29208180644E+01  0.84398445831E+01  0.51100000000E-03 0.  1.
         12    1    3    3    0    0 -0.11795269345E+02  0.65474053624E+01 -0.83134707845E+01  0.15846472554E+02  0.00000000000E+00 0. -1.
</event>
<event>
 7    1  0.2900470E-011  0.5052883E+02  0.7816164E-02  0.1300439E+00
        -11   -1    0    0    0    0  0.00000000000E+00  0.00000000000E+00  0.45593999997E+02  0.45594000000E+02  0.51100000000E-03 0.  1.
         11   -1    0    0    0    0 -0.00000000000E+00 -0.00000000000E+00 -0.45593999997E+02  0.45594000000E+02  0.51100000000E-03 0. -1.
    9900012    2    1    2    0    0 -0.19793685779E+02  0.27679158237E+02  0.22254037253E+02  0.50528831643E+02  0.29999914262E+02 0.  0.
         12    1    1    2    0    0  0.19793685779E+02 -0.27679158237E+02 -0.22254037253E+02  0.40659168357E+02  0.00000000000E+00 0. -1.
         11    1    3    3    0    0 -0.17567584025E+02  0.43881357936E+01  0.17813789401E+02  0.25400921977E+02  0.51100000000E-03 0. -1.
        -11    1    3    3    0    0 -0.46398673522E+01  0.20505611884E+02  0.33909566772E+01  0.21295705558E+02  0.51100000000E-03 0.  1.
         12    1    3    3    0    0  0.24137655987E+01  0.27854105598E+01  0.10492911750E+01  0.38322041076E+01  0.00000000000E+00 0. -1.
</event>
<event>
 7    1  0.2900470E-011  0.5052886E+02  0.7816164E-02  0.1300439E+00
        -11   -1    0    0    0    0  0.00000000000E+00  0.00000000000E+00  0.45593999997E+02  0.45594000000E+02  0.51100000000E-03 0. -1.
         11   -1    0    0    0    0 -0.00000000000E+00 -0.00000000000E+00 -0.45593999997E+02  0.45594000000E+02  0.51100000000E-03 0.  1.
    9900012    2    1    2    0    0  0.32671385718E+02 -0.17622091550E+02  0.16589390500E+02  0.50528862866E+02  0.30000009168E+02 0.  0.
         12    1    1    2    0    0 -0.32671385718E+02  0.17622091550E+02 -0.16589390500E+02  0.40659137134E+02  0.00000000000E+00 0. -1.
         11    1    3    3    0    0  0.10253747979E+02 -0.17227753971E+02  0.15685749164E+02  0.25455403780E+02  0.51100000000E-03 0. -1.
        -11    1    3    3    0    0  0.14272667288E+02 -0.49954553406E+00 -0.48702497384E+01  0.15088999636E+02  0.51100000000E-03 0.  1.
         12    1    3    3    0    0  0.81449704507E+01  0.10520795518E+00  0.57738910749E+01  0.99844594496E+01  0.00000000000E+00 0. -1.
</event>
<event>
 7    1  0.2900470E-011  0.5052889E+02  0.7816164E-02  0.1300439E+00
        -11   -1    0    0    0    0  0.00000000000E+00  0.00000000000E+00  0.45593999997E+02  0.45594000000E+02  0.51100000000E-03 0.  1.
         11   -1    0    0    0    0 -0.00000000000E+00 -0.00000000000E+00 -0.45593999997E+02  0.45594000000E+02  0.51100000000E-03 0. -1.
    9900012    2    1    2    0    0 -0.32666060307E+02  0.33356291395E+01  0.23978426115E+02  0.50528894787E+02  0.30000106196E+02 0.  0.
         12    1    1    2    0    0  0.32666060307E+02 -0.33356291395E+01 -0.23978426115E+02  0.40659105213E+02  0.00000000000E+00 0. -1.
         11    1    3    3    0    0 -0.14616243782E+02  0.71312971060E+01 -0.86866777340E+00  0.16286330608E+02  0.51100000000E-03 0. -1.
        -11    1    3    3    0    0 -0.14877709762E+02  0.24281307246E+01  0.22066366582E+02  0.26723895692E+02  0.51100000000E-03 0.  1.
        -12    1    3    3    0    0 -0.31721067626E+01 -0.62237986912E+01  0.27807273065E+01  0.75186684869E+01  0.00000000000E+00 0.  1.
</event>
<event>
 7    1  0.2900470E-011  0.5052886E+02  0.7816164E-02  0.1300439E+00
        -11   -1    0    0    0    0  0.00000000000E+00  0.00000000000E+00  0.45593999997E+02  0.45594000000E+02  0.51100000000E-03 0. -1.
         11   -1    0    0    0    0 -0.00000000000E+00 -0.00000000000E+00 -0.45593999997E+02  0.45594000000E+02  0.51100000000E-03 0.  1.
    9900012    2    1    2    0    0 -0.12557434119E+02 -0.24147257263E+02 -0.30205730565E+02  0.50528863954E+02  0.30000012475E+02 0.  0.
         12    1    1    2    0    0  0.12557434119E+02  0.24147257263E+02  0.30205730565E+02  0.40659136046E+02  0.00000000000E+00 0. -1.
         11    1    3    3    0    0  0.23681121262E+01 -0.90187999197E+01 -0.64846598086E+01  0.11357707521E+02  0.51100000000E-03 0. -1.
        -11    1    3    3    0    0 -0.12896013672E+02  0.17051354564E+00 -0.19126812365E+02  0.23068836013E+02  0.51100000000E-03 0.  1.
        -12    1    3    3    0    0 -0.20295325734E+01 -0.15298970889E+02 -0.45942583914E+01  0.16102320420E+02  0.00000000000E+00 0.  1.
</event>
<event>
 7    1  0.2900470E-011  0.5052886E+02  0.7816164E-02  0.1300439E+00
        -11   -1    0    0    0    0  0.00000000000E+00  0.00000000000E+00  0.45593999997E+02  0.45594000000E+02  0.51100000000E-03 0.  1.
         11   -1    0    0    0    0 -0.00000000000E+00 -0.00000000000E+00 -0.45593999997E+02  0.45594000000E+02  0.51100000000E-03 0. -1.
    9900012    2    1    2    0    0  0.12946122504E+02  0.29289066912E+02  0.25054219818E+02  0.50528862538E+02  0.30000008170E+02 0.  0.
         12    1    1    2    0    0 -0.12946122504E+02 -0.29289066912E+02 -0.25054219818E+02  0.40659137462E+02  0.00000000000E+00 0. -1.
         11    1    3    3    0    0  0.24760492473E+01  0.15292407032E+01  0.49871411609E+00  0.29526450911E+01  0.51100000000E-03 0. -1.
        -11    1    3    3    0    0  0.58726713954E+01 -0.34904683935E+01  0.11545230940E+02  0.13415066032E+02  0.51100000000E-03 0.  1.
        -12    1    3    3    0    0  0.45974018618E+01  0.31250294602E+02  0.13010274762E+02  0.34161151415E+02  0.00000000000E+00 0.  1.
</event>
<event>
 7    1  0.2900470E-011  0.5052888E+02  0.7816164E-02  0.1300439E+00
        -11   -1    0    0    0    0  0.00000000000E+00  0.00000000000E+00  0.45593999997E+02  0.45594000000E+02  0.51100000000E-03 0.  1.
         11   -1    0    0    0    0 -0.00000000000E+00 -0.00000000000E+00 -0.45593999997E+02  0.45594000000E+02  0.51100000000E-03 0. -1.
    9900012    2    1    2    0    0  0.31899920073E+02  0.17953055208E+02  0.17698790408E+02  0.50528877114E+02  0.30000052476E+02 0.  0.
         12    1    1    2    0    0 -0.31899920073E+02 -0.17953055208E+02 -0.17698790408E+02  0.40659122886E+02  0.00000000000E+00 0. -1.
         11    1    3    3    0    0  0.29493141993E+01  0.36592259646E+00 -0.36307415601E+01  0.46919759303E+01  0.51100000000E-03 0. -1.
        -11    1    3    3    0    0  0.18605113804E+02  0.22013887285E+02  0.18447413779E+02  0.34220879131E+02  0.51100000000E-03 0.  1.
        -12    1    3    3    0    0  0.10345492069E+02 -0.44267546732E+01  0.28821181890E+01  0.11616022053E+02  0.00000000000E+00 0.  1.
</event>
<event>
 7    1  0.2900470E-011  0.5052886E+02  0.7816164E-02  0.1300439E+00
        -11   -1    0    0    0    0  0.00000000000E+00  0.00000000000E+00  0.45593999997E+02  0.45594000000E+02  0.51100000000E-03 0. -1.
         11   -1    0    0    0    0 -0.00000000000E+00 -0.00000000000E+00 -0.45593999997E+02  0.45594000000E+02  0.51100000000E-03 0.  1.
    9900012    2    1    2    0    0 -0.33594522955E+02  0.89157553788E+01 -0.21096983637E+02  0.50528863449E+02  0.30000010939E+02 0.  0.
         12    1    1    2    0    0  0.33594522955E+02 -0.89157553788E+01  0.21096983637E+02  0.40659136551E+02  0.00000000000E+00 0. -1.
         11    1    3    3    0    0  0.39014135801E+00  0.89111114176E+01 -0.16271809174E+01  0.90668536425E+01  0.51100000000E-03 0. -1.
        -11    1    3    3    0    0 -0.29504561115E+02  0.49458322136E+01 -0.16446712284E+02  0.34139049900E+02  0.51100000000E-03 0.  1.
        -12    1    3    3    0    0 -0.44801031981E+01 -0.49411882524E+01 -0.30230904354E+01  0.73229599065E+01  0.00000000000E+00 0.  1.
</event>
<event>
 7    1  0.2900470E-011  0.5052887E+02  0.7816164E-02  0.1300439E+00
        -11   -1    0    0    0    0  0.00000000000E+00  0.00000000000E+00  0.45593999997E+02  0.45594000000E+02  0.51100000000E-03 0. -1.
         11   -1    0    0    0    0 -0.00000000000E+00 -0.00000000000E+00 -0.45593999997E+02  0.45594000000E+02  0.51100000000E-03 0.  1.
    9900012    2    1    2    0    0  0.32389162252E+01 -0.32536338793E+02 -0.24167359228E+02  0.50528866065E+02  0.30000018890E+02 0.  0.
         12    1    1    2    0    0 -0.32389162252E+01  0.32536338793E+02  0.24167359228E+02  0.40659133935E+02  0.00000000000E+00 0. -1.
         11    1    3    3    0    0  0.12581605404E+02 -0.95367600944E+01 -0.23355182058E+01  0.15959361929E+02  0.51100000000E-03 0. -1.
        -11    1    3    3    0    0 -0.54821343375E+01 -0.16362669593E+02 -0.20467079401E+02  0.26771105554E+02  0.51100000000E-03 0.  1.
        -12    1    3    3    0    0 -0.38605548413E+01 -0.66369091048E+01 -0.13647616207E+01  0.77983985811E+01  0.00000000000E+00 0.  1.
</event>
<event>
 7    1  0.2900470E-011  0.5052886E+02  0.7816164E-02  0.1300439E+00
        -11   -1    0    0    0    0  0.00000000000E+00  0.00000000000E+00  0.45593999997E+02  0.45594000000E+02  0.51100000000E-03 0.  1.
         11   -1    0    0    0    0 -0.00000000000E+00 -0.00000000000E+00 -0.45593999997E+02  0.45594000000E+02  0.51100000000E-03 0. -1.
    9900012    2    1    2    0    0 -0.16637911161E+02 -0.40921522902E+00  0.37096878450E+02  0.50528856678E+02  0.29999990359E+02 0.  0.
         12    1    1    2    0    0  0.16637911161E+02  0.40921522902E+00 -0.37096878450E+02  0.40659143322E+02  0.00000000000E+00 0. -1.
         11    1    3    3    0    0  0.33591484717E+01  0.12859063473E+01  0.10782646768E+02  0.11366745584E+02  0.51100000000E-03 0. -1.
        -11    1    3    3    0    0 -0.23125540562E+02 -0.32653341443E+01  0.26888136392E+02  0.35614953492E+02  0.51100000000E-03 0.  1.
        -12    1    3    3    0    0  0.31284809295E+01  0.15702125679E+01 -0.57390471005E+00  0.35471576017E+01  0.00000000000E+00 0.  1.
</event>
<event>
 7    1  0.2900470E-011  0.5052886E+02  0.7816164E-02  0.1300439E+00
        -11   -1    0    0    0    0  0.00000000000E+00  0.00000000000E+00  0.45593999997E+02  0.45594000000E+02  0.51100000000E-03 0.  1.
         11   -1    0    0    0    0 -0.00000000000E+00 -0.00000000000E+00 -0.45593999997E+02  0.45594000000E+02  0.51100000000E-03 0. -1.
    9900012    2    1    2    0    0  0.33747104471E+01 -0.20037674747E+02  0.35217445826E+02  0.50528861170E+02  0.30000004013E+02 0.  0.
         12    1    1    2    0    0 -0.33747104471E+01  0.20037674747E+02 -0.35217445826E+02  0.40659138830E+02  0.00000000000E+00 0. -1.
         11    1    3    3    0    0  0.85436373071E+01  0.41303095608E+01  0.70937804190E+01  0.11847992083E+02  0.51100000000E-03 0. -1.
        -11    1    3    3    0    0  0.23486110198E+00 -0.11180548789E+02  0.66525780036E+01  0.13012172198E+02  0.51100000000E-03 0.  1.
         12    1    3    3    0    0 -0.54037879619E+01 -0.12987435519E+02  0.21471087404E+02  0.25668696889E+02  0.00000000000E+00 0. -1.
</event>
<event>
 7    1  0.2900470E-011  0.5052886E+02  0.7816164E-02  0.1300439E+00
        -11   -1    0    0    0    0  0.00000000000E+00  0.00000000000E+00  0.45593999997E+02  0.45594000000E+02  0.51100000000E-03 0. -1.
         11   -1    0    0    0    0 -0.00000000000E+00 -0.00000000000E+00 -0.45593999997E+02  0.45594000000E+02  0.51100000000E-03 0.  1.
    9900012    2    1    2    0    0 -0.87722635849E+00  0.40246203338E+02 -0.57130515402E+01  0.50528863670E+02  0.30000011610E+02 0.  0.
         12    1    1    2    0    0  0.87722635849E+00 -0.40246203338E+02  0.57130515402E+01  0.40659136330E+02  0.00000000000E+00 0. -1.
         11    1    3    3    0    0  0.16082880007E+01  0.55474167579E+00 -0.72533671392E+01  0.74502123283E+01  0.51100000000E-03 0. -1.
        -11    1    3    3    0    0 -0.60471850937E+00  0.35962551005E+02  0.65471235258E+01  0.36558659521E+02  0.51100000000E-03 0.  1.
        -12    1    3    3    0    0 -0.18807958498E+01  0.37289106574E+01 -0.50068079268E+01  0.65199918202E+01  0.00000000000E+00 0.  1.
</event>
<event>
 7    1  0.2900470E-011  0.5052886E+02  0.7816164E-02  0.1300439E+00
        -11   -1    0    0    0    0  0.00000000000E+00  0.00000000000E+00  0.45593999997E+02  0.45594000000E+02  0.51100000000E-03 0.  1.
         11   -1    0    0    0    0 -0.00000000000E+00 -0.00000000000E+00 -0.45593999997E+02  0.45594000000E+02  0.51100000000E-03 0. -1.
    9900012    2    1    2    0    0  0.82361814889E+01  0.49181312467E+01  0.39511303347E+02  0.50528858436E+02  0.29999995703E+02 0.  0.
         12    1    1    2    0    0 -0.82361814889E+01 -0.49181312467E+01 -0.39511303347E+02  0.40659141564E+02  0.00000000000E+00 0. -1.
         11    1    3    3    0    0  0.10812688433E+01  0.15922975267E+02  0.20877097144E+02  0.26278574335E+02  0.51100000000E-03 0. -1.
        -11    1    3    3    0    0  0.77634551256E+01 -0.68014788581E+01  0.16585389562E+02  0.19534751018E+02  0.51100000000E-03 0.  1.
         12    1    3    3    0    0 -0.60854247999E+00 -0.42033651618E+01  0.20488166415E+01  0.47155330838E+01  0.00000000000E+00 0. -1.
</event>
<event>
 7    1  0.2900470E-011  0.5052886E+02  0.7816164E-02  0.1300439E+00
        -11   -1    0    0    0    0  0.00000000000E+00  0.00000000000E+00  0.45593999997E+02  0.45594000000E+02  0.51100000000E-03 0.  1.
         11   -1    0    0    0    0 -0.00000000000E+00 -0.00000000000E+00 -0.45593999997E+02  0.45594000000E+02  0.51100000000E-03 0. -1.
    9900012    2    1    2    0    0 -0.32023063207E+02  0.29975064802E+01  0.24873755575E+02  0.50528864020E+02  0.30000012675E+02 0.  0.
         12    1    1    2    0    0  0.32023063207E+02 -0.29975064802E+01 -0.24873755575E+02  0.40659135980E+02  0.00000000000E+00 0. -1.
         11    1    3    3    0    0 -0.10640420858E+02 -0.84761835485E+01  0.19974018734E+02  0.24166623021E+02  0.51100000000E-03 0. -1.
        -11    1    3    3    0    0 -0.17366719134E+02  0.11557501164E+02  0.67691784636E+01  0.21931724601E+02  0.51100000000E-03 0.  1.
         12    1    3    3    0    0 -0.40159232146E+01 -0.83811135009E-01 -0.18694416228E+01  0.44305163980E+01  0.00000000000E+00 0. -1.
</event>
<event>
 7    1  0.2900470E-011  0.5052887E+02  0.7816164E-02  0.1300439E+00
        -11   -1    0    0    0    0  0.00000000000E+00  0.00000000000E+00  0.45593999997E+02  0.45594000000E+02  0.51100000000E-03 0.  1.
         11   -1    0    0    0    0 -0.00000000000E+00 -0.00000000000E+00 -0.45593999997E+02  0.45594000000E+02  0.51100000000E-03 0. -1.
    9900012    2    1    2    0    0 -0.31760859494E+02  0.25239322502E+02 -0.27183713043E+01  0.50528866478E+02  0.30000020148E+02 0.  0.
         12    1    1    2    0    0  0.31760859494E+02 -0.25239322502E+02  0.27183713043E+01  0.40659133522E+02  0.00000000000E+00 0. -1.
         11    1    3    3    0    0 -0.65412719601E+01  0.96514020914E+01 -0.10934363971E+02  0.15984308459E+02  0.51100000000E-03 0. -1.
        -11    1    3    3    0    0 -0.12081693966E+02 -0.12930214237E+01  0.25383527400E+01  0.12412995948E+02  0.51100000000E-03 0.  1.
        -12    1    3    3    0    0 -0.13137893568E+02  0.16880941834E+02  0.56776399271E+01  0.22131562072E+02  0.00000000000E+00 0.  1.
</event>
<event>
 7    1  0.2900470E-011  0.5052889E+02  0.7816164E-02  0.1300439E+00
        -11   -1    0    0    0    0  0.00000000000E+00  0.00000000000E+00  0.45593999997E+02  0.45594000000E+02  0.51100000000E-03 0.  1.
         11   -1    0    0    0    0 -0.00000000000E+00 -0.00000000000E+00 -0.45593999997E+02  0.45594000000E+02  0.51100000000E-03 0. -1.
    9900012    2    1    2    0    0  0.30874887243E+02 -0.25905443637E+02  0.53677012474E+01  0.50528894145E+02  0.30000104242E+02 0.  0.
         12    1    1    2    0    0 -0.30874887243E+02  0.25905443637E+02 -0.53677012474E+01  0.40659105855E+02  0.00000000000E+00 0. -1.
         11    1    3    3    0    0  0.27160401730E+01 -0.33408532588E+00  0.54763472747E+01  0.61219986084E+01  0.51100000000E-03 0. -1.
        -11    1    3    3    0    0  0.67683492226E+01 -0.21163495614E+02  0.27169054938E+01  0.22384943009E+02  0.51100000000E-03 0.  1.
        -12    1    3    3    0    0  0.21390497847E+02 -0.44078626966E+01 -0.28255515211E+01  0.22021952527E+02  0.00000000000E+00 0.  1.
</event>
<event>
 7    1  0.2900470E-011  0.5052886E+02  0.7816164E-02  0.1300439E+00
        -11   -1    0    0    0    0  0.00000000000E+00  0.00000000000E+00  0.45593999997E+02  0.45594000000E+02  0.51100000000E-03 0. -1.
         11   -1    0    0    0    0 -0.00000000000E+00 -0.00000000000E+00 -0.45593999997E+02  0.45594000000E+02  0.51100000000E-03 0.  1.
    9900012    2    1    2    0    0 -0.14027173868E+02  0.30657426050E+02 -0.22727213368E+02  0.50528860730E+02  0.30000002674E+02 0.  0.
         12    1    1    2    0    0  0.14027173868E+02 -0.30657426050E+02  0.22727213368E+02  0.40659139270E+02  0.00000000000E+00 0. -1.
         11    1    3    3    0    0 -0.83951495847E+01 -0.19529859406E+01 -0.92796518346E+01  0.12665094909E+02  0.51100000000E-03 0. -1.
        -11    1    3    3    0    0 -0.73191261344E+01  0.17751583212E+02 -0.25714852818E+01  0.19372683106E+02  0.51100000000E-03 0.  1.
        -12    1    3    3    0    0  0.16871018506E+01  0.14858828778E+02 -0.10876076252E+02  0.18491082714E+02  0.00000000000E+00 0.  1.
</event>
<event>
 7    1  0.2900470E-011  0.5052888E+02  0.7816164E-02  0.1300439E+00
        -11   -1    0    0    0    0  0.00000000000E+00  0.00000000000E+00  0.45593999997E+02  0.45594000000E+02  0.51100000000E-03 0. -1.
         11   -1    0    0    0    0 -0.00000000000E+00 -0.00000000000E+00 -0.45593999997E+02  0.45594000000E+02  0.51100000000E-03 0.  1.
    9900012    2    1    2    0    0 -0.26698981416E+02  0.29034218187E+02  0.98662422286E+01  0.50528878390E+02  0.30000056355E+02 0.  0.
         12    1    1    2    0    0  0.26698981416E+02 -0.29034218187E+02 -0.98662422286E+01  0.40659121610E+02  0.00000000000E+00 0. -1.
         11    1    3    3    0    0 -0.20446217187E+02  0.11934148058E+02  0.15324138375E+02  0.28201079844E+02  0.51100000000E-03 0. -1.
        -11    1    3    3    0    0 -0.70603870947E+01  0.75304333646E+01 -0.71757533098E+01  0.12571711435E+02  0.51100000000E-03 0.  1.
        -12    1    3    3    0    0  0.80762286604E+00  0.95696367642E+01  0.17178571631E+01  0.97560871114E+01  0.00000000000E+00 0.  1.
</event>
<event>
 7    1  0.2900470E-011  0.5052886E+02  0.7816164E-02  0.1300439E+00
        -11   -1    0    0    0    0  0.00000000000E+00  0.00000000000E+00  0.45593999997E+02  0.45594000000E+02  0.51100000000E-03 0.  1.
         11   -1    0    0    0    0 -0.00000000000E+00 -0.00000000000E+00 -0.45593999997E+02  0.45594000000E+02  0.51100000000E-03 0. -1.
    9900012    2    1    2    0    0  0.22888148685E+02 -0.42062111098E+01  0.33340759064E+02  0.50528858628E+02  0.29999996287E+02 0.  0.
         12    1    1    2    0    0 -0.22888148685E+02  0.42062111098E+01 -0.33340759064E+02  0.40659141372E+02  0.00000000000E+00 0. -1.
         11    1    3    3    0    0  0.78206852793E+01  0.32888986713E+01  0.27182987418E+02  0.28476214248E+02  0.51100000000E-03 0.  1.
        -11    1    3    3    0    0  0.16223528964E+02 -0.41337913320E+01  0.24568698417E+01  0.16921209546E+02  0.51100000000E-03 0. -1.
         12    1    3    3    0    0 -0.11560655582E+01 -0.33613184491E+01  0.37009018045E+01  0.51314348343E+01  0.00000000000E+00 0. -1.
</event>
<event>
 7    1  0.2900470E-011  0.5052886E+02  0.7816164E-02  0.1300439E+00
        -11   -1    0    0    0    0  0.00000000000E+00  0.00000000000E+00  0.45593999997E+02  0.45594000000E+02  0.51100000000E-03 0.  1.
         11   -1    0    0    0    0 -0.00000000000E+00 -0.00000000000E+00 -0.45593999997E+02  0.45594000000E+02  0.51100000000E-03 0. -1.
    9900012    2    1    2    0    0  0.21209251286E+01  0.60954988579E+01  0.40143649449E+02  0.50528855631E+02  0.29999987175E+02 0.  0.
         12    1    1    2    0    0 -0.21209251286E+01 -0.60954988579E+01 -0.40143649449E+02  0.40659144369E+02  0.00000000000E+00 0. -1.
         11    1    3    3    0    0  0.98199542114E+00 -0.71555860311E+01  0.72346906073E+01  0.10222889753E+02  0.51100000000E-03 0. -1.
        -11    1    3    3    0    0 -0.30632706208E+01  0.12282366739E+02  0.33630163868E+02  0.35933662235E+02  0.51100000000E-03 0.  1.
         12    1    3    3    0    0  0.42022003282E+01  0.96871815000E+00 -0.72120502556E+00  0.43723036424E+01  0.00000000000E+00 0. -1.
</event>
<event>
 7    1  0.2900470E-011  0.5052886E+02  0.7816164E-02  0.1300439E+00
        -11   -1    0    0    0    0  0.00000000000E+00  0.00000000000E+00  0.45593999997E+02  0.45594000000E+02  0.51100000000E-03 0. -1.
         11   -1    0    0    0    0 -0.00000000000E+00 -0.00000000000E+00 -0.45593999997E+02  0.45594000000E+02  0.51100000000E-03 0.  1.
    9900012    2    1    2    0    0 -0.30235349377E+02  0.19467149503E+02 -0.18974176557E+02  0.50528860342E+02  0.30000001495E+02 0.  0.
         12    1    1    2    0    0  0.30235349377E+02 -0.19467149503E+02  0.18974176557E+02  0.40659139658E+02  0.00000000000E+00 0. -1.
         11    1    3    3    0    0  0.10122573186E+01 -0.92606596126E+00 -0.38770137294E+01  0.41126024319E+01  0.51100000000E-03 0. -1.
        -11    1    3    3    0    0 -0.26402225068E+02  0.44847236970E+01 -0.12611995370E+02  0.29601565206E+02  0.51100000000E-03 0.  1.
        -12    1    3    3    0    0 -0.48453816276E+01  0.15908491768E+02 -0.24851674571E+01  0.16814692704E+02  0.00000000000E+00 0.  1.
</event>
<event>
 7    1  0.2900470E-011  0.5052885E+02  0.7816164E-02  0.1300439E+00
        -11   -1    0    0    0    0  0.00000000000E+00  0.00000000000E+00  0.45593999997E+02  0.45594000000E+02  0.51100000000E-03 0. -1.
         11   -1    0    0    0    0 -0.00000000000E+00 -0.00000000000E+00 -0.45593999997E+02  0.45594000000E+02  0.51100000000E-03 0.  1.
    9900012    2    1    2    0    0  0.40565903164E+02  0.24367426586E+01  0.12791849511E+01  0.50528849388E+02  0.29999968201E+02 0.  0.
         12    1    1    2    0    0 -0.40565903164E+02 -0.24367426586E+01 -0.12791849511E+01  0.40659150612E+02  0.00000000000E+00 0. -1.
         11    1    3    3    0    0  0.61213153213E+00  0.46786919868E+01  0.54862117360E+01  0.72362547767E+01  0.51100000000E-03 0. -1.
        -11    1    3    3    0    0  0.36786374675E+02  0.29054755155E+01 -0.23755615120E+01  0.36977323354E+02  0.51100000000E-03 0.  1.
        -12    1    3    3    0    0  0.31673969573E+01 -0.51474248437E+01 -0.18314652730E+01  0.63152712573E+01  0.00000000000E+00 0.  1.
</event>
<event>
 7    1  0.2900470E-011  0.5052886E+02  0.7816164E-02  0.1300439E+00
        -11   -1    0    0    0    0  0.00000000000E+00  0.00000000000E+00  0.45593999997E+02  0.45594000000E+02  0.51100000000E-03 0. -1.
         11   -1    0    0    0    0 -0.00000000000E+00 -0.00000000000E+00 -0.45593999997E+02  0.45594000000E+02  0.51100000000E-03 0.  1.
    9900012    2    1    2    0    0  0.21700399218E+02 -0.26758289042E+02 -0.21592881370E+02  0.50528857307E+02  0.29999992270E+02 0.  0.
         12    1    1    2    0    0 -0.21700399218E+02  0.26758289042E+02  0.21592881370E+02  0.40659142693E+02  0.00000000000E+00 0. -1.
         11    1    3    3    0    0 -0.13091945892E+01 -0.71764384568E+01 -0.38728204876E+01  0.82591766047E+01  0.51100000000E-03 0.  1.
        -11    1    3    3    0    0  0.21581292252E+02 -0.16344120378E+02 -0.31248095843E+01  0.27251548239E+02  0.51100000000E-03 0. -1.
        -12    1    3    3    0    0  0.14283015551E+01 -0.32377302067E+01 -0.14595251298E+02  0.15018132463E+02  0.00000000000E+00 0.  1.
</event>
<event>
 7    1  0.2900470E-011  0.5052884E+02  0.7816164E-02  0.1300439E+00
        -11   -1    0    0    0    0  0.00000000000E+00  0.00000000000E+00  0.45593999997E+02  0.45594000000E+02  0.51100000000E-03 0.  1.
         11   -1    0    0    0    0 -0.00000000000E+00 -0.00000000000E+00 -0.45593999997E+02  0.45594000000E+02  0.51100000000E-03 0. -1.
    9900012    2    1    2    0    0  0.81330955635E+01 -0.38987222947E+02  0.81863796628E+01  0.50528836106E+02  0.29999927828E+02 0.  0.
         12    1    1    2    0    0 -0.81330955635E+01  0.38987222947E+02 -0.81863796628E+01  0.40659163894E+02  0.00000000000E+00 0. -1.
         11    1    3    3    0    0 -0.14990103533E+01 -0.27572016401E+02 -0.43344593953E+01  0.27950861507E+02  0.51100000000E-03 0. -1.
        -11    1    3    3    0    0  0.99912590632E+01 -0.31329616824E+01  0.75886249330E+01  0.12931664054E+02  0.51100000000E-03 0.  1.
         12    1    3    3    0    0 -0.35915314635E+00 -0.82822448638E+01  0.49322141251E+01  0.96463105456E+01  0.00000000000E+00 0. -1.
</event>
<event>
 7    1  0.2900470E-011  0.5052886E+02  0.7816164E-02  0.1300439E+00
        -11   -1    0    0    0    0  0.00000000000E+00  0.00000000000E+00  0.45593999997E+02  0.45594000000E+02  0.51100000000E-03 0.  1.
         11   -1    0    0    0    0 -0.00000000000E+00 -0.00000000000E+00 -0.45593999997E+02  0.45594000000E+02  0.51100000000E-03 0. -1.
    9900012    2    1    2    0    0 -0.96391074377E+01 -0.60513224692E+01  0.39033759353E+02  0.50528864925E+02  0.30000015426E+02 0.  0.
         12    1    1    2    0    0  0.96391074377E+01  0.60513224692E+01 -0.39033759353E+02  0.40659135075E+02  0.00000000000E+00 0. -1.
         11    1    3    3    0    0 -0.12226233478E+02  0.28964173281E+01  0.33408579033E+02  0.35693181025E+02  0.51100000000E-03 0.  1.
        -11    1    3    3    0    0  0.61627184441E+01 -0.64646872699E+01  0.54829118370E+01  0.10480152794E+02  0.51100000000E-03 0. -1.
         12    1    3    3    0    0 -0.35755924040E+01 -0.24830525274E+01  0.14226848279E+00  0.43555311059E+01  0.00000000000E+00 0. -1.
</event>
<event>
 7    1  0.2900470E-011  0.5052887E+02  0.7816164E-02  0.1300439E+00
        -11   -1    0    0    0    0  0.00000000000E+00  0.00000000000E+00  0.45593999997E+02  0.45594000000E+02  0.51100000000E-03 0.  1.
         11   -1    0    0    0    0 -0.00000000000E+00 -0.00000000000E+00 -0.45593999997E+02  0.45594000000E+02  0.51100000000E-03 0. -1.
    9900012    2    1    2    0    0  0.22651681367E+02  0.26805859668E+02  0.20530751590E+02  0.50528873814E+02  0.30000042446E+02 0.  0.
         12    1    1    2    0    0 -0.22651681367E+02 -0.26805859668E+02 -0.20530751590E+02  0.40659126186E+02  0.00000000000E+00 0. -1.
         11    1    3    3    0    0  0.21397694762E+02  0.98956122091E+01  0.77417163166E+01  0.24813678767E+02  0.51100000000E-03 0. -1.
        -11    1    3    3    0    0  0.41293844537E+01  0.18375346515E+02  0.94498347450E+01  0.21071415531E+02  0.51100000000E-03 0.  1.
         12    1    3    3    0    0 -0.28753978491E+01 -0.14650990553E+01  0.33392005287E+01  0.46437795171E+01  0.00000000000E+00 0. -1.
</event>
<event>
 7    1  0.2900470E-011  0.5052888E+02  0.7816164E-02  0.1300439E+00
        -11   -1    0    0    0    0  0.00000000000E+00  0.00000000000E+00  0.45593999997E+02  0.45594000000E+02  0.51100000000E-03 0.  1.
         11   -1    0    0    0    0 -0.00000000000E+00 -0.00000000000E+00 -0.45593999997E+02  0.45594000000E+02  0.51100000000E-03 0. -1.
    9900012    2    1    2    0    0  0.88078461079E+01  0.34484332177E+02  0.19657493345E+02  0.50528876013E+02  0.30000049129E+02 0.  0.
         12    1    1    2    0    0 -0.88078461079E+01 -0.34484332177E+02 -0.19657493345E+02  0.40659123987E+02  0.00000000000E+00 0. -1.
         11    1    3    3    0    0 -0.39504069648E+00 -0.21348694109E+01  0.16331577356E+01  0.27167865216E+01  0.51100000000E-03 0. -1.
        -11    1    3    3    0    0 -0.81450070995E+00  0.27532989969E+02  0.31756349167E+01  0.27727488264E+02  0.51100000000E-03 0.  1.
        -12    1    3    3    0    0  0.10017387514E+02  0.90862116188E+01  0.14848700693E+02  0.20084601227E+02  0.00000000000E+00 0.  1.
</event>
<event>
 7    1  0.2900470E-011  0.5052887E+02  0.7816164E-02  0.1300439E+00
        -11   -1    0    0    0    0  0.00000000000E+00  0.00000000000E+00  0.45593999997E+02  0.45594000000E+02  0.51100000000E-03 0. -1.
         11   -1    0    0    0    0 -0.00000000000E+00 -0.00000000000E+00 -0.45593999997E+02  0.45594000000E+02  0.51100000000E-03 0.  1.
    9900012    2    1    2    0    0 -0.31564916133E+02  0.73127733511E+01 -0.24563073339E+02  0.50528866260E+02  0.30000019485E+02 0.  0.
         12    1    1    2    0    0  0.31564916133E+02 -0.73127733511E+01  0.24563073339E+02  0.40659133740E+02  0.00000000000E+00 0. -1.
         11    1    3    3    0    0 -0.14058987158E+01 -0.28125288733E+01  0.53660305500E+01  0.62194174958E+01  0.51100000000E-03 0. -1.
        -11    1    3    3    0    0 -0.27677324554E+02  0.76112327156E+01 -0.24038645767E+02  0.37440908756E+02  0.51100000000E-03 0.  1.
         12    1    3    3    0    0 -0.24816928640E+01  0.25140695088E+01 -0.58904581216E+01  0.68685400086E+01  0.00000000000E+00 0. -1.
</event>
<event>
 7    1  0.2900470E-011  0.5052886E+02  0.7816164E-02  0.1300439E+00
        -11   -1    0    0    0    0  0.00000000000E+00  0.00000000000E+00  0.45593999997E+02  0.45594000000E+02  0.51100000000E-03 0.  1.
         11   -1    0    0    0    0 -0.00000000000E+00 -0.00000000000E+00 -0.45593999997E+02  0.45594000000E+02  0.51100000000E-03 0. -1.
    9900012    2    1    2    0    0  0.30200539020E+02 -0.67923340687E+01  0.26362050490E+02  0.50528855085E+02  0.29999985517E+02 0.  0.
         12    1    1    2    0    0 -0.30200539020E+02  0.67923340687E+01 -0.26362050490E+02  0.40659144915E+02  0.00000000000E+00 0. -1.
         11    1    3    3    0    0  0.81611057482E+01 -0.13066766512E+02  0.97453515238E+01  0.18229534023E+02  0.51100000000E-03 0.  1.
        -11    1    3    3    0    0  0.16061401300E+02  0.67144139976E+01  0.19071471851E+02  0.25821948143E+02  0.51100000000E-03 0. -1.
        -12    1    3    3    0    0  0.59780319710E+01 -0.43998155438E+00 -0.24547728854E+01  0.64773729191E+01  0.00000000000E+00 0.  1.
</event>
<event>
 7    1  0.2900470E-011  0.5052895E+02  0.7816164E-02  0.1300438E+00
        -11   -1    0    0    0    0  0.00000000000E+00  0.00000000000E+00  0.45593999997E+02  0.45594000000E+02  0.51100000000E-03 0.  1.
         11   -1    0    0    0    0 -0.00000000000E+00 -0.00000000000E+00 -0.45593999997E+02  0.45594000000E+02  0.51100000000E-03 0. -1.
    9900012    2    1    2    0    0  0.10192722618E+02 -0.39236111404E+02  0.31295439354E+01  0.50528953310E+02  0.30000284081E+02 0.  0.
         12    1    1    2    0    0 -0.10192722618E+02  0.39236111404E+02 -0.31295439354E+01  0.40659046690E+02  0.00000000000E+00 0. -1.
         11    1    3    3    0    0  0.23072098060E+01 -0.19239520225E+02  0.30753551008E+01  0.19619892070E+02  0.51100000000E-03 0. -1.
        -11    1    3    3    0    0 -0.14624857121E+00  0.40779727730E+01  0.33987489408E+01  0.53106256887E+01  0.51100000000E-03 0.  1.
        -12    1    3    3    0    0  0.80317613834E+01 -0.24074563952E+02 -0.33445601063E+01  0.25598435552E+02  0.00000000000E+00 0.  1.
</event>
<event>
 7    1  0.2900470E-011  0.5052887E+02  0.7816164E-02  0.1300439E+00
        -11   -1    0    0    0    0  0.00000000000E+00  0.00000000000E+00  0.45593999997E+02  0.45594000000E+02  0.51100000000E-03 0.  1.
         11   -1    0    0    0    0 -0.00000000000E+00 -0.00000000000E+00 -0.45593999997E+02  0.45594000000E+02  0.51100000000E-03 0. -1.
    9900012    2    1    2    0    0 -0.36539043075E+02  0.89900197152E+01  0.15402688812E+02  0.50528868849E+02  0.30000027354E+02 0.  0.
         12    1    1    2    0    0  0.36539043075E+02 -0.89900197152E+01 -0.15402688812E+02  0.40659131151E+02  0.00000000000E+00 0. -1.
         11    1    3    3    0    0 -0.23152488821E+02  0.10027433251E+02  0.18851470497E+02  0.31495477396E+02  0.51100000000E-03 0. -1.
        -11    1    3    3    0    0 -0.12465214345E+02 -0.57164952154E+01 -0.12149439027E+01  0.13767206512E+02  0.51100000000E-03 0.  1.
         12    1    3    3    0    0 -0.92133990887E+00  0.46790816801E+01 -0.22338377826E+01  0.52661849413E+01  0.00000000000E+00 0. -1.
</event>
<event>
 7    1  0.2900470E-011  0.5052883E+02  0.7816164E-02  0.1300439E+00
        -11   -1    0    0    0    0  0.00000000000E+00  0.00000000000E+00  0.45593999997E+02  0.45594000000E+02  0.51100000000E-03 0. -1.
         11   -1    0    0    0    0 -0.00000000000E+00 -0.00000000000E+00 -0.45593999997E+02  0.45594000000E+02  0.51100000000E-03 0.  1.
    9900012    2    1    2    0    0  0.17461251230E+02  0.14454247144E+02 -0.33754217699E+02  0.50528834152E+02  0.29999921887E+02 0.  0.
         12    1    1    2    0    0 -0.17461251230E+02 -0.14454247144E+02  0.33754217699E+02  0.40659165848E+02  0.00000000000E+00 0. -1.
         11    1    3    3    0    0  0.36211472985E+01  0.13787074463E+02 -0.54253973241E+01  0.15252247913E+02  0.51100000000E-03 0. -1.
        -11    1    3    3    0    0  0.15300710629E+02 -0.10590762008E+01 -0.13986372802E+02  0.20756975034E+02  0.51100000000E-03 0.  1.
        -12    1    3    3    0    0 -0.14606066983E+01  0.17262488812E+01 -0.14342447573E+02  0.14519611204E+02  0.00000000000E+00 0.  1.
</event>
<event>
 7    1  0.2900470E-011  0.5052885E+02  0.7816164E-02  0.1300439E+00
        -11   -1    0    0    0    0  0.00000000000E+00  0.00000000000E+00  0.45593999997E+02  0.45594000000E+02  0.51100000000E-03 0.  1.
         11   -1    0    0    0    0 -0.00000000000E+00 -0.00000000000E+00 -0.45593999997E+02  0.45594000000E+02  0.51100000000E-03 0. -1.
    9900012    2    1    2    0    0 -0.54989943705E+01 -0.28227983465E+02  0.28742096124E+02  0.50528854913E+02  0.29999984993E+02 0.  0.
         12    1    1    2    0    0  0.54989943705E+01  0.28227983465E+02 -0.28742096124E+02  0.40659145087E+02  0.00000000000E+00 0. -1.
         11    1    3    3    0    0 -0.16272550401E+02 -0.16274691766E+02  0.17618143087E+02  0.28983796417E+02  0.51100000000E-03 0. -1.
        -11    1    3    3    0    0  0.12606469305E+01 -0.63940138545E+01  0.10219086681E+01  0.65967371815E+01  0.51100000000E-03 0.  1.
         12    1    3    3    0    0  0.95129090997E+01 -0.55592778444E+01  0.10102044369E+02  0.14948321315E+02  0.00000000000E+00 0. -1.
</event>
<event>
 7    1  0.2900470E-011  0.5052888E+02  0.7816164E-02  0.1300439E+00
        -11   -1    0    0    0    0  0.00000000000E+00  0.00000000000E+00  0.45593999997E+02  0.45594000000E+02  0.51100000000E-03 0. -1.
         11   -1    0    0    0    0 -0.00000000000E+00 -0.00000000000E+00 -0.45593999997E+02  0.45594000000E+02  0.51100000000E-03 0.  1.
    9900012    2    1    2    0    0  0.16609306567E+02  0.36942694604E+02  0.35400810138E+01  0.50528881431E+02  0.30000065597E+02 0.  0.
         12    1    1    2    0    0 -0.16609306567E+02 -0.36942694604E+02 -0.35400810138E+01  0.40659118569E+02  0.00000000000E+00 0. -1.
         11    1    3    3    0    0  0.18365837165E+01 -0.11338674359E+01  0.76551658823E+01  0.79536318784E+01  0.51100000000E-03 0. -1.
        -11    1    3    3    0    0  0.43262912526E+01  0.25662546855E+02 -0.41323467616E+01  0.26350700125E+02  0.51100000000E-03 0.  1.
        -12    1    3    3    0    0  0.10446431598E+02  0.12414015185E+02  0.17261893047E-01  0.16224549427E+02  0.00000000000E+00 0.  1.
</event>
<event>
 7    1  0.2900470E-011  0.5052887E+02  0.7816164E-02  0.1300439E+00
        -11   -1    0    0    0    0  0.00000000000E+00  0.00000000000E+00  0.45593999997E+02  0.45594000000E+02  0.51100000000E-03 0.  1.
         11   -1    0    0    0    0 -0.00000000000E+00 -0.00000000000E+00 -0.45593999997E+02  0.45594000000E+02  0.51100000000E-03 0. -1.
    9900012    2    1    2    0    0  0.35815311864E+02 -0.18722568905E+01  0.19155241848E+02  0.50528865724E+02  0.30000017856E+02 0.  0.
         12    1    1    2    0    0 -0.35815311864E+02  0.18722568905E+01 -0.19155241848E+02  0.40659134276E+02  0.00000000000E+00 0. -1.
         11    1    3    3    0    0  0.80846766421E+00 -0.10658217887E+01 -0.22919050919E+01  0.26537568202E+01  0.51100000000E-03 0. -1.
        -11    1    3    3    0    0  0.87424446250E+01  0.10451806774E+02  0.10775293980E+02  0.17371746126E+02  0.51100000000E-03 0.  1.
        -12    1    3    3    0    0  0.26264399575E+02 -0.11258241876E+02  0.10671852960E+02  0.30503362778E+02  0.00000000000E+00 0.  1.
</event>
<event>
 7    1  0.2900470E-011  0.5052885E+02  0.7816164E-02  0.1300439E+00
        -11   -1    0    0    0    0  0.00000000000E+00  0.00000000000E+00  0.45593999997E+02  0.45594000000E+02  0.51100000000E-03 0. -1.
         11   -1    0    0    0    0 -0.00000000000E+00 -0.00000000000E+00 -0.45593999997E+02  0.45594000000E+02  0.51100000000E-03 0.  1.
    9900012    2    1    2    0    0 -0.36370813445E+02  0.18005736569E+02  0.24746160820E+01  0.50528851647E+02  0.29999975066E+02 0.  0.
         12    1    1    2    0    0  0.36370813445E+02 -0.18005736569E+02 -0.24746160820E+01  0.40659148353E+02  0.00000000000E+00 0. -1.
         11    1    3    3    0    0 -0.20086738647E+02  0.31751188744E+01 -0.11551696413E+02  0.23388034112E+02  0.51100000000E-03 0. -1.
        -11    1    3    3    0    0 -0.63890745858E+01  0.10785483557E+02  0.79614065125E+01  0.14850283618E+02  0.51100000000E-03 0.  1.
        -12    1    3    3    0    0 -0.98950002122E+01  0.40451341382E+01  0.60649059823E+01  0.12290533917E+02  0.00000000000E+00 0.  1.
</event>
<event>
 7    1  0.2900470E-011  0.5052886E+02  0.7816164E-02  0.1300439E+00
        -11   -1    0    0    0    0  0.00000000000E+00  0.00000000000E+00  0.45593999997E+02  0.45594000000E+02  0.51100000000E-03 0.  1.
         11   -1    0    0    0    0 -0.00000000000E+00 -0.00000000000E+00 -0.45593999997E+02  0.45594000000E+02  0.51100000000E-03 0. -1.
    9900012    2    1    2    0    0  0.17468679917E+02  0.74802569386E+01  0.35945186601E+02  0.50528862507E+02  0.30000008075E+02 0.  0.
         12    1    1    2    0    0 -0.17468679917E+02 -0.74802569386E+01 -0.35945186601E+02  0.40659137493E+02  0.00000000000E+00 0. -1.
         11    1    3    3    0    0  0.34991218159E+01 -0.14574156974E+01 -0.22880318957E+01  0.44275280027E+01  0.51100000000E-03 0. -1.
        -11    1    3    3    0    0  0.68165329932E+01  0.12380025545E+02  0.34592483524E+02  0.37368035420E+02  0.51100000000E-03 0.  1.
        -12    1    3    3    0    0  0.71530251081E+01 -0.34423529088E+01  0.36407349730E+01  0.87332990840E+01  0.00000000000E+00 0.  1.
</event>
<event>
 7    1  0.2900470E-011  0.5052887E+02  0.7816164E-02  0.1300439E+00
        -11   -1    0    0    0    0  0.00000000000E+00  0.00000000000E+00  0.45593999997E+02  0.45594000000E+02  0.51100000000E-03 0.  1.
         11   -1    0    0    0    0 -0.00000000000E+00 -0.00000000000E+00 -0.45593999997E+02  0.45594000000E+02  0.51100000000E-03 0. -1.
    9900012    2    1    2    0    0  0.29943278152E+02  0.27032049133E+02 -0.50826522436E+01  0.50528868915E+02  0.30000027553E+02 0.  0.
         12    1    1    2    0    0 -0.29943278152E+02 -0.27032049133E+02  0.50826522436E+01  0.40659131085E+02  0.00000000000E+00 0. -1.
         11    1    3    3    0    0 -0.27904300310E+01  0.96073146529E+01 -0.63409729044E+01  0.11844616171E+02  0.51100000000E-03 0. -1.
        -11    1    3    3    0    0  0.71093932676E+01  0.93441746765E+01  0.13265129248E+01  0.11815951499E+02  0.51100000000E-03 0.  1.
         12    1    3    3    0    0  0.25624314915E+02  0.80805598032E+01 -0.68192263962E-01  0.26868301245E+02  0.00000000000E+00 0. -1.
</event>
<event>
 7    1  0.2900470E-011  0.5052880E+02  0.7816164E-02  0.1300439E+00
        -11   -1    0    0    0    0  0.00000000000E+00  0.00000000000E+00  0.45593999997E+02  0.45594000000E+02  0.51100000000E-03 0.  1.
         11   -1    0    0    0    0 -0.00000000000E+00 -0.00000000000E+00 -0.45593999997E+02  0.45594000000E+02  0.51100000000E-03 0. -1.
    9900012    2    1    2    0    0  0.19026611702E+02 -0.34905695495E+02  0.85294361385E+01  0.50528796716E+02  0.29999808098E+02 0.  0.
         12    1    1    2    0    0 -0.19026611702E+02  0.34905695495E+02 -0.85294361385E+01  0.40659203284E+02  0.00000000000E+00 0. -1.
         11    1    3    3    0    0  0.14016844450E+02 -0.60226598064E+01  0.25168619076E+01  0.15462178165E+02  0.51100000000E-03 0. -1.
        -11    1    3    3    0    0 -0.60786037566E+01 -0.90052513450E+01  0.57745518716E+01  0.12304041003E+02  0.51100000000E-03 0.  1.
        -12    1    3    3    0    0  0.11088371008E+02 -0.19877784343E+02  0.23802235919E+00  0.22762577549E+02  0.00000000000E+00 0.  1.
</event>
<event>
 7    1  0.2900470E-011  0.5052884E+02  0.7816164E-02  0.1300439E+00
        -11   -1    0    0    0    0  0.00000000000E+00  0.00000000000E+00  0.45593999997E+02  0.45594000000E+02  0.51100000000E-03 0.  1.
         11   -1    0    0    0    0 -0.00000000000E+00 -0.00000000000E+00 -0.45593999997E+02  0.45594000000E+02  0.51100000000E-03 0. -1.
    9900012    2    1    2    0    0 -0.20977406341E+02 -0.13550181345E+02  0.32085946326E+02  0.50528844291E+02  0.29999952708E+02 0.  0.
         12    1    1    2    0    0  0.20977406341E+02  0.13550181345E+02 -0.32085946326E+02  0.40659155709E+02  0.00000000000E+00 0. -1.
         11    1    3    3    0    0 -0.84934771031E+01 -0.14250402592E+02  0.44385058272E+01  0.17173044622E+02  0.51100000000E-03 0. -1.
        -11    1    3    3    0    0 -0.37622762882E+01 -0.89240106170E+00  0.23043783642E+02  0.23365938186E+02  0.51100000000E-03 0.  1.
        -12    1    3    3    0    0 -0.87216529501E+01  0.15926223090E+01  0.46036568575E+01  0.99898614836E+01  0.00000000000E+00 0.  1.
</event>
<event>
 7    1  0.2900470E-011  0.5052888E+02  0.7816164E-02  0.1300439E+00
        -11   -1    0    0    0    0  0.00000000000E+00  0.00000000000E+00  0.45593999997E+02  0.45594000000E+02  0.51100000000E-03 0.  1.
         11   -1    0    0    0    0 -0.00000000000E+00 -0.00000000000E+00 -0.45593999997E+02  0.45594000000E+02  0.51100000000E-03 0. -1.
    9900012    2    1    2    0    0  0.32241117130E+02 -0.10917015752E+02  0.22237196747E+02  0.50528883115E+02  0.30000070717E+02 0.  0.
         12    1    1    2    0    0 -0.32241117130E+02  0.10917015752E+02 -0.22237196747E+02  0.40659116885E+02  0.00000000000E+00 0. -1.
         11    1    3    3    0    0  0.88684940606E+01  0.91553350441E+01  0.20993405412E+01  0.12918110452E+02  0.51100000000E-03 0. -1.
        -11    1    3    3    0    0  0.83138012357E+01 -0.11493553650E+02  0.67407307626E+01  0.15705365897E+02  0.51100000000E-03 0.  1.
         12    1    3    3    0    0  0.15058821833E+02 -0.85787971462E+01  0.13397125443E+02  0.21905406767E+02  0.00000000000E+00 0. -1.
</event>
<event>
 7    1  0.2900470E-011  0.5052883E+02  0.7816164E-02  0.1300439E+00
        -11   -1    0    0    0    0  0.00000000000E+00  0.00000000000E+00  0.45593999997E+02  0.45594000000E+02  0.51100000000E-03 0.  1.
         11   -1    0    0    0    0 -0.00000000000E+00 -0.00000000000E+00 -0.45593999997E+02  0.45594000000E+02  0.51100000000E-03 0. -1.
    9900012    2    1    2    0    0 -0.32065001525E+01 -0.13563699838E+02  0.38195708807E+02  0.50528834148E+02  0.29999921875E+02 0.  0.
         12    1    1    2    0    0  0.32065001525E+01  0.13563699838E+02 -0.38195708807E+02  0.40659165852E+02  0.00000000000E+00 0. -1.
         11    1    3    3    0    0  0.24610147066E+01 -0.13944019747E+01  0.65628426627E+01  0.71464574672E+01  0.51100000000E-03 0. -1.
        -11    1    3    3    0    0 -0.11866897597E+02 -0.16903795558E+01  0.31309576557E+01  0.12388847312E+02  0.51100000000E-03 0.  1.
        -12    1    3    3    0    0  0.61993827378E+01 -0.10478918307E+02  0.28501908489E+02  0.30993529369E+02  0.00000000000E+00 0.  1.
</event>
<event>
 7    1  0.2900470E-011  0.5052886E+02  0.7816164E-02  0.1300439E+00
        -11   -1    0    0    0    0  0.00000000000E+00  0.00000000000E+00  0.45593999997E+02  0.45594000000E+02  0.51100000000E-03 0.  1.
         11   -1    0    0    0    0 -0.00000000000E+00 -0.00000000000E+00 -0.45593999997E+02  0.45594000000E+02  0.51100000000E-03 0. -1.
    9900012    2    1    2    0    0 -0.34931244253E+02  0.20142940206E+02  0.52188202802E+01  0.50528856498E+02  0.29999989811E+02 0.  0.
         12    1    1    2    0    0  0.34931244253E+02 -0.20142940206E+02 -0.52188202802E+01  0.40659143502E+02  0.00000000000E+00 0. -1.
         11    1    3    3    0    0 -0.30581058010E+02  0.93103785127E+01  0.12726381655E+02  0.34407049384E+02  0.51100000000E-03 0.  1.
        -11    1    3    3    0    0 -0.54325928369E+01  0.89302125928E+01 -0.87263919663E+01  0.13616595716E+02  0.51100000000E-03 0. -1.
         12    1    3    3    0    0  0.10824065939E+01  0.19023491008E+01  0.12188305915E+01  0.25052113976E+01  0.00000000000E+00 0. -1.
</event>
<event>
 7    1  0.2900470E-011  0.5052884E+02  0.7816164E-02  0.1300439E+00
        -11   -1    0    0    0    0  0.00000000000E+00  0.00000000000E+00  0.45593999997E+02  0.45594000000E+02  0.51100000000E-03 0.  1.
         11   -1    0    0    0    0 -0.00000000000E+00 -0.00000000000E+00 -0.45593999997E+02  0.45594000000E+02  0.51100000000E-03 0. -1.
    9900012    2    1    2    0    0  0.24461074356E+02  0.28368784912E+02  0.15812509132E+02  0.50528836690E+02  0.29999929602E+02 0.  0.
         12    1    1    2    0    0 -0.24461074356E+02 -0.28368784912E+02 -0.15812509132E+02  0.40659163310E+02  0.00000000000E+00 0. -1.
         11    1    3    3    0    0  0.11028569200E+02  0.70610447446E+00 -0.15627078128E+01  0.11161092155E+02  0.51100000000E-03 0. -1.
        -11    1    3    3    0    0  0.95047311232E+01  0.25888420006E+02  0.20226255383E+02  0.34200169754E+02  0.51100000000E-03 0.  1.
        -12    1    3    3    0    0  0.39277740329E+01  0.17742604312E+01 -0.28510384383E+01  0.51675747801E+01  0.00000000000E+00 0.  1.
</event>
<event>
 7    1  0.2900470E-011  0.5052885E+02  0.7816164E-02  0.1300439E+00
        -11   -1    0    0    0    0  0.00000000000E+00  0.00000000000E+00  0.45593999997E+02  0.45594000000E+02  0.51100000000E-03 0.  1.
         11   -1    0    0    0    0 -0.00000000000E+00 -0.00000000000E+00 -0.45593999997E+02  0.45594000000E+02  0.51100000000E-03 0. -1.
    9900012    2    1    2    0    0  0.12343118544E+02 -0.38733300907E+02  0.73855422804E+00  0.50528848055E+02  0.29999964147E+02 0.  0.
         12    1    1    2    0    0 -0.12343118544E+02  0.38733300907E+02 -0.73855422804E+00  0.40659151945E+02  0.00000000000E+00 0. -1.
         11    1    3    3    0    0 -0.49853636316E+01 -0.42418251152E+01  0.37726732649E+01  0.75551303544E+01  0.51100000000E-03 0. -1.
        -11    1    3    3    0    0  0.55945917658E+01 -0.96654907182E+01 -0.96151848584E+01  0.14736788930E+02  0.51100000000E-03 0.  1.
        -12    1    3    3    0    0  0.11733890410E+02 -0.24825985074E+02  0.65810658215E+01  0.28236928770E+02  0.00000000000E+00 0.  1.
</event>
<event>
 7    1  0.2900470E-011  0.5052884E+02  0.7816164E-02  0.1300439E+00
        -11   -1    0    0    0    0  0.00000000000E+00  0.00000000000E+00  0.45593999997E+02  0.45594000000E+02  0.51100000000E-03 0.  1.
         11   -1    0    0    0    0 -0.00000000000E+00 -0.00000000000E+00 -0.45593999997E+02  0.45594000000E+02  0.51100000000E-03 0. -1.
    9900012    2    1    2    0    0  0.16784098346E+02 -0.12470316545E+02  0.34870516342E+02  0.50528835449E+02  0.29999925830E+02 0.  0.
         12    1    1    2    0    0 -0.16784098346E+02  0.12470316545E+02 -0.34870516342E+02  0.40659164551E+02  0.00000000000E+00 0. -1.
         11    1    3    3    0    0  0.15468005588E+01  0.56615866946E+01 -0.14843118273E+01  0.60538696493E+01  0.51100000000E-03 0.  1.
        -11    1    3    3    0    0  0.37134276447E+01 -0.11991296521E+02  0.17251001612E+02  0.21334896157E+02  0.51100000000E-03 0. -1.
        -12    1    3    3    0    0  0.11523870142E+02 -0.61406067184E+01  0.19103826558E+02  0.23140069643E+02  0.00000000000E+00 0.  1.
</event>
<event>
 7    1  0.2900470E-011  0.5052886E+02  0.7816164E-02  0.1300439E+00
        -11   -1    0    0    0    0  0.00000000000E+00  0.00000000000E+00  0.45593999997E+02  0.45594000000E+02  0.51100000000E-03 0. -1.
         11   -1    0    0    0    0 -0.00000000000E+00 -0.00000000000E+00 -0.45593999997E+02  0.45594000000E+02  0.51100000000E-03 0.  1.
    9900012    2    1    2    0    0  0.10244476899E+02 -0.31642220826E+02 -0.23387728346E+02  0.50528864705E+02  0.30000014759E+02 0.  0.
         12    1    1    2    0    0 -0.10244476899E+02  0.31642220826E+02  0.23387728346E+02  0.40659135295E+02  0.00000000000E+00 0. -1.
         11    1    3    3    0    0 -0.12072224005E+01 -0.13274986253E+02  0.50806874041E+01  0.14265203493E+02  0.51100000000E-03 0. -1.
        -11    1    3    3    0    0  0.12484043841E+01 -0.42707869658E+01 -0.96856194305E+01  0.10658769105E+02  0.51100000000E-03 0.  1.
         12    1    3    3    0    0  0.10203294915E+02 -0.14096447607E+02 -0.18782796319E+02  0.25604892108E+02  0.00000000000E+00 0. -1.
</event>
<event>
 7    1  0.2900470E-011  0.5052887E+02  0.7816164E-02  0.1300439E+00
        -11   -1    0    0    0    0  0.00000000000E+00  0.00000000000E+00  0.45593999997E+02  0.45594000000E+02  0.51100000000E-03 0.  1.
         11   -1    0    0    0    0 -0.00000000000E+00 -0.00000000000E+00 -0.45593999997E+02  0.45594000000E+02  0.51100000000E-03 0. -1.
    9900012    2    1    2    0    0 -0.38829545096E+02  0.63405486955E+00  0.12042801886E+02  0.50528872178E+02  0.30000037473E+02 0.  0.
         12    1    1    2    0    0  0.38829545096E+02 -0.63405486955E+00 -0.12042801886E+02  0.40659127822E+02  0.00000000000E+00 0. -1.
         11    1    3    3    0    0 -0.65458231590E+01  0.56105799637E+01 -0.44652822175E+01  0.97090243538E+01  0.51100000000E-03 0.  1.
        -11    1    3    3    0    0 -0.12780485380E+02 -0.96301023210E+01  0.21230495180E+01  0.16142707851E+02  0.51100000000E-03 0. -1.
        -12    1    3    3    0    0 -0.19503236557E+02  0.46535772268E+01  0.14385034586E+02  0.24677139973E+02  0.00000000000E+00 0.  1.
</event>
<event>
 7    1  0.2900470E-011  0.5052886E+02  0.7816164E-02  0.1300439E+00
        -11   -1    0    0    0    0  0.00000000000E+00  0.00000000000E+00  0.45593999997E+02  0.45594000000E+02  0.51100000000E-03 0.  1.
         11   -1    0    0    0    0 -0.00000000000E+00 -0.00000000000E+00 -0.45593999997E+02  0.45594000000E+02  0.51100000000E-03 0. -1.
    9900012    2    1    2    0    0  0.56651540510E+01 -0.40262502804E+02 -0.49342554777E-01  0.50528861579E+02  0.30000005256E+02 0.  0.
         12    1    1    2    0    0 -0.56651540510E+01  0.40262502804E+02  0.49342554777E-01  0.40659138421E+02  0.00000000000E+00 0. -1.
         11    1    3    3    0    0 -0.31044664725E+01 -0.90420064105E+01 -0.10053909355E+02  0.13873596707E+02  0.51100000000E-03 0. -1.
        -11    1    3    3    0    0 -0.28836244597E+01 -0.79276892972E+01  0.58862396374E+01  0.10286465134E+02  0.51100000000E-03 0.  1.
         12    1    3    3    0    0  0.11653244983E+02 -0.23292807096E+02  0.41183271625E+01  0.26368799739E+02  0.00000000000E+00 0. -1.
</event>
<event>
 7    1  0.2900470E-011  0.5052887E+02  0.7816164E-02  0.1300439E+00
        -11   -1    0    0    0    0  0.00000000000E+00  0.00000000000E+00  0.45593999997E+02  0.45594000000E+02  0.51100000000E-03 0. -1.
         11   -1    0    0    0    0 -0.00000000000E+00 -0.00000000000E+00 -0.45593999997E+02  0.45594000000E+02  0.51100000000E-03 0.  1.
    9900012    2    1    2    0    0  0.25309235668E+02 -0.29000038657E+02  0.13099815291E+02  0.50528870486E+02  0.30000032329E+02 0.  0.
         12    1    1    2    0    0 -0.25309235668E+02  0.29000038657E+02 -0.13099815291E+02  0.40659129514E+02  0.00000000000E+00 0. -1.
         11    1    3    3    0    0 -0.64854262997E+01 -0.32086104338E+01  0.41369662141E+01  0.83348920163E+01  0.51100000000E-03 0. -1.
        -11    1    3    3    0    0  0.16189136768E+02 -0.10041214507E+02  0.37113311087E+01  0.19408454780E+02  0.51100000000E-03 0.  1.
         12    1    3    3    0    0  0.15605525200E+02 -0.15750213716E+02  0.52515179678E+01  0.22785523690E+02  0.00000000000E+00 0. -1.
</event>
<event>
 7    1  0.2900470E-011  0.5052883E+02  0.7816164E-02  0.1300439E+00
        -11   -1    0    0    0    0  0.00000000000E+00  0.00000000000E+00  0.45593999997E+02  0.45594000000E+02  0.51100000000E-03 0.  1.
         11   -1    0    0    0    0 -0.00000000000E+00 -0.00000000000E+00 -0.45593999997E+02  0.45594000000E+02  0.51100000000E-03 0. -1.
    9900012    2    1    2    0    0  0.19091879098E+02 -0.27972497439E+02  0.22499059158E+02  0.50528829774E+02  0.29999908581E+02 0.  0.
         12    1    1    2    0    0 -0.19091879098E+02  0.27972497439E+02 -0.22499059158E+02  0.40659170226E+02  0.00000000000E+00 0. -1.
         11    1    3    3    0    0  0.11114172305E+01 -0.12577118311E+02 -0.70343614335E+00  0.12645709784E+02  0.51100000000E-03 0. -1.
        -11    1    3    3    0    0  0.45991224662E+01 -0.22383645066E+01  0.17555983200E+02  0.18285916699E+02  0.51100000000E-03 0.  1.
        -12    1    3    3    0    0  0.13381339401E+02 -0.13157014622E+02  0.56465121010E+01  0.19597203291E+02  0.00000000000E+00 0.  1.
</event>
<event>
 7    1  0.2900470E-011  0.5052886E+02  0.7816164E-02  0.1300439E+00
        -11   -1    0    0    0    0  0.00000000000E+00  0.00000000000E+00  0.45593999997E+02  0.45594000000E+02  0.51100000000E-03 0.  1.
         11   -1    0    0    0    0 -0.00000000000E+00 -0.00000000000E+00 -0.45593999997E+02  0.45594000000E+02  0.51100000000E-03 0. -1.
    9900012    2    1    2    0    0 -0.30974397454E+02 -0.43619683501E+01  0.25975481858E+02  0.50528859290E+02  0.29999998299E+02 0.  0.
         12    1    1    2    0    0  0.30974397454E+02  0.43619683501E+01 -0.25975481858E+02  0.40659140710E+02  0.00000000000E+00 0. -1.
         11    1    3    3    0    0  0.20196104779E+01  0.44835675042E+00  0.66754960170E+01  0.69887121555E+01  0.51100000000E-03 0. -1.
        -11    1    3    3    0    0 -0.31673875687E+02  0.22307829092E+01  0.14427741698E+02  0.34876503898E+02  0.51100000000E-03 0.  1.
        -12    1    3    3    0    0 -0.13201322452E+01 -0.70411080096E+01  0.48722441425E+01  0.86636432367E+01  0.00000000000E+00 0.  1.
</event>
<event>
 7    1  0.4033519E-011  0.5052885E+02  0.7816164E-02  0.1300439E+00
        -11   -1    0    0    0    0  0.00000000000E+00  0.00000000000E+00  0.45593999997E+02  0.45594000000E+02  0.51100000000E-03 0. -1.
         11   -1    0    0    0    0 -0.00000000000E+00 -0.00000000000E+00 -0.45593999997E+02  0.45594000000E+02  0.51100000000E-03 0.  1.
    9900012    2    1    2    0    0  0.32058602411E+02 -0.10163764099E+00 -0.25008047767E+02  0.50528846395E+02  0.29999959103E+02 0.  0.
         12    1    1    2    0    0 -0.32058602411E+02  0.10163764099E+00  0.25008047767E+02  0.40659153605E+02  0.00000000000E+00 0. -1.
         11    1    3    3    0    0 -0.37215075033E+01 -0.44012050574E+00 -0.47600350765E+01  0.60581563488E+01  0.51100000000E-03 0. -1.
        -11    1    3    3    0    0  0.25685780936E+02 -0.17649335475E+01 -0.22176846419E+02  0.33980683485E+02  0.51100000000E-03 0.  1.
         12    1    3    3    0    0  0.10094328978E+02  0.21034164122E+01  0.19288337288E+01  0.10490006562E+02  0.00000000000E+00 0. -1.
</event>
<event>
 7    1  0.2900470E-011  0.5052887E+02  0.7816164E-02  0.1300439E+00
        -11   -1    0    0    0    0  0.00000000000E+00  0.00000000000E+00  0.45593999997E+02  0.45594000000E+02  0.51100000000E-03 0.  1.
         11   -1    0    0    0    0 -0.00000000000E+00 -0.00000000000E+00 -0.45593999997E+02  0.45594000000E+02  0.51100000000E-03 0. -1.
    9900012    2    1    2    0    0 -0.11872328042E+02  0.31821303073E+01  0.38756763529E+02  0.50528870082E+02  0.30000031101E+02 0.  0.
         12    1    1    2    0    0  0.11872328042E+02 -0.31821303073E+01 -0.38756763529E+02  0.40659129918E+02  0.00000000000E+00 0. -1.
         11    1    3    3    0    0  0.61840293537E+01 -0.25810384634E+01  0.14451821549E+02  0.15929818736E+02  0.51100000000E-03 0. -1.
        -11    1    3    3    0    0 -0.12500534713E+02  0.14240915369E+01  0.24505745123E+02  0.27546741170E+02  0.51100000000E-03 0.  1.
         12    1    3    3    0    0 -0.55558226824E+01  0.43390772338E+01 -0.20080314236E+00  0.70523101762E+01  0.00000000000E+00 0. -1.
</event>
<event>
 7    1  0.2900470E-011  0.5052887E+02  0.7816164E-02  0.1300439E+00
        -11   -1    0    0    0    0  0.00000000000E+00  0.00000000000E+00  0.45593999997E+02  0.45594000000E+02  0.51100000000E-03 0.  1.
         11   -1    0    0    0    0 -0.00000000000E+00 -0.00000000000E+00 -0.45593999997E+02  0.45594000000E+02  0.51100000000E-03 0. -1.
    9900012    2    1    2    0    0 -0.17718946919E+02  0.23249762406E+02  0.28260444281E+02  0.50528865198E+02  0.30000016257E+02 0.  0.
         12    1    1    2    0    0  0.17718946919E+02 -0.23249762406E+02 -0.28260444281E+02  0.40659134802E+02  0.00000000000E+00 0. -1.
         11    1    3    3    0    0 -0.18698997172E+02  0.14837673749E+02  0.18906551927E+02  0.30451055212E+02  0.51100000000E-03 0. -1.
        -11    1    3    3    0    0  0.38653457043E+01  0.12119426443E+02  0.49859674546E+01  0.13663135308E+02  0.51100000000E-03 0.  1.
        -12    1    3    3    0    0 -0.28852954521E+01 -0.37073377859E+01  0.43679248990E+01  0.64146746783E+01  0.00000000000E+00 0.  1.
</event>
<event>
 7    1  0.2900470E-011  0.5052886E+02  0.7816164E-02  0.1300439E+00
        -11   -1    0    0    0    0  0.00000000000E+00  0.00000000000E+00  0.45593999997E+02  0.45594000000E+02  0.51100000000E-03 0.  1.
         11   -1    0    0    0    0 -0.00000000000E+00 -0.00000000000E+00 -0.45593999997E+02  0.45594000000E+02  0.51100000000E-03 0. -1.
    9900012    2    1    2    0    0 -0.10135630381E+02 -0.36684717962E+02  0.14306155508E+02  0.50528860552E+02  0.30000002135E+02 0.  0.
         12    1    1    2    0    0  0.10135630381E+02  0.36684717962E+02 -0.14306155508E+02  0.40659139448E+02  0.00000000000E+00 0. -1.
         11    1    3    3    0    0  0.48703659987E+01 -0.41186673469E+01 -0.64307402483E+01  0.90574999906E+01  0.51100000000E-03 0. -1.
        -11    1    3    3    0    0 -0.54727086286E+01 -0.13703803538E+02  0.92718477941E+01  0.17427332926E+02  0.51100000000E-03 0.  1.
         12    1    3    3    0    0 -0.95332877513E+01 -0.18862247077E+02  0.11465047962E+02  0.24044027635E+02  0.00000000000E+00 0. -1.
</event>
<event>
 7    1  0.2900470E-011  0.5052891E+02  0.7816164E-02  0.1300439E+00
        -11   -1    0    0    0    0  0.00000000000E+00  0.00000000000E+00  0.45593999997E+02  0.45594000000E+02  0.51100000000E-03 0.  1.
         11   -1    0    0    0    0 -0.00000000000E+00 -0.00000000000E+00 -0.45593999997E+02  0.45594000000E+02  0.51100000000E-03 0. -1.
    9900012    2    1    2    0    0  0.12928441126E+02 -0.37370903336E+02 -0.94568621004E+01  0.50528914337E+02  0.30000165619E+02 0.  0.
         12    1    1    2    0    0 -0.12928441126E+02  0.37370903336E+02  0.94568621004E+01  0.40659085663E+02  0.00000000000E+00 0. -1.
         11    1    3    3    0    0  0.20897000759E+02 -0.28557130196E+02 -0.11763481708E+02  0.37290398602E+02  0.51100000000E-03 0. -1.
        -11    1    3    3    0    0 -0.18781244394E+00 -0.26720889910E+01  0.19611639876E+01  0.33198640841E+01  0.51100000000E-03 0.  1.
         12    1    3    3    0    0 -0.77807471882E+01 -0.61416841492E+01  0.34545561953E+00  0.99186516513E+01  0.00000000000E+00 0. -1.
</event>
<event>
 7    1  0.2900470E-011  0.5052886E+02  0.7816164E-02  0.1300439E+00
        -11   -1    0    0    0    0  0.00000000000E+00  0.00000000000E+00  0.45593999997E+02  0.45594000000E+02  0.51100000000E-03 0. -1.
         11   -1    0    0    0    0 -0.00000000000E+00 -0.00000000000E+00 -0.45593999997E+02  0.45594000000E+02  0.51100000000E-03 0.  1.
    9900012    2    1    2    0    0 -0.20705810846E+02 -0.34594732378E+02 -0.52573370269E+01  0.50528859530E+02  0.29999999028E+02 0.  0.
         12    1    1    2    0    0  0.20705810846E+02  0.34594732378E+02  0.52573370269E+01  0.40659140470E+02  0.00000000000E+00 0. -1.
         11    1    3    3    0    0 -0.10534702172E+02 -0.38372197577E+01 -0.11927334112E+02  0.16369651939E+02  0.51100000000E-03 0. -1.
        -11    1    3    3    0    0 -0.81176644051E+01 -0.12778808154E+02  0.89972474356E+00  0.15165880063E+02  0.51100000000E-03 0.  1.
         12    1    3    3    0    0 -0.20534442689E+01 -0.17978704467E+02  0.57702723417E+01  0.18993327528E+02  0.00000000000E+00 0. -1.
</event>
<event>
 7    1  0.2900470E-011  0.5052886E+02  0.7816164E-02  0.1300439E+00
        -11   -1    0    0    0    0  0.00000000000E+00  0.00000000000E+00  0.45593999997E+02  0.45594000000E+02  0.51100000000E-03 0. -1.
         11   -1    0    0    0    0 -0.00000000000E+00 -0.00000000000E+00 -0.45593999997E+02  0.45594000000E+02  0.51100000000E-03 0.  1.
    9900012    2    1    2    0    0 -0.33030886662E+02 -0.14604275486E+02  0.18677302034E+02  0.50528856534E+02  0.29999989920E+02 0.  0.
         12    1    1    2    0    0  0.33030886662E+02  0.14604275486E+02 -0.18677302034E+02  0.40659143466E+02  0.00000000000E+00 0. -1.
         11    1    3    3    0    0 -0.31967922154E+01 -0.11972232269E+01  0.13910135087E+02  0.14322872698E+02  0.51100000000E-03 0. -1.
        -11    1    3    3    0    0 -0.10205988462E+02  0.23317237973E+01  0.34106011664E+01  0.11010510294E+02  0.51100000000E-03 0.  1.
         12    1    3    3    0    0 -0.19628105984E+02 -0.15738776057E+02  0.13565657810E+01  0.25195473542E+02  0.00000000000E+00 0. -1.
</event>
<event>
 7    1  0.2900470E-011  0.5052887E+02  0.7816164E-02  0.1300439E+00
        -11   -1    0    0    0    0  0.00000000000E+00  0.00000000000E+00  0.45593999997E+02  0.45594000000E+02  0.51100000000E-03 0. -1.
         11   -1    0    0    0    0 -0.00000000000E+00 -0.00000000000E+00 -0.45593999997E+02  0.45594000000E+02  0.51100000000E-03 0.  1.
    9900012    2    1    2    0    0  0.38447523888E+02 -0.12804506670E+02  0.33162052622E+01  0.50528871855E+02  0.30000036490E+02 0.  0.
         12    1    1    2    0    0 -0.38447523888E+02  0.12804506670E+02 -0.33162052622E+01  0.40659128145E+02  0.00000000000E+00 0. -1.
         11    1    3    3    0    0  0.31634058607E+00  0.12983278207E+01  0.11436319385E+01  0.17588691731E+01  0.51100000000E-03 0. -1.
        -11    1    3    3    0    0  0.19029961783E+01 -0.11733679892E+02  0.36488872153E+01  0.12434428674E+02  0.51100000000E-03 0.  1.
        -12    1    3    3    0    0  0.36228187124E+02 -0.23691545987E+01 -0.14763138916E+01  0.36335574008E+02  0.00000000000E+00 0.  1.
</event>
<event>
 7    1  0.2900470E-011  0.5052885E+02  0.7816164E-02  0.1300439E+00
        -11   -1    0    0    0    0  0.00000000000E+00  0.00000000000E+00  0.45593999997E+02  0.45594000000E+02  0.51100000000E-03 0.  1.
         11   -1    0    0    0    0 -0.00000000000E+00 -0.00000000000E+00 -0.45593999997E+02  0.45594000000E+02  0.51100000000E-03 0. -1.
    9900012    2    1    2    0    0 -0.79960213969E+00 -0.38156521969E+02  0.14021645575E+02  0.50528854940E+02  0.29999985077E+02 0.  0.
         12    1    1    2    0    0  0.79960213969E+00  0.38156521969E+02 -0.14021645575E+02  0.40659145060E+02  0.00000000000E+00 0. -1.
         11    1    3    3    0    0 -0.59623956276E+01 -0.36853493447E+02  0.12572497373E+02  0.39392865234E+02  0.51100000000E-03 0.  1.
        -11    1    3    3    0    0  0.57248355363E+01 -0.36006585292E+00 -0.30557234062E+01  0.64992949720E+01  0.51100000000E-03 0. -1.
        -12    1    3    3    0    0 -0.56204204841E+00 -0.94296266931E+00  0.45048716077E+01  0.46366947346E+01  0.00000000000E+00 0.  1.
</event>
<event>
 7    1  0.2900470E-011  0.5052886E+02  0.7816164E-02  0.1300439E+00
        -11   -1    0    0    0    0  0.00000000000E+00  0.00000000000E+00  0.45593999997E+02  0.45594000000E+02  0.51100000000E-03 0.  1.
         11   -1    0    0    0    0 -0.00000000000E+00 -0.00000000000E+00 -0.45593999997E+02  0.45594000000E+02  0.51100000000E-03 0. -1.
    9900012    2    1    2    0    0  0.57831381676E+01 -0.11696459038E+02  0.38508617108E+02  0.50528862864E+02  0.30000009160E+02 0.  0.
         12    1    1    2    0    0 -0.57831381676E+01  0.11696459038E+02 -0.38508617108E+02  0.40659137136E+02  0.00000000000E+00 0. -1.
         11    1    3    3    0    0 -0.84462112540E+01  0.18300708326E+01  0.28309256100E+01  0.90940521150E+01  0.51100000000E-03 0. -1.
        -11    1    3    3    0    0  0.12824829375E+02 -0.14377466045E+02  0.34049264375E+02  0.39122118847E+02  0.51100000000E-03 0.  1.
         12    1    3    3    0    0  0.14045200468E+01  0.85093617444E+00  0.16284271235E+01  0.23126919016E+01  0.00000000000E+00 0. -1.
</event>
<event>
 7    1  0.2900470E-011  0.5052888E+02  0.7816164E-02  0.1300439E+00
        -11   -1    0    0    0    0  0.00000000000E+00  0.00000000000E+00  0.45593999997E+02  0.45594000000E+02  0.51100000000E-03 0.  1.
         11   -1    0    0    0    0 -0.00000000000E+00 -0.00000000000E+00 -0.45593999997E+02  0.45594000000E+02  0.51100000000E-03 0. -1.
    9900012    2    1    2    0    0 -0.38765788073E+02  0.11051630396E+02  0.53140793925E+01  0.50528876804E+02  0.30000051532E+02 0.  0.
         12    1    1    2    0    0  0.38765788073E+02 -0.11051630396E+02 -0.53140793925E+01  0.40659123196E+02  0.00000000000E+00 0. -1.
         11    1    3    3    0    0  0.39790724788E+01  0.16240200791E+01  0.74528028140E+00  0.43618690911E+01  0.51100000000E-03 0. -1.
        -11    1    3    3    0    0 -0.18128133008E+02  0.73010591985E+00 -0.42057105808E+01  0.18623916418E+02  0.51100000000E-03 0.  1.
         12    1    3    3    0    0 -0.24616727544E+02  0.86975043970E+01  0.87745096919E+01  0.27543091294E+02  0.00000000000E+00 0. -1.
</event>
<event>
 7    1  0.2900470E-011  0.5052886E+02  0.7816164E-02  0.1300439E+00
        -11   -1    0    0    0    0  0.00000000000E+00  0.00000000000E+00  0.45593999997E+02  0.45594000000E+02  0.51100000000E-03 0. -1.
         11   -1    0    0    0    0 -0.00000000000E+00 -0.00000000000E+00 -0.45593999997E+02  0.45594000000E+02  0.51100000000E-03 0.  1.
    9900012    2    1    2    0    0 -0.11428808708E+02  0.38791718218E+02 -0.42131568015E+01  0.50528858826E+02  0.29999996887E+02 0.  0.
         12    1    1    2    0    0  0.11428808708E+02 -0.38791718218E+02  0.42131568015E+01  0.40659141174E+02  0.00000000000E+00 0. -1.
         11    1    3    3    0    0  0.23837095712E+01  0.18399880169E+02 -0.13829018578E+02  0.23140428187E+02  0.51100000000E-03 0. -1.
        -11    1    3    3    0    0 -0.45104698554E+01  0.11306970080E+02  0.72612166221E+01  0.14174525664E+02  0.51100000000E-03 0.  1.
         12    1    3    3    0    0 -0.93020484235E+01  0.90848679692E+01  0.23546451549E+01  0.13213904975E+02  0.00000000000E+00 0. -1.
</event>
<event>
 7    1  0.2900470E-011  0.5052885E+02  0.7816164E-02  0.1300439E+00
        -11   -1    0    0    0    0  0.00000000000E+00  0.00000000000E+00  0.45593999997E+02  0.45594000000E+02  0.51100000000E-03 0.  1.
         11   -1    0    0    0    0 -0.00000000000E+00 -0.00000000000E+00 -0.45593999997E+02  0.45594000000E+02  0.51100000000E-03 0. -1.
    9900012    2    1    2    0    0  0.27027112940E+02  0.29698902041E+02  0.63778104658E+01  0.50528854870E+02  0.29999984863E+02 0.  0.
         12    1    1    2    0    0 -0.27027112940E+02 -0.29698902041E+02 -0.63778104658E+01  0.40659145130E+02  0.00000000000E+00 0. -1.
         11    1    3    3    0    0  0.86732778081E+01  0.11229208056E+02  0.15378063425E+02  0.20923806930E+02  0.51100000000E-03 0. -1.
        -11    1    3    3    0    0  0.15394429300E+02  0.17571312954E+02 -0.39640357780E+01  0.23695000998E+02  0.51100000000E-03 0.  1.
         12    1    3    3    0    0  0.29594058328E+01  0.89838103165E+00 -0.50362171809E+01  0.59100469418E+01  0.00000000000E+00 0. -1.
</event>
<event>
 7    1  0.2900470E-011  0.5052886E+02  0.7816164E-02  0.1300439E+00
        -11   -1    0    0    0    0  0.00000000000E+00  0.00000000000E+00  0.45593999997E+02  0.45594000000E+02  0.51100000000E-03 0.  1.
         11   -1    0    0    0    0 -0.00000000000E+00 -0.00000000000E+00 -0.45593999997E+02  0.45594000000E+02  0.51100000000E-03 0. -1.
    9900012    2    1    2    0    0 -0.13404033774E+02 -0.26837355477E+00  0.38385222084E+02  0.50528863017E+02  0.30000009627E+02 0.  0.
         12    1    1    2    0    0  0.13404033774E+02  0.26837355477E+00 -0.38385222084E+02  0.40659136983E+02  0.00000000000E+00 0. -1.
         11    1    3    3    0    0  0.28531773777E+01 -0.98896253372E+01  0.19007860337E+02  0.21615829045E+02  0.51100000000E-03 0. -1.
        -11    1    3    3    0    0 -0.13083495746E+02  0.65537163993E+01  0.19639239977E+02  0.24491402710E+02  0.51100000000E-03 0.  1.
        -12    1    3    3    0    0 -0.31737154060E+01  0.30675353831E+01 -0.26187823080E+00  0.44216312615E+01  0.00000000000E+00 0.  1.
</event>
<event>
 7    1  0.2900470E-011  0.5052885E+02  0.7816164E-02  0.1300439E+00
        -11   -1    0    0    0    0  0.00000000000E+00  0.00000000000E+00  0.45593999997E+02  0.45594000000E+02  0.51100000000E-03 0. -1.
         11   -1    0    0    0    0 -0.00000000000E+00 -0.00000000000E+00 -0.45593999997E+02  0.45594000000E+02  0.51100000000E-03 0.  1.
    9900012    2    1    2    0    0  0.38177424501E+01  0.33870337924E+02 -0.22167352378E+02  0.50528850231E+02  0.29999970761E+02 0.  0.
         12    1    1    2    0    0 -0.38177424501E+01 -0.33870337924E+02  0.22167352378E+02  0.40659149769E+02  0.00000000000E+00 0. -1.
         11    1    3    3    0    0 -0.78368226012E+01  0.28824801256E+02 -0.10604497766E+02  0.31697639172E+02  0.51100000000E-03 0. -1.
        -11    1    3    3    0    0  0.44862011185E+01 -0.73695711994E+00 -0.74880307285E+01  0.87601204743E+01  0.51100000000E-03 0.  1.
        -12    1    3    3    0    0  0.71683639328E+01  0.57824937878E+01 -0.40748238834E+01  0.10071090584E+02  0.00000000000E+00 0.  1.
</event>
<event>
 7    1  0.2900470E-011  0.5052886E+02  0.7816164E-02  0.1300439E+00
        -11   -1    0    0    0    0  0.00000000000E+00  0.00000000000E+00  0.45593999997E+02  0.45594000000E+02  0.51100000000E-03 0.  1.
         11   -1    0    0    0    0 -0.00000000000E+00 -0.00000000000E+00 -0.45593999997E+02  0.45594000000E+02  0.51100000000E-03 0. -1.
    9900012    2    1    2    0    0  0.78225926535E+01 -0.30254165677E+01  0.39784662643E+02  0.50528862246E+02  0.30000007284E+02 0.  0.
         12    1    1    2    0    0 -0.78225926535E+01  0.30254165677E+01 -0.39784662643E+02  0.40659137754E+02  0.00000000000E+00 0. -1.
         11    1    3    3    0    0 -0.26763585052E+01 -0.52707890055E+01  0.22064569527E+02  0.22842708689E+02  0.51100000000E-03 0. -1.
        -11    1    3    3    0    0  0.66362104106E+01 -0.41484500596E+01 -0.65218170762E+00  0.78532966168E+01  0.51100000000E-03 0.  1.
        -12    1    3    3    0    0  0.38627407481E+01  0.63938224974E+01  0.18372274824E+02  0.19832856940E+02  0.00000000000E+00 0.  1.
</event>
<event>
 7    1  0.2900470E-011  0.5052887E+02  0.7816164E-02  0.1300439E+00
        -11   -1    0    0    0    0  0.00000000000E+00  0.00000000000E+00  0.45593999997E+02  0.45594000000E+02  0.51100000000E-03 0. -1.
         11   -1    0    0    0    0 -0.00000000000E+00 -0.00000000000E+00 -0.45593999997E+02  0.45594000000E+02  0.51100000000E-03 0.  1.
    9900012    2    1    2    0    0  0.36016817824E+02 -0.16746271203E+02 -0.86900084411E+01  0.50528868036E+02  0.30000024882E+02 0.  0.
         12    1    1    2    0    0 -0.36016817824E+02  0.16746271203E+02  0.86900084411E+01  0.40659131964E+02  0.00000000000E+00 0. -1.
         11    1    3    3    0    0 -0.17899298938E+01 -0.71011042631E+00  0.50669344352E+01  0.54205101858E+01  0.51100000000E-03 0. -1.
        -11    1    3    3    0    0  0.21269760387E+02 -0.36060486528E+01 -0.11067625534E+02  0.24246620982E+02  0.51100000000E-03 0.  1.
         12    1    3    3    0    0  0.16536987330E+02 -0.12430112124E+02 -0.26893173424E+01  0.20861736868E+02  0.00000000000E+00 0. -1.
</event>
<event>
 7    1  0.2900470E-011  0.5052886E+02  0.7816164E-02  0.1300439E+00
        -11   -1    0    0    0    0  0.00000000000E+00  0.00000000000E+00  0.45593999997E+02  0.45594000000E+02  0.51100000000E-03 0. -1.
         11   -1    0    0    0    0 -0.00000000000E+00 -0.00000000000E+00 -0.45593999997E+02  0.45594000000E+02  0.51100000000E-03 0.  1.
    9900012    2    1    2    0    0  0.28701410163E+02 -0.20911897889E+02 -0.19801197334E+02  0.50528857922E+02  0.29999994140E+02 0.  0.
         12    1    1    2    0    0 -0.28701410163E+02  0.20911897889E+02  0.19801197334E+02  0.40659142078E+02  0.00000000000E+00 0. -1.
         11    1    3    3    0    0 -0.23905496392E+01 -0.22751966370E+01 -0.77612987532E+01  0.84338013915E+01  0.51100000000E-03 0.  1.
        -11    1    3    3    0    0  0.19984964118E+02 -0.16139207328E+02 -0.22650564441E+00  0.25688988090E+02  0.51100000000E-03 0. -1.
         12    1    3    3    0    0  0.11106995684E+02 -0.24974939237E+01 -0.11813392936E+02  0.16406068441E+02  0.00000000000E+00 0. -1.
</event>
<event>
 7    1  0.2900470E-011  0.5052886E+02  0.7816164E-02  0.1300439E+00
        -11   -1    0    0    0    0  0.00000000000E+00  0.00000000000E+00  0.45593999997E+02  0.45594000000E+02  0.51100000000E-03 0.  1.
         11   -1    0    0    0    0 -0.00000000000E+00 -0.00000000000E+00 -0.45593999997E+02  0.45594000000E+02  0.51100000000E-03 0. -1.
    9900012    2    1    2    0    0 -0.23796973697E+02 -0.27991433972E+02  0.17416922646E+02  0.50528861699E+02  0.30000005620E+02 0.  0.
         12    1    1    2    0    0  0.23796973697E+02  0.27991433972E+02 -0.17416922646E+02  0.40659138301E+02  0.00000000000E+00 0. -1.
         11    1    3    3    0    0  0.46282880804E+01 -0.27162446913E+01 -0.41090525735E+01  0.67589458565E+01  0.51100000000E-03 0. -1.
        -11    1    3    3    0    0 -0.58439375332E+01 -0.51089015237E+01  0.55118383819E+01  0.95201283227E+01  0.51100000000E-03 0.  1.
         12    1    3    3    0    0 -0.22581324244E+02 -0.20166287757E+02  0.16014136837E+02  0.34249787520E+02  0.00000000000E+00 0. -1.
</event>
<event>
 7    1  0.2900470E-011  0.5052883E+02  0.7816164E-02  0.1300439E+00
        -11   -1    0    0    0    0  0.00000000000E+00  0.00000000000E+00  0.45593999997E+02  0.45594000000E+02  0.51100000000E-03 0.  1.
         11   -1    0    0    0    0 -0.00000000000E+00 -0.00000000000E+00 -0.45593999997E+02  0.45594000000E+02  0.51100000000E-03 0. -1.
    9900012    2    1    2    0    0 -0.29525850618E+02 -0.22091341712E+02  0.17127890510E+02  0.50528832932E+02  0.29999918181E+02 0.  0.
         12    1    1    2    0    0  0.29525850618E+02  0.22091341712E+02 -0.17127890510E+02  0.40659167068E+02  0.00000000000E+00 0. -1.
         11    1    3    3    0    0 -0.44788937829E+01  0.64339745969E+01  0.66917115098E+01  0.10307061745E+02  0.51100000000E-03 0. -1.
        -11    1    3    3    0    0 -0.20383154480E+02 -0.18524238373E+02  0.52931286293E+01  0.28047060538E+02  0.51100000000E-03 0.  1.
         12    1    3    3    0    0 -0.46638023543E+01 -0.10001077935E+02  0.51430503709E+01  0.12174710649E+02  0.00000000000E+00 0. -1.
</event>
<event>
 7    1  0.2900470E-011  0.5052886E+02  0.7816164E-02  0.1300439E+00
        -11   -1    0    0    0    0  0.00000000000E+00  0.00000000000E+00  0.45593999997E+02  0.45594000000E+02  0.51100000000E-03 0.  1.
         11   -1    0    0    0    0 -0.00000000000E+00 -0.00000000000E+00 -0.45593999997E+02  0.45594000000E+02  0.51100000000E-03 0. -1.
    9900012    2    1    2    0    0  0.15227752586E+02  0.78949142038E+01  0.36863965450E+02  0.50528855053E+02  0.29999985419E+02 0.  0.
         12    1    1    2    0    0 -0.15227752586E+02 -0.78949142038E+01 -0.36863965450E+02  0.40659144947E+02  0.00000000000E+00 0. -1.
         11    1    3    3    0    0  0.17553932149E+02  0.57134237534E+01  0.61990936223E+01  0.19473379442E+02  0.51100000000E-03 0. -1.
        -11    1    3    3    0    0 -0.85323577069E+00  0.54859655428E+00  0.24304767864E+02  0.24325926717E+02  0.51100000000E-03 0.  1.
        -12    1    3    3    0    0 -0.14729437922E+01  0.16328938961E+01  0.63601039638E+01  0.67295488943E+01  0.00000000000E+00 0.  1.
</event>
<event>
 7    1  0.2900470E-011  0.5052886E+02  0.7816164E-02  0.1300439E+00
        -11   -1    0    0    0    0  0.00000000000E+00  0.00000000000E+00  0.45593999997E+02  0.45594000000E+02  0.51100000000E-03 0.  1.
         11   -1    0    0    0    0 -0.00000000000E+00 -0.00000000000E+00 -0.45593999997E+02  0.45594000000E+02  0.51100000000E-03 0. -1.
    9900012    2    1    2    0    0  0.26207842259E+02  0.23618521352E+02 -0.20210883964E+02  0.50528863544E+02  0.30000011228E+02 0.  0.
         12    1    1    2    0    0 -0.26207842259E+02 -0.23618521352E+02  0.20210883964E+02  0.40659136456E+02  0.00000000000E+00 0. -1.
         11    1    3    3    0    0 -0.71994295585E+00  0.98650252795E+01 -0.12031861721E+02  0.15575709883E+02  0.51100000000E-03 0. -1.
        -11    1    3    3    0    0  0.19840792625E+02  0.95501074620E+01 -0.12836680097E+02  0.25488074873E+02  0.51100000000E-03 0.  1.
         12    1    3    3    0    0  0.70869925896E+01  0.42033886107E+01  0.46576578541E+01  0.94650787880E+01  0.00000000000E+00 0. -1.
</event>
<event>
 7    1  0.2900470E-011  0.5052887E+02  0.7816164E-02  0.1300439E+00
        -11   -1    0    0    0    0  0.00000000000E+00  0.00000000000E+00  0.45593999997E+02  0.45594000000E+02  0.51100000000E-03 0. -1.
         11   -1    0    0    0    0 -0.00000000000E+00 -0.00000000000E+00 -0.45593999997E+02  0.45594000000E+02  0.51100000000E-03 0.  1.
    9900012    2    1    2    0    0 -0.16636091238E+01 -0.37370051865E+02 -0.15933513692E+02  0.50528865353E+02  0.30000016726E+02 0.  0.
         12    1    1    2    0    0  0.16636091238E+01  0.37370051865E+02  0.15933513692E+02  0.40659134647E+02  0.00000000000E+00 0. -1.
         11    1    3    3    0    0  0.28593490724E+01  0.29859085073E+01 -0.98734092076E+00  0.42504551623E+01  0.51100000000E-03 0. -1.
        -11    1    3    3    0    0 -0.40763108073E+01 -0.41922366611E+02 -0.13954750110E+02  0.44371569534E+02  0.51100000000E-03 0.  1.
        -12    1    3    3    0    0 -0.44664738882E+00  0.15664062387E+01 -0.99142266108E+00  0.19068406560E+01  0.00000000000E+00 0.  1.
</event>
<event>
 7    1  0.2900470E-011  0.5052886E+02  0.7816164E-02  0.1300439E+00
        -11   -1    0    0    0    0  0.00000000000E+00  0.00000000000E+00  0.45593999997E+02  0.45594000000E+02  0.51100000000E-03 0.  1.
         11   -1    0    0    0    0 -0.00000000000E+00 -0.00000000000E+00 -0.45593999997E+02  0.45594000000E+02  0.51100000000E-03 0. -1.
    9900012    2    1    2    0    0 -0.31912601526E+01 -0.39335151214E+02  0.97840396541E+01  0.50528859646E+02  0.29999999379E+02 0.  0.
         12    1    1    2    0    0  0.31912601526E+01  0.39335151214E+02 -0.97840396541E+01  0.40659140354E+02  0.00000000000E+00 0. -1.
         11    1    3    3    0    0 -0.32940215128E+01 -0.12779097483E+01 -0.31680136242E+00  0.35473926222E+01  0.51100000000E-03 0. -1.
        -11    1    3    3    0    0  0.61418652417E+01 -0.27750650670E+02 -0.37752636661E+01  0.28671828286E+02  0.51100000000E-03 0.  1.
        -12    1    3    3    0    0 -0.60391038815E+01 -0.10306590796E+02  0.13876104683E+02  0.18309638737E+02  0.00000000000E+00 0.  1.
</event>
<event>
 7    1  0.2900470E-011  0.5052886E+02  0.7816164E-02  0.1300439E+00
        -11   -1    0    0    0    0  0.00000000000E+00  0.00000000000E+00  0.45593999997E+02  0.45594000000E+02  0.51100000000E-03 0. -1.
         11   -1    0    0    0    0 -0.00000000000E+00 -0.00000000000E+00 -0.45593999997E+02  0.45594000000E+02  0.51100000000E-03 0.  1.
    9900012    2    1    2    0    0  0.92646237271E+01  0.18410347288E+02 -0.35048415662E+02  0.50528861046E+02  0.30000003636E+02 0.  0.
         12    1    1    2    0    0 -0.92646237271E+01 -0.18410347288E+02  0.35048415662E+02  0.40659138954E+02  0.00000000000E+00 0. -1.
         11    1    3    3    0    0  0.16380262523E+02  0.17465704321E+02 -0.30045471263E+02  0.38419970997E+02  0.51100000000E-03 0. -1.
        -11    1    3    3    0    0  0.27660037547E+00 -0.16979031705E+01  0.12051818039E+01  0.21004395696E+01  0.51100000000E-03 0.  1.
         12    1    3    3    0    0 -0.73922391712E+01  0.26425461372E+01 -0.62081262034E+01  0.10008450480E+02  0.00000000000E+00 0. -1.
</event>
<event>
 7    1  0.2900470E-011  0.5052885E+02  0.7816164E-02  0.1300439E+00
        -11   -1    0    0    0    0  0.00000000000E+00  0.00000000000E+00  0.45593999997E+02  0.45594000000E+02  0.51100000000E-03 0. -1.
         11   -1    0    0    0    0 -0.00000000000E+00 -0.00000000000E+00 -0.45593999997E+02  0.45594000000E+02  0.51100000000E-03 0.  1.
    9900012    2    1    2    0    0  0.25354884225E+00 -0.18642374189E+02 -0.36132585887E+02  0.50528853854E+02  0.29999981775E+02 0.  0.
         12    1    1    2    0    0 -0.25354884225E+00  0.18642374189E+02  0.36132585887E+02  0.40659146146E+02  0.00000000000E+00 0. -1.
         11    1    3    3    0    0 -0.61203348927E+01 -0.34000705277E+01 -0.15863981967E+02  0.17340268248E+02  0.51100000000E-03 0. -1.
        -11    1    3    3    0    0 -0.30684303133E+01 -0.12094781264E+02 -0.23587809868E+01  0.12698930916E+02  0.51100000000E-03 0.  1.
        -12    1    3    3    0    0  0.94423140483E+01 -0.31475223973E+01 -0.17909822933E+02  0.20489654690E+02  0.00000000000E+00 0.  1.
</event>
<event>
 7    1  0.2900470E-011  0.5052886E+02  0.7816164E-02  0.1300439E+00
        -11   -1    0    0    0    0  0.00000000000E+00  0.00000000000E+00  0.45593999997E+02  0.45594000000E+02  0.51100000000E-03 0.  1.
         11   -1    0    0    0    0 -0.00000000000E+00 -0.00000000000E+00 -0.45593999997E+02  0.45594000000E+02  0.51100000000E-03 0. -1.
    9900012    2    1    2    0    0  0.65167959407E+01 -0.38636315720E+02  0.10859643491E+02  0.50528863530E+02  0.30000011186E+02 0.  0.
         12    1    1    2    0    0 -0.65167959407E+01  0.38636315720E+02 -0.10859643491E+02  0.40659136470E+02  0.00000000000E+00 0. -1.
         11    1    3    3    0    0  0.90959999062E+01 -0.13072634010E+02  0.13703045482E+02  0.21009627079E+02  0.51100000000E-03 0. -1.
        -11    1    3    3    0    0  0.10775971416E+01 -0.22930200365E+02  0.18284290804E+01  0.23028210037E+02  0.51100000000E-03 0.  1.
         12    1    3    3    0    0 -0.36568011072E+01 -0.26334813451E+01 -0.46718310721E+01  0.64910264134E+01  0.00000000000E+00 0. -1.
</event>
<event>
 7    1  0.2900470E-011  0.5052886E+02  0.7816164E-02  0.1300439E+00
        -11   -1    0    0    0    0  0.00000000000E+00  0.00000000000E+00  0.45593999997E+02  0.45594000000E+02  0.51100000000E-03 0.  1.
         11   -1    0    0    0    0 -0.00000000000E+00 -0.00000000000E+00 -0.45593999997E+02  0.45594000000E+02  0.51100000000E-03 0. -1.
    9900012    2    1    2    0    0  0.10915427250E+02  0.32647616708E+02  0.21636827643E+02  0.50528859094E+02  0.29999997703E+02 0.  0.
         12    1    1    2    0    0 -0.10915427250E+02 -0.32647616708E+02 -0.21636827643E+02  0.40659140906E+02  0.00000000000E+00 0. -1.
         11    1    3    3    0    0 -0.50034051585E+01  0.20538991270E+01  0.64506651428E+01  0.84180547545E+01  0.51100000000E-03 0. -1.
        -11    1    3    3    0    0  0.13157586187E+02  0.95511040774E+01  0.43439142876E+00  0.16264512275E+02  0.51100000000E-03 0.  1.
        -12    1    3    3    0    0  0.27612462206E+01  0.21042613503E+02  0.14751771071E+02  0.25846292065E+02  0.00000000000E+00 0.  1.
</event>
<event>
 7    1  0.2900470E-011  0.5052881E+02  0.7816164E-02  0.1300439E+00
        -11   -1    0    0    0    0  0.00000000000E+00  0.00000000000E+00  0.45593999997E+02  0.45594000000E+02  0.51100000000E-03 0.  1.
         11   -1    0    0    0    0 -0.00000000000E+00 -0.00000000000E+00 -0.45593999997E+02  0.45594000000E+02  0.51100000000E-03 0. -1.
    9900012    2    1    2    0    0 -0.59473769310E+01 -0.30971048127E+02  0.25663054111E+02  0.50528813329E+02  0.29999858596E+02 0.  0.
         12    1    1    2    0    0  0.59473769310E+01  0.30971048127E+02 -0.25663054111E+02  0.40659186671E+02  0.00000000000E+00 0. -1.
         11    1    3    3    0    0  0.21133909370E+01 -0.90020937352E+01 -0.56101071267E+01  0.10815609789E+02  0.51100000000E-03 0. -1.
        -11    1    3    3    0    0 -0.39019687183E+01 -0.64339137652E+01  0.54474740625E+01  0.92895414385E+01  0.51100000000E-03 0.  1.
         12    1    3    3    0    0 -0.41587991497E+01 -0.15535040626E+02  0.25825687175E+02  0.30423662102E+02  0.00000000000E+00 0. -1.
</event>
<event>
 7    1  0.2900470E-011  0.5052885E+02  0.7816164E-02  0.1300439E+00
        -11   -1    0    0    0    0  0.00000000000E+00  0.00000000000E+00  0.45593999997E+02  0.45594000000E+02  0.51100000000E-03 0. -1.
         11   -1    0    0    0    0 -0.00000000000E+00 -0.00000000000E+00 -0.45593999997E+02  0.45594000000E+02  0.51100000000E-03 0.  1.
    9900012    2    1    2    0    0  0.11926343691E+02  0.29198410991E+02 -0.25658943700E+02  0.50528852566E+02  0.29999977861E+02 0.  0.
         12    1    1    2    0    0 -0.11926343691E+02 -0.29198410991E+02  0.25658943700E+02  0.40659147434E+02  0.00000000000E+00 0. -1.
         11    1    3    3    0    0  0.50219669188E+01 -0.22803454596E+00 -0.16559756938E+02  0.17306001895E+02  0.51100000000E-03 0. -1.
        -11    1    3    3    0    0  0.39387200295E+01  0.25069600625E+02 -0.10947461063E+02  0.27637751264E+02  0.51100000000E-03 0.  1.
         12    1    3    3    0    0  0.29656567425E+01  0.43568449117E+01  0.18482743003E+01  0.55850994071E+01  0.00000000000E+00 0. -1.
</event>
<event>
 7    1  0.2900470E-011  0.5052886E+02  0.7816164E-02  0.1300439E+00
        -11   -1    0    0    0    0  0.00000000000E+00  0.00000000000E+00  0.45593999997E+02  0.45594000000E+02  0.51100000000E-03 0.  1.
         11   -1    0    0    0    0 -0.00000000000E+00 -0.00000000000E+00 -0.45593999997E+02  0.45594000000E+02  0.51100000000E-03 0. -1.
    9900012    2    1    2    0    0  0.14370322209E+02 -0.20233085580E+02  0.32206855654E+02  0.50528862483E+02  0.30000008003E+02 0.  0.
         12    1    1    2    0    0 -0.14370322209E+02  0.20233085580E+02 -0.32206855654E+02  0.40659137517E+02  0.00000000000E+00 0. -1.
         11    1    3    3    0    0  0.38465087016E+00 -0.51419155268E+01  0.10642453813E+02  0.11825780101E+02  0.51100000000E-03 0. -1.
        -11    1    3    3    0    0 -0.22775824998E+01  0.43327588124E+01 -0.73937436800E+00  0.49504399489E+01  0.51100000000E-03 0.  1.
        -12    1    3    3    0    0  0.16263253839E+02 -0.19423928866E+02  0.22303776209E+02  0.33752642433E+02  0.00000000000E+00 0.  1.
</event>
<event>
 7    1  0.2900470E-011  0.5052886E+02  0.7816164E-02  0.1300439E+00
        -11   -1    0    0    0    0  0.00000000000E+00  0.00000000000E+00  0.45593999997E+02  0.45594000000E+02  0.51100000000E-03 0. -1.
         11   -1    0    0    0    0 -0.00000000000E+00 -0.00000000000E+00 -0.45593999997E+02  0.45594000000E+02  0.51100000000E-03 0.  1.
    9900012    2    1    2    0    0  0.13012793552E+02 -0.27195531705E+02 -0.27280685979E+02  0.50528861197E+02  0.30000004093E+02 0.  0.
         12    1    1    2    0    0 -0.13012793552E+02  0.27195531705E+02  0.27280685979E+02  0.40659138803E+02  0.00000000000E+00 0. -1.
         11    1    3    3    0    0  0.25165751949E+01 -0.94319197698E-01 -0.13439928095E+02  0.13673833197E+02  0.51100000000E-03 0. -1.
        -11    1    3    3    0    0  0.15261053452E+02 -0.17724794015E+02 -0.74467668640E+01  0.24546331952E+02  0.51100000000E-03 0.  1.
        -12    1    3    3    0    0 -0.47648350950E+01 -0.93764184929E+01 -0.63939910197E+01  0.12308696048E+02  0.00000000000E+00 0.  1.
</event>
<event>
 7    1  0.2900470E-011  0.5052886E+02  0.7816164E-02  0.1300439E+00
        -11   -1    0    0    0    0  0.00000000000E+00  0.00000000000E+00  0.45593999997E+02  0.45594000000E+02  0.51100000000E-03 0.  1.
         11   -1    0    0    0    0 -0.00000000000E+00 -0.00000000000E+00 -0.45593999997E+02  0.45594000000E+02  0.51100000000E-03 0. -1.
    9900012    2    1    2    0    0 -0.13117593277E+02 -0.17477267678E+02  0.34287598760E+02  0.50528861204E+02  0.30000004117E+02 0.  0.
         12    1    1    2    0    0  0.13117593277E+02  0.17477267678E+02 -0.34287598760E+02  0.40659138796E+02  0.00000000000E+00 0. -1.
         11    1    3    3    0    0 -0.55755208477E+01  0.31220705788E+01 -0.18937424141E+01  0.66648344326E+01  0.51100000000E-03 0. -1.
        -11    1    3    3    0    0  0.91097929464E+00 -0.31993057797E+01  0.14192378800E+02  0.14577004391E+02  0.51100000000E-03 0.  1.
         12    1    3    3    0    0 -0.84530517239E+01 -0.17400032477E+02  0.21988962374E+02  0.29287022381E+02  0.00000000000E+00 0. -1.
</event>
<event>
 7    1  0.2900470E-011  0.5052886E+02  0.7816164E-02  0.1300439E+00
        -11   -1    0    0    0    0  0.00000000000E+00  0.00000000000E+00  0.45593999997E+02  0.45594000000E+02  0.51100000000E-03 0.  1.
         11   -1    0    0    0    0 -0.00000000000E+00 -0.00000000000E+00 -0.45593999997E+02  0.45594000000E+02  0.51100000000E-03 0. -1.
    9900012    2    1    2    0    0  0.11735426811E+02 -0.29217925796E+02  0.25724669723E+02  0.50528855117E+02  0.29999985614E+02 0.  0.
         12    1    1    2    0    0 -0.11735426811E+02  0.29217925796E+02 -0.25724669723E+02  0.40659144883E+02  0.00000000000E+00 0. -1.
         11    1    3    3    0    0  0.16811692413E+01 -0.23679329725E+01 -0.45277513256E+00  0.29391226857E+01  0.51100000000E-03 0. -1.
        -11    1    3    3    0    0 -0.56870550593E+01 -0.59565485973E+00 -0.19261426310E+01  0.60338566154E+01  0.51100000000E-03 0.  1.
        -12    1    3    3    0    0  0.15741312629E+02 -0.26254337964E+02  0.28103587487E+02  0.41555875816E+02  0.00000000000E+00 0.  1.
</event>
<event>
 7    1  0.2900470E-011  0.5052887E+02  0.7816164E-02  0.1300439E+00
        -11   -1    0    0    0    0  0.00000000000E+00  0.00000000000E+00  0.45593999997E+02  0.45594000000E+02  0.51100000000E-03 0. -1.
         11   -1    0    0    0    0 -0.00000000000E+00 -0.00000000000E+00 -0.45593999997E+02  0.45594000000E+02  0.51100000000E-03 0.  1.
    9900012    2    1    2    0    0  0.24948372382E+02 -0.14105912802E+02 -0.28840361367E+02  0.50528874280E+02  0.30000043862E+02 0.  0.
         12    1    1    2    0    0 -0.24948372382E+02  0.14105912802E+02  0.28840361367E+02  0.40659125720E+02  0.00000000000E+00 0. -1.
         11    1    3    3    0    0  0.62799252409E+01 -0.18717480408E+02 -0.14318669323E+02  0.24388641317E+02  0.51100000000E-03 0. -1.
        -11    1    3    3    0    0  0.11739029017E+01  0.23596395394E+01  0.82294149293E+00  0.27610106375E+01  0.51100000000E-03 0.  1.
         12    1    3    3    0    0  0.17494544240E+02  0.22519280666E+01 -0.15344633537E+02  0.23379222326E+02  0.00000000000E+00 0. -1.
</event>
<event>
 7    1  0.2900470E-011  0.5052886E+02  0.7816164E-02  0.1300439E+00
        -11   -1    0    0    0    0  0.00000000000E+00  0.00000000000E+00  0.45593999997E+02  0.45594000000E+02  0.51100000000E-03 0.  1.
         11   -1    0    0    0    0 -0.00000000000E+00 -0.00000000000E+00 -0.45593999997E+02  0.45594000000E+02  0.51100000000E-03 0. -1.
    9900012    2    1    2    0    0  0.10887672452E+02  0.12278621983E+02  0.37200265277E+02  0.50528859504E+02  0.29999998948E+02 0.  0.
         12    1    1    2    0    0 -0.10887672452E+02 -0.12278621983E+02 -0.37200265277E+02  0.40659140496E+02  0.00000000000E+00 0. -1.
         11    1    3    3    0    0 -0.55149604796E+01 -0.49205403083E+01  0.23479495095E+01  0.77549579740E+01  0.51100000000E-03 0. -1.
        -11    1    3    3    0    0  0.15308649104E+02  0.12594750224E+02  0.25566585796E+02  0.32351704439E+02  0.51100000000E-03 0.  1.
        -12    1    3    3    0    0  0.10939838272E+01  0.46044120671E+01  0.92857299716E+01  0.10422197091E+02  0.00000000000E+00 0.  1.
</event>
<event>
 7    1  0.2900470E-011  0.5052886E+02  0.7816164E-02  0.1300439E+00
        -11   -1    0    0    0    0  0.00000000000E+00  0.00000000000E+00  0.45593999997E+02  0.45594000000E+02  0.51100000000E-03 0.  1.
         11   -1    0    0    0    0 -0.00000000000E+00 -0.00000000000E+00 -0.45593999997E+02  0.45594000000E+02  0.51100000000E-03 0. -1.
    9900012    2    1    2    0    0  0.73600889751E+01 -0.10584883355E+02  0.38561055662E+02  0.50528859833E+02  0.29999999948E+02 0.  0.
         12    1    1    2    0    0 -0.73600889751E+01  0.10584883355E+02 -0.38561055662E+02  0.40659140167E+02  0.00000000000E+00 0. -1.
         11    1    3    3    0    0  0.36873848384E+00  0.37097592268E+00 -0.47634149856E+01  0.47920469312E+01  0.51100000000E-03 0. -1.
        -11    1    3    3    0    0  0.24328723689E+00 -0.54672031370E+01  0.22753708973E+02  0.23402580437E+02  0.51100000000E-03 0.  1.
         12    1    3    3    0    0  0.67480632544E+01 -0.54886561404E+01  0.20570761674E+02  0.22334232464E+02  0.00000000000E+00 0. -1.
</event>
<event>
 7    1  0.2900470E-011  0.5052884E+02  0.7816164E-02  0.1300439E+00
        -11   -1    0    0    0    0  0.00000000000E+00  0.00000000000E+00  0.45593999997E+02  0.45594000000E+02  0.51100000000E-03 0. -1.
         11   -1    0    0    0    0 -0.00000000000E+00 -0.00000000000E+00 -0.45593999997E+02  0.45594000000E+02  0.51100000000E-03 0.  1.
    9900012    2    1    2    0    0 -0.23395833566E+02  0.16611801179E+02 -0.28807124367E+02  0.50528838905E+02  0.29999936335E+02 0.  0.
         12    1    1    2    0    0  0.23395833566E+02 -0.16611801179E+02  0.28807124367E+02  0.40659161095E+02  0.00000000000E+00 0. -1.
         11    1    3    3    0    0  0.45679108328E+01  0.53271655831E+01  0.18920609447E+01  0.72680394472E+01  0.51100000000E-03 0. -1.
        -11    1    3    3    0    0 -0.10210879354E+02  0.38449236590E+01 -0.14206004648E+02  0.17912455539E+02  0.51100000000E-03 0.  1.
         12    1    3    3    0    0 -0.17752865044E+02  0.74397119372E+01 -0.16493180664E+02  0.25348343919E+02  0.00000000000E+00 0. -1.
</event>
<event>
 7    1  0.2900470E-011  0.5052886E+02  0.7816164E-02  0.1300439E+00
        -11   -1    0    0    0    0  0.00000000000E+00  0.00000000000E+00  0.45593999997E+02  0.45594000000E+02  0.51100000000E-03 0.  1.
         11   -1    0    0    0    0 -0.00000000000E+00 -0.00000000000E+00 -0.45593999997E+02  0.45594000000E+02  0.51100000000E-03 0. -1.
    9900012    2    1    2    0    0  0.43161082355E+01 -0.29126746630E+02  0.28038710879E+02  0.50528862438E+02  0.30000007866E+02 0.  0.
         12    1    1    2    0    0 -0.43161082355E+01  0.29126746630E+02 -0.28038710879E+02  0.40659137562E+02  0.00000000000E+00 0. -1.
         11    1    3    3    0    0  0.57887246146E+00 -0.70371466381E+01 -0.61451417805E+00  0.70876056654E+01  0.51100000000E-03 0. -1.
        -11    1    3    3    0    0 -0.36220096668E+01 -0.24152386489E+02  0.25072229352E+02  0.35001048728E+02  0.51100000000E-03 0.  1.
        -12    1    3    3    0    0  0.73592454409E+01  0.20627864967E+01  0.35809957049E+01  0.84402080442E+01  0.00000000000E+00 0.  1.
</event>
<event>
 7    1  0.2900470E-011  0.5052885E+02  0.7816164E-02  0.1300439E+00
        -11   -1    0    0    0    0  0.00000000000E+00  0.00000000000E+00  0.45593999997E+02  0.45594000000E+02  0.51100000000E-03 0.  1.
         11   -1    0    0    0    0 -0.00000000000E+00 -0.00000000000E+00 -0.45593999997E+02  0.45594000000E+02  0.51100000000E-03 0. -1.
    9900012    2    1    2    0    0 -0.36966188465E+01 -0.38469178313E+02  0.12634239279E+02  0.50528847609E+02  0.29999962792E+02 0.  0.
         12    1    1    2    0    0  0.36966188465E+01  0.38469178313E+02 -0.12634239279E+02  0.40659152391E+02  0.00000000000E+00 0. -1.
         11    1    3    3    0    0 -0.28731085250E+01 -0.14302362635E+01 -0.90905290735E+00  0.33356717188E+01  0.51100000000E-03 0. -1.
        -11    1    3    3    0    0  0.22093289031E+01 -0.17243863129E+02  0.19669410989E+02  0.26251051002E+02  0.51100000000E-03 0.  1.
        -12    1    3    3    0    0 -0.30328392246E+01 -0.19795078921E+02 -0.61261188025E+01  0.20942124888E+02  0.00000000000E+00 0.  1.
</event>
<event>
 7    1  0.2900470E-011  0.5052886E+02  0.7816164E-02  0.1300439E+00
        -11   -1    0    0    0    0  0.00000000000E+00  0.00000000000E+00  0.45593999997E+02  0.45594000000E+02  0.51100000000E-03 0.  1.
         11   -1    0    0    0    0 -0.00000000000E+00 -0.00000000000E+00 -0.45593999997E+02  0.45594000000E+02  0.51100000000E-03 0. -1.
    9900012    2    1    2    0    0  0.38383216298E+02  0.11429802992E+02 -0.70181225290E+01  0.50528859162E+02  0.29999997909E+02 0.  0.
         12    1    1    2    0    0 -0.38383216298E+02 -0.11429802992E+02  0.70181225290E+01  0.40659140838E+02  0.00000000000E+00 0. -1.
         11    1    3    3    0    0  0.30048021690E+02 -0.48834631553E+01 -0.82562193639E+01  0.31541987545E+02  0.51100000000E-03 0. -1.
        -11    1    3    3    0    0  0.84203367803E+01  0.14009634052E+02  0.21927338327E+01  0.16491816142E+02  0.51100000000E-03 0.  1.
         12    1    3    3    0    0 -0.85142172031E-01  0.23036320957E+01 -0.95463699777E+00  0.24950554742E+01  0.00000000000E+00 0. -1.
</event>
<event>
 7    1  0.2900470E-011  0.5052886E+02  0.7816164E-02  0.1300439E+00
        -11   -1    0    0    0    0  0.00000000000E+00  0.00000000000E+00  0.45593999997E+02  0.45594000000E+02  0.51100000000E-03 0.  1.
         11   -1    0    0    0    0 -0.00000000000E+00 -0.00000000000E+00 -0.45593999997E+02  0.45594000000E+02  0.51100000000E-03 0. -1.
    9900012    2    1    2    0    0  0.56392997414E+01 -0.24894438180E+02  0.31648548826E+02  0.50528863306E+02  0.30000010506E+02 0.  0.
         12    1    1    2    0    0 -0.56392997414E+01  0.24894438180E+02 -0.31648548826E+02  0.40659136694E+02  0.00000000000E+00 0. -1.
         11    1    3    3    0    0 -0.80249106707E+01 -0.15214169913E+02  0.10901192973E+02  0.20364335637E+02  0.51100000000E-03 0. -1.
        -11    1    3    3    0    0  0.84731256767E+01 -0.12248153587E+02  0.18946722320E+02  0.24099572858E+02  0.51100000000E-03 0.  1.
         12    1    3    3    0    0  0.51910847354E+01  0.25678853199E+01  0.18006335330E+01  0.60649548116E+01  0.00000000000E+00 0. -1.
</event>
<event>
 7    1  0.2900470E-011  0.5052882E+02  0.7816164E-02  0.1300439E+00
        -11   -1    0    0    0    0  0.00000000000E+00  0.00000000000E+00  0.45593999997E+02  0.45594000000E+02  0.51100000000E-03 0. -1.
         11   -1    0    0    0    0 -0.00000000000E+00 -0.00000000000E+00 -0.45593999997E+02  0.45594000000E+02  0.51100000000E-03 0.  1.
    9900012    2    1    2    0    0  0.15970495553E+02 -0.18071783450E+02 -0.32734125053E+02  0.50528818647E+02  0.29999874760E+02 0.  0.
         12    1    1    2    0    0 -0.15970495553E+02  0.18071783450E+02  0.32734125053E+02  0.40659181353E+02  0.00000000000E+00 0. -1.
         11    1    3    3    0    0  0.10594894042E+02 -0.11896237723E+02 -0.82529361106E+01  0.17941103824E+02  0.51100000000E-03 0. -1.
        -11    1    3    3    0    0 -0.48281089234E+00  0.63047748809E+01 -0.13689907552E+02  0.15079683740E+02  0.51100000000E-03 0.  1.
        -12    1    3    3    0    0  0.58584124026E+01 -0.12480320608E+02 -0.10791281391E+02  0.17508031083E+02  0.00000000000E+00 0.  1.
</event>
<event>
 7    1  0.2900470E-011  0.5052886E+02  0.7816164E-02  0.1300439E+00
        -11   -1    0    0    0    0  0.00000000000E+00  0.00000000000E+00  0.45593999997E+02  0.45594000000E+02  0.51100000000E-03 0.  1.
         11   -1    0    0    0    0 -0.00000000000E+00 -0.00000000000E+00 -0.45593999997E+02  0.45594000000E+02  0.51100000000E-03 0. -1.
    9900012    2    1    2    0    0  0.21362653964E+02  0.34997086654E+01  0.34417364217E+02  0.50528857058E+02  0.29999991513E+02 0.  0.
         12    1    1    2    0    0 -0.21362653964E+02 -0.34997086654E+01 -0.34417364217E+02  0.40659142942E+02  0.00000000000E+00 0. -1.
         11    1    3    3    0    0  0.95412201783E+01 -0.98245460037E+00  0.32995453921E+02  0.34361316612E+02  0.51100000000E-03 0. -1.
        -11    1    3    3    0    0  0.78985055149E+01  0.20453956978E+01  0.56354394159E+01  0.99160582189E+01  0.51100000000E-03 0.  1.
         12    1    3    3    0    0  0.39229282705E+01  0.24367675680E+01 -0.42135291198E+01  0.62514822274E+01  0.00000000000E+00 0. -1.
</event>
<event>
 7    1  0.2900470E-011  0.5052887E+02  0.7816164E-02  0.1300439E+00
        -11   -1    0    0    0    0  0.00000000000E+00  0.00000000000E+00  0.45593999997E+02  0.45594000000E+02  0.51100000000E-03 0. -1.
         11   -1    0    0    0    0 -0.00000000000E+00 -0.00000000000E+00 -0.45593999997E+02  0.45594000000E+02  0.51100000000E-03 0.  1.
    9900012    2    1    2    0    0 -0.24156603373E+02  0.63697755574E+01 -0.32078794338E+02  0.50528873431E+02  0.30000041282E+02 0.  0.
         12    1    1    2    0    0  0.24156603373E+02 -0.63697755574E+01  0.32078794338E+02  0.40659126569E+02  0.00000000000E+00 0. -1.
         11    1    3    3    0    0  0.53597333904E+01  0.14706697713E+01 -0.58176109384E+01  0.80457571977E+01  0.51100000000E-03 0.  1.
        -11    1    3    3    0    0 -0.13389748430E+02 -0.36958755343E+01 -0.17132010488E+02  0.22055626099E+02  0.51100000000E-03 0. -1.
         12    1    3    3    0    0 -0.16126588333E+02  0.85949813205E+01 -0.91291729119E+01  0.20427490135E+02  0.00000000000E+00 0. -1.
</event>
<event>
 7    1  0.2900470E-011  0.5052885E+02  0.7816164E-02  0.1300439E+00
        -11   -1    0    0    0    0  0.00000000000E+00  0.00000000000E+00  0.45593999997E+02  0.45594000000E+02  0.51100000000E-03 0.  1.
         11   -1    0    0    0    0 -0.00000000000E+00 -0.00000000000E+00 -0.45593999997E+02  0.45594000000E+02  0.51100000000E-03 0. -1.
    9900012    2    1    2    0    0  0.13435754620E+02 -0.33940020336E+02  0.17908711048E+02  0.50528850795E+02  0.29999972478E+02 0.  0.
         12    1    1    2    0    0 -0.13435754620E+02  0.33940020336E+02 -0.17908711048E+02  0.40659149205E+02  0.00000000000E+00 0. -1.
         11    1    3    3    0    0  0.95342039351E+01 -0.22714265254E+02  0.22594259851E+02  0.33426628146E+02  0.51100000000E-03 0. -1.
        -11    1    3    3    0    0 -0.27862185283E+01 -0.81055653864E+01 -0.42670417055E+00  0.85816828554E+01  0.51100000000E-03 0.  1.
         12    1    3    3    0    0  0.66877692131E+01 -0.31201896960E+01 -0.42588446323E+01  0.85205397944E+01  0.00000000000E+00 0. -1.
</event>
<event>
 7    1  0.2900470E-011  0.5052886E+02  0.7816164E-02  0.1300439E+00
        -11   -1    0    0    0    0  0.00000000000E+00  0.00000000000E+00  0.45593999997E+02  0.45594000000E+02  0.51100000000E-03 0.  1.
         11   -1    0    0    0    0 -0.00000000000E+00 -0.00000000000E+00 -0.45593999997E+02  0.45594000000E+02  0.51100000000E-03 0. -1.
    9900012    2    1    2    0    0 -0.45762555362E+01  0.20993318434E+02  0.34518174135E+02  0.50528857373E+02  0.29999992470E+02 0.  0.
         12    1    1    2    0    0  0.45762555362E+01 -0.20993318434E+02 -0.34518174135E+02  0.40659142627E+02  0.00000000000E+00 0. -1.
         11    1    3    3    0    0 -0.12879521112E+02  0.10633255373E+02  0.80311758821E+01  0.18532349290E+02  0.51100000000E-03 0. -1.
        -11    1    3    3    0    0  0.73726860152E+01  0.10440976154E+02  0.27675725339E+02  0.30484688869E+02  0.51100000000E-03 0.  1.
         12    1    3    3    0    0  0.93057956092E+00 -0.80913093212E-01 -0.11887270867E+01  0.15118192135E+01  0.00000000000E+00 0. -1.
</event>
<event>
 7    1  0.2900470E-011  0.5052885E+02  0.7816164E-02  0.1300439E+00
        -11   -1    0    0    0    0  0.00000000000E+00  0.00000000000E+00  0.45593999997E+02  0.45594000000E+02  0.51100000000E-03 0. -1.
         11   -1    0    0    0    0 -0.00000000000E+00 -0.00000000000E+00 -0.45593999997E+02  0.45594000000E+02  0.51100000000E-03 0.  1.
    9900012    2    1    2    0    0  0.40546317370E+02 -0.72819159842E+00 -0.29381124711E+01  0.50528848261E+02  0.29999964774E+02 0.  0.
         12    1    1    2    0    0 -0.40546317370E+02  0.72819159842E+00  0.29381124711E+01  0.40659151739E+02  0.00000000000E+00 0. -1.
         11    1    3    3    0    0  0.11432697944E+02 -0.49561458629E+01 -0.11828977801E+02  0.17181230462E+02  0.51100000000E-03 0.  1.
        -11    1    3    3    0    0  0.22249876746E+02  0.85550405936E+01  0.50335425848E+01  0.24363544200E+02  0.51100000000E-03 0. -1.
        -12    1    3    3    0    0  0.68637426792E+01 -0.43270863291E+01  0.38573227455E+01  0.89840735988E+01  0.00000000000E+00 0.  1.
</event>
<event>
 7    1  0.2900470E-011  0.5052886E+02  0.7816164E-02  0.1300439E+00
        -11   -1    0    0    0    0  0.00000000000E+00  0.00000000000E+00  0.45593999997E+02  0.45594000000E+02  0.51100000000E-03 0.  1.
         11   -1    0    0    0    0 -0.00000000000E+00 -0.00000000000E+00 -0.45593999997E+02  0.45594000000E+02  0.51100000000E-03 0. -1.
    9900012    2    1    2    0    0 -0.38893105735E+02  0.21933334580E+01  0.11648217854E+02  0.50528863701E+02  0.30000011706E+02 0.  0.
         12    1    1    2    0    0  0.38893105735E+02 -0.21933334580E+01 -0.11648217854E+02  0.40659136299E+02  0.00000000000E+00 0. -1.
         11    1    3    3    0    0 -0.91138134575E+01  0.87604649382E+01 -0.21809816731E+01  0.12828250972E+02  0.51100000000E-03 0. -1.
        -11    1    3    3    0    0 -0.29630999817E+02 -0.81978645501E+01  0.81726768039E+01  0.31811849675E+02  0.51100000000E-03 0.  1.
        -12    1    3    3    0    0 -0.14829246082E+00  0.16307330698E+01  0.56565227231E+01  0.58887630548E+01  0.00000000000E+00 0.  1.
</event>
<event>
 7    1  0.2900470E-011  0.5052885E+02  0.7816164E-02  0.1300439E+00
        -11   -1    0    0    0    0  0.00000000000E+00  0.00000000000E+00  0.45593999997E+02  0.45594000000E+02  0.51100000000E-03 0.  1.
         11   -1    0    0    0    0 -0.00000000000E+00 -0.00000000000E+00 -0.45593999997E+02  0.45594000000E+02  0.51100000000E-03 0. -1.
    9900012    2    1    2    0    0  0.29851551979E+02 -0.16294145562E+02  0.22283441638E+02  0.50528854578E+02  0.29999983977E+02 0.  0.
         12    1    1    2    0    0 -0.29851551979E+02  0.16294145562E+02 -0.22283441638E+02  0.40659145422E+02  0.00000000000E+00 0. -1.
         11    1    3    3    0    0  0.95102696347E+01 -0.15630514725E+02  0.13169875941E+02  0.22543377113E+02  0.51100000000E-03 0. -1.
        -11    1    3    3    0    0  0.21502035538E+02  0.16034165303E+01  0.35304415587E+01  0.21848855684E+02  0.51100000000E-03 0.  1.
         12    1    3    3    0    0 -0.11607531934E+01 -0.22670473674E+01  0.55831241385E+01  0.61366217814E+01  0.00000000000E+00 0. -1.
</event>
<event>
 7    1  0.2900470E-011  0.5052886E+02  0.7816164E-02  0.1300439E+00
        -11   -1    0    0    0    0  0.00000000000E+00  0.00000000000E+00  0.45593999997E+02  0.45594000000E+02  0.51100000000E-03 0.  1.
         11   -1    0    0    0    0 -0.00000000000E+00 -0.00000000000E+00 -0.45593999997E+02  0.45594000000E+02  0.51100000000E-03 0. -1.
    9900012    2    1    2    0    0 -0.30743120631E+02  0.14703460528E+02  0.22177333724E+02  0.50528863896E+02  0.30000012297E+02 0.  0.
         12    1    1    2    0    0  0.30743120631E+02 -0.14703460528E+02 -0.22177333724E+02  0.40659136104E+02  0.00000000000E+00 0. -1.
         11    1    3    3    0    0 -0.72928541026E+01  0.87819789201E+01  0.15071243232E+01  0.11514351858E+02  0.51100000000E-03 0.  1.
        -11    1    3    3    0    0 -0.74882222184E+01 -0.49993426757E+01  0.17130940430E+02  0.19352933097E+02  0.51100000000E-03 0. -1.
        -12    1    3    3    0    0 -0.15962044310E+02  0.10920824284E+02  0.35392689706E+01  0.19661578941E+02  0.00000000000E+00 0.  1.
</event>
<event>
 7    1  0.2900470E-011  0.5052885E+02  0.7816164E-02  0.1300439E+00
        -11   -1    0    0    0    0  0.00000000000E+00  0.00000000000E+00  0.45593999997E+02  0.45594000000E+02  0.51100000000E-03 0.  1.
         11   -1    0    0    0    0 -0.00000000000E+00 -0.00000000000E+00 -0.45593999997E+02  0.45594000000E+02  0.51100000000E-03 0. -1.
    9900012    2    1    2    0    0  0.17479028315E+02 -0.58626574632E+00  0.36705667351E+02  0.50528853993E+02  0.29999982196E+02 0.  0.
         12    1    1    2    0    0 -0.17479028315E+02  0.58626574632E+00 -0.36705667351E+02  0.40659146007E+02  0.00000000000E+00 0. -1.
         11    1    3    3    0    0  0.51914701006E+01  0.10081628727E+02  0.11301990031E+02  0.16010171096E+02  0.51100000000E-03 0. -1.
        -11    1    3    3    0    0  0.11236885326E+02 -0.14987567447E+02  0.22153989751E+02  0.29011963600E+02  0.51100000000E-03 0.  1.
        -12    1    3    3    0    0  0.10506728889E+01  0.43196729729E+01  0.32496875690E+01  0.55067192963E+01  0.00000000000E+00 0.  1.
</event>
<event>
 7    1  0.2900470E-011  0.5052885E+02  0.7816164E-02  0.1300439E+00
        -11   -1    0    0    0    0  0.00000000000E+00  0.00000000000E+00  0.45593999997E+02  0.45594000000E+02  0.51100000000E-03 0.  1.
         11   -1    0    0    0    0 -0.00000000000E+00 -0.00000000000E+00 -0.45593999997E+02  0.45594000000E+02  0.51100000000E-03 0. -1.
    9900012    2    1    2    0    0  0.29652670233E+01 -0.42123653082E+01  0.40331500899E+02  0.50528846113E+02  0.29999958246E+02 0.  0.
         12    1    1    2    0    0 -0.29652670233E+01  0.42123653082E+01 -0.40331500899E+02  0.40659153887E+02  0.00000000000E+00 0. -1.
         11    1    3    3    0    0 -0.39347066595E+01 -0.64472623816E+01  0.34206424008E+02  0.35030394694E+02  0.51100000000E-03 0. -1.
        -11    1    3    3    0    0  0.82022546938E+01 -0.18908038925E+00  0.85363041547E+01  0.11839815131E+02  0.51100000000E-03 0.  1.
         12    1    3    3    0    0 -0.13022810110E+01  0.24239774626E+01 -0.24112272642E+01  0.36586362883E+01  0.00000000000E+00 0. -1.
</event>
<event>
 7    1  0.2900470E-011  0.5052887E+02  0.7816164E-02  0.1300439E+00
        -11   -1    0    0    0    0  0.00000000000E+00  0.00000000000E+00  0.45593999997E+02  0.45594000000E+02  0.51100000000E-03 0.  1.
         11   -1    0    0    0    0 -0.00000000000E+00 -0.00000000000E+00 -0.45593999997E+02  0.45594000000E+02  0.51100000000E-03 0. -1.
    9900012    2    1    2    0    0  0.12481273134E+02  0.38059047366E+02  0.69922468011E+01  0.50528870880E+02  0.30000033527E+02 0.  0.
         12    1    1    2    0    0 -0.12481273134E+02 -0.38059047366E+02 -0.69922468011E+01  0.40659129120E+02  0.00000000000E+00 0. -1.
         11    1    3    3    0    0  0.11777497521E+02  0.16738548338E+01  0.28178981589E+01  0.12225047573E+02  0.51100000000E-03 0. -1.
        -11    1    3    3    0    0 -0.18201112745E+01  0.31764022354E+02  0.66208897865E+01  0.32497724582E+02  0.51100000000E-03 0.  1.
         12    1    3    3    0    0  0.25238868871E+01  0.46211701784E+01 -0.24465411442E+01  0.58060987252E+01  0.00000000000E+00 0. -1.
</event>
<event>
 7    1  0.2900470E-011  0.5052886E+02  0.7816164E-02  0.1300439E+00
        -11   -1    0    0    0    0  0.00000000000E+00  0.00000000000E+00  0.45593999997E+02  0.45594000000E+02  0.51100000000E-03 0.  1.
         11   -1    0    0    0    0 -0.00000000000E+00 -0.00000000000E+00 -0.45593999997E+02  0.45594000000E+02  0.51100000000E-03 0. -1.
    9900012    2    1    2    0    0 -0.14671837076E+02  0.11113816806E+02  0.36254461707E+02  0.50528859320E+02  0.29999998388E+02 0.  0.
         12    1    1    2    0    0  0.14671837076E+02 -0.11113816806E+02 -0.36254461707E+02  0.40659140680E+02  0.00000000000E+00 0. -1.
         11    1    3    3    0    0  0.75952726853E+01  0.61240475370E+01  0.16066264786E+02  0.18796728168E+02  0.51100000000E-03 0. -1.
        -11    1    3    3    0    0 -0.11784965204E+02  0.30547810553E+01  0.16388955736E+02  0.20416046692E+02  0.51100000000E-03 0.  1.
         12    1    3    3    0    0 -0.10482144557E+02  0.19349882133E+01  0.37992411853E+01  0.11316084459E+02  0.00000000000E+00 0. -1.
</event>
<event>
 7    1  0.2900470E-011  0.5052886E+02  0.7816164E-02  0.1300439E+00
        -11   -1    0    0    0    0  0.00000000000E+00  0.00000000000E+00  0.45593999997E+02  0.45594000000E+02  0.51100000000E-03 0. -1.
         11   -1    0    0    0    0 -0.00000000000E+00 -0.00000000000E+00 -0.45593999997E+02  0.45594000000E+02  0.51100000000E-03 0.  1.
    9900012    2    1    2    0    0 -0.29882187572E+01 -0.37566752989E+02 -0.15263527365E+02  0.50528860202E+02  0.30000001071E+02 0.  0.
         12    1    1    2    0    0  0.29882187572E+01  0.37566752989E+02  0.15263527365E+02  0.40659139798E+02  0.00000000000E+00 0. -1.
         11    1    3    3    0    0  0.54684166860E+01 -0.29806659760E+01  0.51246091991E+01  0.80653313891E+01  0.51100000000E-03 0. -1.
        -11    1    3    3    0    0 -0.25242133919E+00 -0.13089239522E+02 -0.12605124493E+02  0.18173636718E+02  0.51100000000E-03 0.  1.
         12    1    3    3    0    0 -0.82042141040E+01 -0.21496847491E+02 -0.77830120708E+01  0.24289892095E+02  0.00000000000E+00 0. -1.
</event>
<event>
 7    1  0.2900470E-011  0.5052886E+02  0.7816164E-02  0.1300439E+00
        -11   -1    0    0    0    0  0.00000000000E+00  0.00000000000E+00  0.45593999997E+02  0.45594000000E+02  0.51100000000E-03 0. -1.
         11   -1    0    0    0    0 -0.00000000000E+00 -0.00000000000E+00 -0.45593999997E+02  0.45594000000E+02  0.51100000000E-03 0.  1.
    9900012    2    1    2    0    0  0.16348692631E+02 -0.30000561465E+02 -0.22042059260E+02  0.50528858157E+02  0.29999994854E+02 0.  0.
         12    1    1    2    0    0 -0.16348692631E+02  0.30000561465E+02  0.22042059260E+02  0.40659141843E+02  0.00000000000E+00 0. -1.
         11    1    3    3    0    0  0.18568324438E+02 -0.48355870282E+01 -0.54701166196E+01  0.19952136488E+02  0.51100000000E-03 0. -1.
        -11    1    3    3    0    0 -0.12470204765E+01 -0.13454001256E+02 -0.60543333402E+01  0.14806085314E+02  0.51100000000E-03 0.  1.
         12    1    3    3    0    0 -0.97261133023E+00 -0.11710973181E+02 -0.10517609300E+02  0.15770636355E+02  0.00000000000E+00 0. -1.
</event>
<event>
 7    1  0.2900470E-011  0.5052885E+02  0.7816164E-02  0.1300439E+00
        -11   -1    0    0    0    0  0.00000000000E+00  0.00000000000E+00  0.45593999997E+02  0.45594000000E+02  0.51100000000E-03 0.  1.
         11   -1    0    0    0    0 -0.00000000000E+00 -0.00000000000E+00 -0.45593999997E+02  0.45594000000E+02  0.51100000000E-03 0. -1.
    9900012    2    1    2    0    0 -0.32977067386E+02  0.23783792679E+02 -0.10459748473E+00  0.50528847178E+02  0.29999961483E+02 0.  0.
         12    1    1    2    0    0  0.32977067386E+02 -0.23783792679E+02  0.10459748473E+00  0.40659152822E+02  0.00000000000E+00 0. -1.
         11    1    3    3    0    0 -0.24941934022E+02  0.65504718961E+01  0.94667847338E+01  0.27470507244E+02  0.51100000000E-03 0.  1.
        -11    1    3    3    0    0 -0.82888612476E+01  0.92256932001E+01 -0.83569446236E+01  0.14955171664E+02  0.51100000000E-03 0. -1.
         12    1    3    3    0    0  0.25372788339E+00  0.80076275824E+01 -0.12144375949E+01  0.81031682698E+01  0.00000000000E+00 0. -1.
</event>
<event>
 7    1  0.2900470E-011  0.5052884E+02  0.7816164E-02  0.1300439E+00
        -11   -1    0    0    0    0  0.00000000000E+00  0.00000000000E+00  0.45593999997E+02  0.45594000000E+02  0.51100000000E-03 0. -1.
         11   -1    0    0    0    0 -0.00000000000E+00 -0.00000000000E+00 -0.45593999997E+02  0.45594000000E+02  0.51100000000E-03 0.  1.
    9900012    2    1    2    0    0 -0.23566877565E+02  0.13666721973E+02 -0.30182610276E+02  0.50528843949E+02  0.29999951669E+02 0.  0.
         12    1    1    2    0    0  0.23566877565E+02 -0.13666721973E+02  0.30182610276E+02  0.40659156051E+02  0.00000000000E+00 0. -1.
         11    1    3    3    0    0 -0.10275942792E+02 -0.10496524823E+01 -0.69407677077E+01  0.12444718849E+02  0.51100000000E-03 0. -1.
        -11    1    3    3    0    0 -0.21438597921E+01  0.16748808813E+02 -0.20247375958E+02  0.26364274405E+02  0.51100000000E-03 0.  1.
        -12    1    3    3    0    0 -0.11147074980E+02 -0.20324343578E+01 -0.29944666112E+01  0.11719850695E+02  0.00000000000E+00 0.  1.
</event>
<event>
 7    1  0.2900470E-011  0.5052887E+02  0.7816164E-02  0.1300439E+00
        -11   -1    0    0    0    0  0.00000000000E+00  0.00000000000E+00  0.45593999997E+02  0.45594000000E+02  0.51100000000E-03 0.  1.
         11   -1    0    0    0    0 -0.00000000000E+00 -0.00000000000E+00 -0.45593999997E+02  0.45594000000E+02  0.51100000000E-03 0. -1.
    9900012    2    1    2    0    0 -0.18777549354E+01  0.40590881585E+02  0.14209941994E+01  0.50528869956E+02  0.30000030718E+02 0.  0.
         12    1    1    2    0    0  0.18777549354E+01 -0.40590881585E+02 -0.14209941994E+01  0.40659130044E+02  0.00000000000E+00 0. -1.
         11    1    3    3    0    0  0.84941164884E-01  0.37318458921E+02 -0.65779426868E+01  0.37893850708E+02  0.51100000000E-03 0. -1.
        -11    1    3    3    0    0 -0.40677779738E+00  0.30791265740E+01 -0.11804891495E+01  0.33226560954E+01  0.51100000000E-03 0.  1.
         12    1    3    3    0    0 -0.15559183029E+01  0.19329609018E+00  0.91794260357E+01  0.93123631528E+01  0.00000000000E+00 0. -1.
</event>
<event>
 7    1  0.2900470E-011  0.5052876E+02  0.7816164E-02  0.1300439E+00
        -11   -1    0    0    0    0  0.00000000000E+00  0.00000000000E+00  0.45593999997E+02  0.45594000000E+02  0.51100000000E-03 0.  1.
         11   -1    0    0    0    0 -0.00000000000E+00 -0.00000000000E+00 -0.45593999997E+02  0.45594000000E+02  0.51100000000E-03 0. -1.
    9900012    2    1    2    0    0 -0.24624383938E+02 -0.22446101947E+02  0.23302062992E+02  0.50528758534E+02  0.29999692038E+02 0.  0.
         12    1    1    2    0    0  0.24624383938E+02  0.22446101947E+02 -0.23302062992E+02  0.40659241466E+02  0.00000000000E+00 0. -1.
         11    1    3    3    0    0 -0.98372751283E+01 -0.33404960612E+01  0.22224795943E+01  0.10624044037E+02  0.51100000000E-03 0. -1.
        -11    1    3    3    0    0 -0.83123907781E+01 -0.23567457641E+02  0.11495047441E+02  0.27507399297E+02  0.51100000000E-03 0.  1.
        -12    1    3    3    0    0 -0.64747180314E+01  0.44618517560E+01  0.95845359565E+01  0.12397315201E+02  0.00000000000E+00 0.  1.
</event>
<event>
 7    1  0.2900470E-011  0.5052886E+02  0.7816164E-02  0.1300439E+00
        -11   -1    0    0    0    0  0.00000000000E+00  0.00000000000E+00  0.45593999997E+02  0.45594000000E+02  0.51100000000E-03 0.  1.
         11   -1    0    0    0    0 -0.00000000000E+00 -0.00000000000E+00 -0.45593999997E+02  0.45594000000E+02  0.51100000000E-03 0. -1.
    9900012    2    1    2    0    0  0.27732460279E+02  0.23251197698E+02  0.18532625671E+02  0.50528858816E+02  0.29999996857E+02 0.  0.
         12    1    1    2    0    0 -0.27732460279E+02 -0.23251197698E+02 -0.18532625671E+02  0.40659141184E+02  0.00000000000E+00 0. -1.
         11    1    3    3    0    0  0.74457342679E+01  0.13415936790E+02 -0.10705113688E+01  0.15380907438E+02  0.51100000000E-03 0. -1.
        -11    1    3    3    0    0  0.88153086767E+01  0.22620126484E+01  0.19368511971E+02  0.21400131414E+02  0.51100000000E-03 0.  1.
         12    1    3    3    0    0  0.11471417335E+02  0.75732482592E+01  0.23462506928E+00  0.13747819965E+02  0.00000000000E+00 0. -1.
</event>
<event>
 7    1  0.2900470E-011  0.5052886E+02  0.7816164E-02  0.1300439E+00
        -11   -1    0    0    0    0  0.00000000000E+00  0.00000000000E+00  0.45593999997E+02  0.45594000000E+02  0.51100000000E-03 0.  1.
         11   -1    0    0    0    0 -0.00000000000E+00 -0.00000000000E+00 -0.45593999997E+02  0.45594000000E+02  0.51100000000E-03 0. -1.
    9900012    2    1    2    0    0  0.32787561358E+02 -0.18768669314E+01  0.23971215958E+02  0.50528855840E+02  0.29999987813E+02 0.  0.
         12    1    1    2    0    0 -0.32787561358E+02  0.18768669314E+01 -0.23971215958E+02  0.40659144160E+02  0.00000000000E+00 0. -1.
         11    1    3    3    0    0  0.11949807166E+02 -0.10645901156E+02 -0.45232565682E-01  0.16004222848E+02  0.51100000000E-03 0. -1.
        -11    1    3    3    0    0  0.22211347816E+01 -0.36884853983E-01  0.83730366870E+01  0.86627099590E+01  0.51100000000E-03 0.  1.
         12    1    3    3    0    0  0.18616619411E+02  0.88059190785E+01  0.15643411837E+02  0.25861923034E+02  0.00000000000E+00 0. -1.
</event>
<event>
 7    1  0.2900470E-011  0.5052885E+02  0.7816164E-02  0.1300439E+00
        -11   -1    0    0    0    0  0.00000000000E+00  0.00000000000E+00  0.45593999997E+02  0.45594000000E+02  0.51100000000E-03 0.  1.
         11   -1    0    0    0    0 -0.00000000000E+00 -0.00000000000E+00 -0.45593999997E+02  0.45594000000E+02  0.51100000000E-03 0. -1.
    9900012    2    1    2    0    0  0.14268274006E+02  0.98519047894E+01  0.36776659068E+02  0.50528851912E+02  0.29999975870E+02 0.  0.
         12    1    1    2    0    0 -0.14268274006E+02 -0.98519047894E+01 -0.36776659068E+02  0.40659148088E+02  0.00000000000E+00 0. -1.
         11    1    3    3    0    0 -0.10091841044E+01 -0.50744821681E+01  0.15260470077E+01  0.53942229804E+01  0.51100000000E-03 0. -1.
        -11    1    3    3    0    0  0.19219373717E+02  0.13696924728E+02  0.32531131386E+02  0.40190354348E+02  0.51100000000E-03 0.  1.
        -12    1    3    3    0    0 -0.39419156063E+01  0.12294622292E+01  0.27194806743E+01  0.49442745836E+01  0.00000000000E+00 0.  1.
</event>
<event>
 7    1  0.2900470E-011  0.5052884E+02  0.7816164E-02  0.1300439E+00
        -11   -1    0    0    0    0  0.00000000000E+00  0.00000000000E+00  0.45593999997E+02  0.45594000000E+02  0.51100000000E-03 0. -1.
         11   -1    0    0    0    0 -0.00000000000E+00 -0.00000000000E+00 -0.45593999997E+02  0.45594000000E+02  0.51100000000E-03 0.  1.
    9900012    2    1    2    0    0 -0.20594448857E+02 -0.26773138938E+02 -0.22632614229E+02  0.50528837205E+02  0.29999931169E+02 0.  0.
         12    1    1    2    0    0  0.20594448857E+02  0.26773138938E+02  0.22632614229E+02  0.40659162795E+02  0.00000000000E+00 0. -1.
         11    1    3    3    0    0 -0.47069920434E+01 -0.27890005345E+02 -0.13339149623E+02  0.31272049584E+02  0.51100000000E-03 0. -1.
        -11    1    3    3    0    0 -0.69849076334E+01 -0.21308009232E+01 -0.50177425224E+01  0.88604168922E+01  0.51100000000E-03 0.  1.
         12    1    3    3    0    0 -0.89025491802E+01  0.32476673303E+01 -0.42757220835E+01  0.10396370729E+02  0.00000000000E+00 0. -1.
</event>
<event>
 7    1  0.2900470E-011  0.5052885E+02  0.7816164E-02  0.1300439E+00
        -11   -1    0    0    0    0  0.00000000000E+00  0.00000000000E+00  0.45593999997E+02  0.45594000000E+02  0.51100000000E-03 0.  1.
         11   -1    0    0    0    0 -0.00000000000E+00 -0.00000000000E+00 -0.45593999997E+02  0.45594000000E+02  0.51100000000E-03 0. -1.
    9900012    2    1    2    0    0  0.69338019630E+01  0.15091142405E+02  0.37112611187E+02  0.50528854684E+02  0.29999984297E+02 0.  0.
         12    1    1    2    0    0 -0.69338019630E+01 -0.15091142405E+02 -0.37112611187E+02  0.40659145316E+02  0.00000000000E+00 0. -1.
         11    1    3    3    0    0 -0.83401598136E+00 -0.26677399573E+01 -0.38553512609E+01  0.47619484188E+01  0.51100000000E-03 0. -1.
        -11    1    3    3    0    0 -0.21412265166E+00  0.25443634220E+01  0.10324125111E+02  0.10635186566E+02  0.51100000000E-03 0.  1.
         12    1    3    3    0    0  0.79819405961E+01  0.15214518941E+02  0.30643837337E+02  0.35131719699E+02  0.00000000000E+00 0. -1.
</event>
<event>
 7    1  0.2900470E-011  0.5052888E+02  0.7816164E-02  0.1300439E+00
        -11   -1    0    0    0    0  0.00000000000E+00  0.00000000000E+00  0.45593999997E+02  0.45594000000E+02  0.51100000000E-03 0.  1.
         11   -1    0    0    0    0 -0.00000000000E+00 -0.00000000000E+00 -0.45593999997E+02  0.45594000000E+02  0.51100000000E-03 0. -1.
    9900012    2    1    2    0    0 -0.28457882340E+02  0.30003200250E+01  0.28884447615E+02  0.50528876774E+02  0.30000051442E+02 0.  0.
         12    1    1    2    0    0  0.28457882340E+02 -0.30003200250E+01 -0.28884447615E+02  0.40659123226E+02  0.00000000000E+00 0. -1.
         11    1    3    3    0    0  0.65614634968E+00 -0.15986136733E+01 -0.14453830288E+01  0.22528262404E+01  0.51100000000E-03 0. -1.
        -11    1    3    3    0    0 -0.77899810620E+01  0.10084115121E+02  0.20557899798E+02  0.24186782074E+02  0.51100000000E-03 0.  1.
        -12    1    3    3    0    0 -0.21324047628E+02 -0.54851814230E+01  0.97719308450E+01  0.24089268459E+02  0.00000000000E+00 0.  1.
</event>
<event>
 7    1  0.2900470E-011  0.5052888E+02  0.7816164E-02  0.1300439E+00
        -11   -1    0    0    0    0  0.00000000000E+00  0.00000000000E+00  0.45593999997E+02  0.45594000000E+02  0.51100000000E-03 0. -1.
         11   -1    0    0    0    0 -0.00000000000E+00 -0.00000000000E+00 -0.45593999997E+02  0.45594000000E+02  0.51100000000E-03 0.  1.
    9900012    2    1    2    0    0  0.14395123072E+02 -0.37877715691E+02  0.33500741512E+01  0.50528881576E+02  0.30000066037E+02 0.  0.
         12    1    1    2    0    0 -0.14395123072E+02  0.37877715691E+02 -0.33500741512E+01  0.40659118424E+02  0.00000000000E+00 0. -1.
         11    1    3    3    0    0  0.17613427700E+02 -0.17083797952E+02  0.53389587468E+01  0.25111620190E+02  0.51100000000E-03 0. -1.
        -11    1    3    3    0    0 -0.20858527204E+01 -0.15114648277E+02 -0.78661814270E+01  0.17166251327E+02  0.51100000000E-03 0.  1.
         12    1    3    3    0    0 -0.11324519079E+01 -0.56792694613E+01  0.58772968314E+01  0.82510100583E+01  0.00000000000E+00 0. -1.
</event>
<event>
 7    1  0.2900470E-011  0.5052886E+02  0.7816164E-02  0.1300439E+00
        -11   -1    0    0    0    0  0.00000000000E+00  0.00000000000E+00  0.45593999997E+02  0.45594000000E+02  0.51100000000E-03 0.  1.
         11   -1    0    0    0    0 -0.00000000000E+00 -0.00000000000E+00 -0.45593999997E+02  0.45594000000E+02  0.51100000000E-03 0. -1.
    9900012    2    1    2    0    0  0.81690829708E+01  0.17408272076E+02  0.35824351810E+02  0.50528855446E+02  0.29999986613E+02 0.  0.
         12    1    1    2    0    0 -0.81690829708E+01 -0.17408272076E+02 -0.35824351810E+02  0.40659144554E+02  0.00000000000E+00 0. -1.
         11    1    3    3    0    0  0.73708048761E+01  0.12747359186E+02  0.38608066078E+01  0.15222672520E+02  0.51100000000E-03 0. -1.
        -11    1    3    3    0    0 -0.48439028406E+01  0.82096897704E+00  0.34907123026E+01  0.60268115476E+01  0.51100000000E-03 0.  1.
         12    1    3    3    0    0  0.56421809352E+01  0.38399439135E+01  0.28472832900E+02  0.29279371378E+02  0.00000000000E+00 0. -1.
</event>
<event>
 7    1  0.2900470E-011  0.5052889E+02  0.7816164E-02  0.1300439E+00
        -11   -1    0    0    0    0  0.00000000000E+00  0.00000000000E+00  0.45593999997E+02  0.45594000000E+02  0.51100000000E-03 0. -1.
         11   -1    0    0    0    0 -0.00000000000E+00 -0.00000000000E+00 -0.45593999997E+02  0.45594000000E+02  0.51100000000E-03 0.  1.
    9900012    2    1    2    0    0 -0.29080442741E+02 -0.15703778090E+02  0.23682956066E+02  0.50528890266E+02  0.30000092452E+02 0.  0.
         12    1    1    2    0    0  0.29080442741E+02  0.15703778090E+02 -0.23682956066E+02  0.40659109734E+02  0.00000000000E+00 0. -1.
         11    1    3    3    0    0 -0.51239802339E+01  0.67403870377E+01  0.10474195976E+02  0.13468361907E+02  0.51100000000E-03 0. -1.
        -11    1    3    3    0    0 -0.24323639747E+01  0.11434332436E+01  0.12255278528E+01  0.29539385347E+01  0.51100000000E-03 0.  1.
         12    1    3    3    0    0 -0.21524098533E+02 -0.23587598371E+02  0.11983232237E+02  0.34106589824E+02  0.00000000000E+00 0. -1.
</event>
<event>
 7    1  0.2900470E-011  0.5052886E+02  0.7816164E-02  0.1300439E+00
        -11   -1    0    0    0    0  0.00000000000E+00  0.00000000000E+00  0.45593999997E+02  0.45594000000E+02  0.51100000000E-03 0.  1.
         11   -1    0    0    0    0 -0.00000000000E+00 -0.00000000000E+00 -0.45593999997E+02  0.45594000000E+02  0.51100000000E-03 0. -1.
    9900012    2    1    2    0    0  0.47248572340E-01  0.25405576901E+02  0.31744603319E+02  0.50528863143E+02  0.30000010008E+02 0.  0.
         12    1    1    2    0    0 -0.47248572340E-01 -0.25405576901E+02 -0.31744603319E+02  0.40659136857E+02  0.00000000000E+00 0. -1.
         11    1    3    3    0    0  0.23311920819E+01 -0.10842733206E+01  0.40192883117E+00  0.26022398435E+01  0.51100000000E-03 0. -1.
        -11    1    3    3    0    0 -0.12854211249E+01  0.29587360143E+02  0.32944727503E+02  0.44299201553E+02  0.51100000000E-03 0.  1.
        -12    1    3    3    0    0 -0.99852238469E+00 -0.30975099209E+01 -0.16020530152E+01  0.36274217464E+01  0.00000000000E+00 0.  1.
</event>
<event>
 7    1  0.2900470E-011  0.5052886E+02  0.7816164E-02  0.1300439E+00
        -11   -1    0    0    0    0  0.00000000000E+00  0.00000000000E+00  0.45593999997E+02  0.45594000000E+02  0.51100000000E-03 0.  1.
         11   -1    0    0    0    0 -0.00000000000E+00 -0.00000000000E+00 -0.45593999997E+02  0.45594000000E+02  0.51100000000E-03 0. -1.
    9900012    2    1    2    0    0  0.63153911228E+01 -0.37128435817E+02  0.15321905382E+02  0.50528859628E+02  0.29999999326E+02 0.  0.
         12    1    1    2    0    0 -0.63153911228E+01  0.37128435817E+02 -0.15321905382E+02  0.40659140372E+02  0.00000000000E+00 0. -1.
         11    1    3    3    0    0  0.10397319890E+02 -0.16015650925E+02  0.16798078757E+02  0.25431885216E+02  0.51100000000E-03 0. -1.
        -11    1    3    3    0    0 -0.73851129696E+00 -0.21119606177E+02 -0.31364714817E+01  0.21364002846E+02  0.51100000000E-03 0.  1.
         12    1    3    3    0    0 -0.33434174698E+01  0.68212854044E-02  0.16602981065E+01  0.37329715656E+01  0.00000000000E+00 0. -1.
</event>
<event>
 7    1  0.2900470E-011  0.5052886E+02  0.7816164E-02  0.1300439E+00
        -11   -1    0    0    0    0  0.00000000000E+00  0.00000000000E+00  0.45593999997E+02  0.45594000000E+02  0.51100000000E-03 0.  1.
         11   -1    0    0    0    0 -0.00000000000E+00 -0.00000000000E+00 -0.45593999997E+02  0.45594000000E+02  0.51100000000E-03 0. -1.
    9900012    2    1    2    0    0 -0.88237767198E+01  0.29199920780E+02  0.26882549597E+02  0.50528857338E+02  0.29999992363E+02 0.  0.
         12    1    1    2    0    0  0.88237767198E+01 -0.29199920780E+02 -0.26882549597E+02  0.40659142662E+02  0.00000000000E+00 0. -1.
         11    1    3    3    0    0  0.36464033557E+01  0.10659103320E+01 -0.27160886692E+01  0.46700706835E+01  0.51100000000E-03 0. -1.
        -11    1    3    3    0    0 -0.50290922846E+01  0.21523418144E+02  0.10829003387E+02  0.24613342163E+02  0.51100000000E-03 0.  1.
         12    1    3    3    0    0 -0.74410877909E+01  0.66105923047E+01  0.18769634879E+02  0.21245444491E+02  0.00000000000E+00 0. -1.
</event>
<event>
 7    1  0.2900470E-011  0.5052886E+02  0.7816164E-02  0.1300439E+00
        -11   -1    0    0    0    0  0.00000000000E+00  0.00000000000E+00  0.45593999997E+02  0.45594000000E+02  0.51100000000E-03 0.  1.
         11   -1    0    0    0    0 -0.00000000000E+00 -0.00000000000E+00 -0.45593999997E+02  0.45594000000E+02  0.51100000000E-03 0. -1.
    9900012    2    1    2    0    0 -0.25034133201E+02 -0.19046488694E+02  0.25762169704E+02  0.50528856569E+02  0.29999990027E+02 0.  0.
         12    1    1    2    0    0  0.25034133201E+02  0.19046488694E+02 -0.25762169704E+02  0.40659143431E+02  0.00000000000E+00 0. -1.
         11    1    3    3    0    0 -0.23219679960E+02 -0.20246385859E+02  0.13287797298E+02  0.33550487852E+02  0.51100000000E-03 0. -1.
        -11    1    3    3    0    0 -0.60313983360E+00 -0.39162844740E+01  0.10731056014E+02  0.11439258069E+02  0.51100000000E-03 0.  1.
         12    1    3    3    0    0 -0.12113134072E+01  0.51161816388E+01  0.17433163926E+01  0.55391106485E+01  0.00000000000E+00 0. -1.
</event>
<event>
 7    1  0.2900470E-011  0.5052891E+02  0.7816164E-02  0.1300439E+00
        -11   -1    0    0    0    0  0.00000000000E+00  0.00000000000E+00  0.45593999997E+02  0.45594000000E+02  0.51100000000E-03 0. -1.
         11   -1    0    0    0    0 -0.00000000000E+00 -0.00000000000E+00 -0.45593999997E+02  0.45594000000E+02  0.51100000000E-03 0.  1.
    9900012    2    1    2    0    0 -0.24322993511E+01 -0.40567105895E+02 -0.12472849201E+01  0.50528906546E+02  0.30000141936E+02 0.  0.
         12    1    1    2    0    0  0.24322993511E+01  0.40567105895E+02  0.12472849201E+01  0.40659093454E+02  0.00000000000E+00 0. -1.
         11    1    3    3    0    0 -0.54066621698E+00  0.30373924154E+01  0.51078728229E+01  0.59672805933E+01  0.51100000000E-03 0. -1.
        -11    1    3    3    0    0  0.85082598014E+00 -0.25290300534E+02 -0.61538378479E+01  0.26042137517E+02  0.51100000000E-03 0.  1.
         12    1    3    3    0    0 -0.27424591143E+01 -0.18314197777E+02 -0.20131989499E+00  0.18519488435E+02  0.00000000000E+00 0. -1.
</event>
<event>
 7    1  0.2900470E-011  0.5052885E+02  0.7816164E-02  0.1300439E+00
        -11   -1    0    0    0    0  0.00000000000E+00  0.00000000000E+00  0.45593999997E+02  0.45594000000E+02  0.51100000000E-03 0.  1.
         11   -1    0    0    0    0 -0.00000000000E+00 -0.00000000000E+00 -0.45593999997E+02  0.45594000000E+02  0.51100000000E-03 0. -1.
    9900012    2    1    2    0    0 -0.11055959196E+02  0.16558138583E+01  0.39092081730E+02  0.50528845960E+02  0.29999957779E+02 0.  0.
         12    1    1    2    0    0  0.11055959196E+02 -0.16558138583E+01 -0.39092081730E+02  0.40659154040E+02  0.00000000000E+00 0. -1.
         11    1    3    3    0    0 -0.81648193781E+01 -0.48113823055E+01  0.34054604151E+00  0.94831243288E+01  0.51100000000E-03 0. -1.
        -11    1    3    3    0    0 -0.15750443290E+01  0.11619497914E+01  0.33190296195E+02  0.33247957136E+02  0.51100000000E-03 0.  1.
        -12    1    3    3    0    0 -0.13160954885E+01  0.53052463724E+01  0.55612394941E+01  0.77977644949E+01  0.00000000000E+00 0.  1.
</event>
<event>
 7    1  0.2900470E-011  0.5052885E+02  0.7816164E-02  0.1300439E+00
        -11   -1    0    0    0    0  0.00000000000E+00  0.00000000000E+00  0.45593999997E+02  0.45594000000E+02  0.51100000000E-03 0.  1.
         11   -1    0    0    0    0 -0.00000000000E+00 -0.00000000000E+00 -0.45593999997E+02  0.45594000000E+02  0.51100000000E-03 0. -1.
    9900012    2    1    2    0    0 -0.97472833366E+01 -0.11477036889E+02  0.37768166120E+02  0.50528852441E+02  0.29999977479E+02 0.  0.
         12    1    1    2    0    0  0.97472833366E+01  0.11477036889E+02 -0.37768166120E+02  0.40659147559E+02  0.00000000000E+00 0. -1.
         11    1    3    3    0    0 -0.15415705940E+02 -0.58516732347E+01  0.10181223004E+02  0.19378941441E+02  0.51100000000E-03 0. -1.
        -11    1    3    3    0    0  0.73531102608E+01 -0.65573704772E+01  0.12381439560E+02  0.15823001735E+02  0.51100000000E-03 0.  1.
         12    1    3    3    0    0 -0.16846876579E+01  0.93200682270E+00  0.15205503556E+02  0.15326909265E+02  0.00000000000E+00 0. -1.
</event>
<event>
 7    1  0.2900470E-011  0.5052885E+02  0.7816164E-02  0.1300439E+00
        -11   -1    0    0    0    0  0.00000000000E+00  0.00000000000E+00  0.45593999997E+02  0.45594000000E+02  0.51100000000E-03 0.  1.
         11   -1    0    0    0    0 -0.00000000000E+00 -0.00000000000E+00 -0.45593999997E+02  0.45594000000E+02  0.51100000000E-03 0. -1.
    9900012    2    1    2    0    0 -0.27396523220E+02  0.21793382769E+02  0.20679586489E+02  0.50528852020E+02  0.29999976201E+02 0.  0.
         12    1    1    2    0    0  0.27396523220E+02 -0.21793382769E+02 -0.20679586489E+02  0.40659147980E+02  0.00000000000E+00 0. -1.
         11    1    3    3    0    0 -0.79904863438E+01 -0.50085021156E+01  0.47622478066E+00  0.94424443740E+01  0.51100000000E-03 0. -1.
        -11    1    3    3    0    0 -0.19164201220E+02  0.24578925861E+02  0.13401184143E+02  0.33926124765E+02  0.51100000000E-03 0.  1.
         12    1    3    3    0    0 -0.24183565601E+00  0.22229590237E+01  0.68021775657E+01  0.71602828814E+01  0.00000000000E+00 0. -1.
</event>
<event>
 7    1  0.2900470E-011  0.5052887E+02  0.7816164E-02  0.1300439E+00
        -11   -1    0    0    0    0  0.00000000000E+00  0.00000000000E+00  0.45593999997E+02  0.45594000000E+02  0.51100000000E-03 0. -1.
         11   -1    0    0    0    0 -0.00000000000E+00 -0.00000000000E+00 -0.45593999997E+02  0.45594000000E+02  0.51100000000E-03 0.  1.
    9900012    2    1    2    0    0  0.22131680488E+02 -0.33394087728E+02  0.69418014468E+01  0.50528868384E+02  0.30000025941E+02 0.  0.
         12    1    1    2    0    0 -0.22131680488E+02  0.33394087728E+02 -0.69418014468E+01  0.40659131616E+02  0.00000000000E+00 0. -1.
         11    1    3    3    0    0 -0.39012310015E+01  0.41963432490E+00  0.12914042151E+01  0.41307894405E+01  0.51100000000E-03 0. -1.
        -11    1    3    3    0    0  0.21877682258E+02 -0.28697676557E+02 -0.21938504778E+01  0.36152490936E+02  0.51100000000E-03 0.  1.
         12    1    3    3    0    0  0.41552292316E+01 -0.51160454965E+01  0.78442477095E+01  0.10245588007E+02  0.00000000000E+00 0. -1.
</event>
<event>
 7    1  0.2900470E-011  0.5052885E+02  0.7816164E-02  0.1300439E+00
        -11   -1    0    0    0    0  0.00000000000E+00  0.00000000000E+00  0.45593999997E+02  0.45594000000E+02  0.51100000000E-03 0.  1.
         11   -1    0    0    0    0 -0.00000000000E+00 -0.00000000000E+00 -0.45593999997E+02  0.45594000000E+02  0.51100000000E-03 0. -1.
    9900012    2    1    2    0    0 -0.30188802265E+02 -0.25630271969E+02 -0.92136949859E+01  0.50528846065E+02  0.29999958098E+02 0.  0.
         12    1    1    2    0    0  0.30188802265E+02  0.25630271969E+02  0.92136949859E+01  0.40659153935E+02  0.00000000000E+00 0. -1.
         11    1    3    3    0    0 -0.25722894064E+02 -0.15002669196E+02 -0.27202091632E+01  0.29902289213E+02  0.51100000000E-03 0. -1.
        -11    1    3    3    0    0 -0.66510353318E+01 -0.67911509618E+01 -0.10849327179E+02  0.14424420365E+02  0.51100000000E-03 0.  1.
         12    1    3    3    0    0  0.21851271301E+01 -0.38364518117E+01  0.43558413563E+01  0.62021364867E+01  0.00000000000E+00 0. -1.
</event>
<event>
 7    1  0.2900470E-011  0.5052887E+02  0.7816164E-02  0.1300439E+00
        -11   -1    0    0    0    0  0.00000000000E+00  0.00000000000E+00  0.45593999997E+02  0.45594000000E+02  0.51100000000E-03 0. -1.
         11   -1    0    0    0    0 -0.00000000000E+00 -0.00000000000E+00 -0.45593999997E+02  0.45594000000E+02  0.51100000000E-03 0.  1.
    9900012    2    1    2    0    0 -0.92674385931E+01  0.63855561115E+01 -0.39070502431E+02  0.50528869351E+02  0.30000028880E+02 0.  0.
         12    1    1    2    0    0  0.92674385931E+01 -0.63855561115E+01  0.39070502431E+02  0.40659130649E+02  0.00000000000E+00 0. -1.
         11    1    3    3    0    0 -0.59208877704E+01 -0.58731910927E+01 -0.16514594948E+02  0.18500895442E+02  0.51100000000E-03 0.  1.
        -11    1    3    3    0    0  0.26803682370E+01  0.76910720350E+01 -0.23052924255E+02  0.24449422895E+02  0.51100000000E-03 0. -1.
        -12    1    3    3    0    0 -0.60269190597E+01  0.45676751692E+01  0.49701677218E+00  0.75785510142E+01  0.00000000000E+00 0.  1.
</event>
<event>
 7    1  0.2900470E-011  0.5052886E+02  0.7816164E-02  0.1300439E+00
        -11   -1    0    0    0    0  0.00000000000E+00  0.00000000000E+00  0.45593999997E+02  0.45594000000E+02  0.51100000000E-03 0. -1.
         11   -1    0    0    0    0 -0.00000000000E+00 -0.00000000000E+00 -0.45593999997E+02  0.45594000000E+02  0.51100000000E-03 0.  1.
    9900012    2    1    2    0    0  0.52038998161E+01  0.37657440669E+02 -0.14422294927E+02  0.50528855863E+02  0.29999987881E+02 0.  0.
         12    1    1    2    0    0 -0.52038998161E+01 -0.37657440669E+02  0.14422294927E+02  0.40659144137E+02  0.00000000000E+00 0. -1.
         11    1    3    3    0    0 -0.51802538027E+00 -0.17478360117E+01  0.13404517036E+01  0.22627620399E+01  0.51100000000E-03 0. -1.
        -11    1    3    3    0    0  0.35661261713E+01  0.31235522723E+02 -0.21469662074E+02  0.38069955680E+02  0.51100000000E-03 0.  1.
        -12    1    3    3    0    0  0.21557990251E+01  0.81697539571E+01  0.57069154429E+01  0.10196138143E+02  0.00000000000E+00 0.  1.
</event>
<event>
 7    1  0.2900470E-011  0.5052885E+02  0.7816164E-02  0.1300439E+00
        -11   -1    0    0    0    0  0.00000000000E+00  0.00000000000E+00  0.45593999997E+02  0.45594000000E+02  0.51100000000E-03 0.  1.
         11   -1    0    0    0    0 -0.00000000000E+00 -0.00000000000E+00 -0.45593999997E+02  0.45594000000E+02  0.51100000000E-03 0. -1.
    9900012    2    1    2    0    0 -0.25915794748E+01 -0.54439457484E+01  0.40209621941E+02  0.50528849417E+02  0.29999968287E+02 0.  0.
         12    1    1    2    0    0  0.25915794748E+01  0.54439457484E+01 -0.40209621941E+02  0.40659150583E+02  0.00000000000E+00 0. -1.
         11    1    3    3    0    0  0.86355618548E+01  0.59731442932E+01  0.73407926094E+01  0.12811659443E+02  0.51100000000E-03 0. -1.
        -11    1    3    3    0    0 -0.15128671855E+01 -0.29077757426E+01  0.16726982877E+02  0.17045113180E+02  0.51100000000E-03 0.  1.
         12    1    3    3    0    0 -0.97142741442E+01 -0.85093142990E+01  0.16141846455E+02  0.20672076794E+02  0.00000000000E+00 0. -1.
</event>
<event>
 7    1  0.2900470E-011  0.5052886E+02  0.7816164E-02  0.1300439E+00
        -11   -1    0    0    0    0  0.00000000000E+00  0.00000000000E+00  0.45593999997E+02  0.45594000000E+02  0.51100000000E-03 0. -1.
         11   -1    0    0    0    0 -0.00000000000E+00 -0.00000000000E+00 -0.45593999997E+02  0.45594000000E+02  0.51100000000E-03 0.  1.
    9900012    2    1    2    0    0  0.85428792233E+01  0.14339853061E+02 -0.37074968499E+02  0.50528862523E+02  0.30000008124E+02 0.  0.
         12    1    1    2    0    0 -0.85428792233E+01 -0.14339853061E+02  0.37074968499E+02  0.40659137477E+02  0.00000000000E+00 0. -1.
         11    1    3    3    0    0  0.74548177353E+01  0.35214805886E+01 -0.35595418281E+01  0.89802823613E+01  0.51100000000E-03 0. -1.
        -11    1    3    3    0    0 -0.18203144003E+01 -0.60244377879E+01 -0.15431582562E+02  0.16665567371E+02  0.51100000000E-03 0.  1.
        -12    1    3    3    0    0  0.29083758883E+01  0.16842810260E+02 -0.18083844109E+02  0.24883012790E+02  0.00000000000E+00 0.  1.
</event>
<event>
 7    1  0.2900470E-011  0.5052885E+02  0.7816164E-02  0.1300439E+00
        -11   -1    0    0    0    0  0.00000000000E+00  0.00000000000E+00  0.45593999997E+02  0.45594000000E+02  0.51100000000E-03 0.  1.
         11   -1    0    0    0    0 -0.00000000000E+00 -0.00000000000E+00 -0.45593999997E+02  0.45594000000E+02  0.51100000000E-03 0. -1.
    9900012    2    1    2    0    0 -0.76881000014E+01 -0.12573616618E+01  0.39905872085E+02  0.50528850146E+02  0.29999970502E+02 0.  0.
         12    1    1    2    0    0  0.76881000014E+01  0.12573616618E+01 -0.39905872085E+02  0.40659149854E+02  0.00000000000E+00 0. -1.
         11    1    3    3    0    0 -0.22009764915E+01 -0.32794093366E+01 -0.70326306557E+00  0.40116582998E+01  0.51100000000E-03 0. -1.
        -11    1    3    3    0    0 -0.81298143173E+00  0.16849538209E+01  0.41670292814E+02  0.41712268119E+02  0.51100000000E-03 0.  1.
        -12    1    3    3    0    0 -0.46741420782E+01  0.33709385390E+00 -0.10611576629E+01  0.48049237266E+01  0.00000000000E+00 0.  1.
</event>
<event>
 7    1  0.2900470E-011  0.5052886E+02  0.7816164E-02  0.1300439E+00
        -11   -1    0    0    0    0  0.00000000000E+00  0.00000000000E+00  0.45593999997E+02  0.45594000000E+02  0.51100000000E-03 0.  1.
         11   -1    0    0    0    0 -0.00000000000E+00 -0.00000000000E+00 -0.45593999997E+02  0.45594000000E+02  0.51100000000E-03 0. -1.
    9900012    2    1    2    0    0  0.15830955022E+02  0.27484884613E+02 -0.25438699686E+02  0.50528862518E+02  0.30000008108E+02 0.  0.
         12    1    1    2    0    0 -0.15830955022E+02 -0.27484884613E+02  0.25438699686E+02  0.40659137482E+02  0.00000000000E+00 0. -1.
         11    1    3    3    0    0 -0.49626089321E+01 -0.30014529830E+01 -0.23408018695E+01  0.62542434455E+01  0.51100000000E-03 0. -1.
        -11    1    3    3    0    0  0.11284970815E+02  0.99065930125E+01 -0.10671606110E+02  0.18422115205E+02  0.51100000000E-03 0.  1.
         12    1    3    3    0    0  0.95085931394E+01  0.20579744584E+02 -0.12426291706E+02  0.25852503867E+02  0.00000000000E+00 0. -1.
</event>
<event>
 7    1  0.2900470E-011  0.5052888E+02  0.7816164E-02  0.1300439E+00
        -11   -1    0    0    0    0  0.00000000000E+00  0.00000000000E+00  0.45593999997E+02  0.45594000000E+02  0.51100000000E-03 0.  1.
         11   -1    0    0    0    0 -0.00000000000E+00 -0.00000000000E+00 -0.45593999997E+02  0.45594000000E+02  0.51100000000E-03 0. -1.
    9900012    2    1    2    0    0  0.21640116888E+02 -0.25110380727E+02 -0.23544394887E+02  0.50528875443E+02  0.30000047396E+02 0.  0.
         12    1    1    2    0    0 -0.21640116888E+02  0.25110380727E+02  0.23544394887E+02  0.40659124557E+02  0.00000000000E+00 0. -1.
         11    1    3    3    0    0  0.85147501422E+01  0.48174667566E+01 -0.80753783769E+01  0.12685451987E+02  0.51100000000E-03 0. -1.
        -11    1    3    3    0    0  0.32929257224E+01 -0.20463905273E+02 -0.11110778856E+02  0.23517316724E+02  0.51100000000E-03 0.  1.
        -12    1    3    3    0    0  0.98324410231E+01 -0.94639422103E+01 -0.43582376542E+01  0.14326106732E+02  0.00000000000E+00 0.  1.
</event>
<event>
 7    1  0.2900470E-011  0.5052887E+02  0.7816164E-02  0.1300439E+00
        -11   -1    0    0    0    0  0.00000000000E+00  0.00000000000E+00  0.45593999997E+02  0.45594000000E+02  0.51100000000E-03 0. -1.
         11   -1    0    0    0    0 -0.00000000000E+00 -0.00000000000E+00 -0.45593999997E+02  0.45594000000E+02  0.51100000000E-03 0.  1.
    9900012    2    1    2    0    0  0.22650916554E+02 -0.33440647740E+02 -0.46716158570E+01  0.50528868962E+02  0.30000027698E+02 0.  0.
         12    1    1    2    0    0 -0.22650916554E+02  0.33440647740E+02  0.46716158570E+01  0.40659131038E+02  0.00000000000E+00 0. -1.
         11    1    3    3    0    0  0.13431477310E+02 -0.69010941969E+01 -0.60578868826E+01  0.16270454129E+02  0.51100000000E-03 0. -1.
        -11    1    3    3    0    0  0.40064648547E+00 -0.22008247650E+02 -0.48573747285E+01  0.22541463389E+02  0.51100000000E-03 0.  1.
        -12    1    3    3    0    0  0.88187927592E+01 -0.45313058936E+01  0.62436457541E+01  0.11716951444E+02  0.00000000000E+00 0.  1.
</event>
<event>
 7    1  0.2900470E-011  0.5052886E+02  0.7816164E-02  0.1300439E+00
        -11   -1    0    0    0    0  0.00000000000E+00  0.00000000000E+00  0.45593999997E+02  0.45594000000E+02  0.51100000000E-03 0.  1.
         11   -1    0    0    0    0 -0.00000000000E+00 -0.00000000000E+00 -0.45593999997E+02  0.45594000000E+02  0.51100000000E-03 0. -1.
    9900012    2    1    2    0    0 -0.39403415608E+02 -0.14763144936E+01 -0.99175014417E+01  0.50528862025E+02  0.30000006611E+02 0.  0.
         12    1    1    2    0    0  0.39403415608E+02  0.14763144936E+01  0.99175014417E+01  0.40659137975E+02  0.00000000000E+00 0. -1.
         11    1    3    3    0    0 -0.29504596335E+02  0.52848425364E+01  0.21902725489E+01  0.30054085573E+02  0.51100000000E-03 0.  1.
        -11    1    3    3    0    0 -0.85686469866E+01 -0.85452473084E+01 -0.51177158735E+01  0.13139025031E+02  0.51100000000E-03 0. -1.
         12    1    3    3    0    0 -0.13301722861E+01  0.17840902784E+01 -0.69900581171E+01  0.73357514211E+01  0.00000000000E+00 0. -1.
</event>
<event>
 7    1  0.2900470E-011  0.5052887E+02  0.7816164E-02  0.1300439E+00
        -11   -1    0    0    0    0  0.00000000000E+00  0.00000000000E+00  0.45593999997E+02  0.45594000000E+02  0.51100000000E-03 0. -1.
         11   -1    0    0    0    0 -0.00000000000E+00 -0.00000000000E+00 -0.45593999997E+02  0.45594000000E+02  0.51100000000E-03 0.  1.
    9900012    2    1    2    0    0 -0.19239302047E+02  0.27055625242E+02 -0.23473535631E+02  0.50528874634E+02  0.30000044937E+02 0.  0.
         12    1    1    2    0    0  0.19239302047E+02 -0.27055625242E+02  0.23473535631E+02  0.40659125366E+02  0.00000000000E+00 0. -1.
         11    1    3    3    0    0 -0.10981880315E+02  0.28526463941E+02 -0.98854764888E+01  0.32126056183E+02  0.51100000000E-03 0. -1.
        -11    1    3    3    0    0 -0.22641045041E+00 -0.26364861528E+01 -0.83467544417E-01  0.26475059996E+01  0.51100000000E-03 0.  1.
         12    1    3    3    0    0 -0.80310112825E+01  0.11656474543E+01 -0.13504591598E+02  0.15755312451E+02  0.00000000000E+00 0. -1.
</event>
<event>
 7    1  0.2900470E-011  0.5052883E+02  0.7816164E-02  0.1300439E+00
        -11   -1    0    0    0    0  0.00000000000E+00  0.00000000000E+00  0.45593999997E+02  0.45594000000E+02  0.51100000000E-03 0. -1.
         11   -1    0    0    0    0 -0.00000000000E+00 -0.00000000000E+00 -0.45593999997E+02  0.45594000000E+02  0.51100000000E-03 0.  1.
    9900012    2    1    2    0    0 -0.11315280597E+02  0.20497073611E+02 -0.33241571844E+02  0.50528834978E+02  0.29999924399E+02 0.  0.
         12    1    1    2    0    0  0.11315280597E+02 -0.20497073611E+02  0.33241571844E+02  0.40659165022E+02  0.00000000000E+00 0. -1.
         11    1    3    3    0    0 -0.46586233076E+01 -0.38316516775E+01  0.84160041880E+00  0.60903708611E+01  0.51100000000E-03 0. -1.
        -11    1    3    3    0    0  0.27662088834E+01  0.14898994312E+02 -0.17100288154E+02  0.22848452864E+02  0.51100000000E-03 0.  1.
        -12    1    3    3    0    0 -0.94228661732E+01  0.94297309764E+01 -0.16982884110E+02  0.21590011252E+02  0.00000000000E+00 0.  1.
</event>
<event>
 7    1  0.2900470E-011  0.5052886E+02  0.7816164E-02  0.1300439E+00
        -11   -1    0    0    0    0  0.00000000000E+00  0.00000000000E+00  0.45593999997E+02  0.45594000000E+02  0.51100000000E-03 0.  1.
         11   -1    0    0    0    0 -0.00000000000E+00 -0.00000000000E+00 -0.45593999997E+02  0.45594000000E+02  0.51100000000E-03 0. -1.
    9900012    2    1    2    0    0 -0.30476603983E+02 -0.17660131029E+02  0.20309168053E+02  0.50528856805E+02  0.29999990746E+02 0.  0.
         12    1    1    2    0    0  0.30476603983E+02  0.17660131029E+02 -0.20309168053E+02  0.40659143195E+02  0.00000000000E+00 0. -1.
         11    1    3    3    0    0  0.19160609155E+01 -0.55271385849E+01 -0.43517650602E+00  0.58659977174E+01  0.51100000000E-03 0. -1.
        -11    1    3    3    0    0 -0.18253676136E+02  0.33661967717E+01  0.10291010384E+02  0.21223403784E+02  0.51100000000E-03 0.  1.
        -12    1    3    3    0    0 -0.14138988763E+02 -0.15499189216E+02  0.10453334174E+02  0.23439455304E+02  0.00000000000E+00 0.  1.
</event>
<event>
 7    1  0.2978426E-011  0.5052885E+02  0.7816164E-02  0.1300439E+00
        -11   -1    0    0    0    0  0.00000000000E+00  0.00000000000E+00  0.45593999997E+02  0.45594000000E+02  0.51100000000E-03 0.  1.
         11   -1    0    0    0    0 -0.00000000000E+00 -0.00000000000E+00 -0.45593999997E+02  0.45594000000E+02  0.51100000000E-03 0. -1.
    9900012    2    1    2    0    0  0.60475429342E+01  0.36497612550E+02  0.16867653110E+02  0.50528853196E+02  0.29999979776E+02 0.  0.
         12    1    1    2    0    0 -0.60475429342E+01 -0.36497612550E+02 -0.16867653110E+02  0.40659146804E+02  0.00000000000E+00 0. -1.
         11    1    3    3    0    0  0.46778027365E+01  0.63507028055E+01 -0.69278334496E+01  0.10498006531E+02  0.51100000000E-03 0. -1.
        -11    1    3    3    0    0  0.13300767138E+01  0.24116750711E+02  0.12428821615E+02  0.27163622290E+02  0.51100000000E-03 0.  1.
         12    1    3    3    0    0  0.39663483957E-01  0.60301590327E+01  0.11366664944E+02  0.12867224375E+02  0.00000000000E+00 0. -1.
</event>
<event>
 7    1  0.2900470E-011  0.5052887E+02  0.7816164E-02  0.1300439E+00
        -11   -1    0    0    0    0  0.00000000000E+00  0.00000000000E+00  0.45593999997E+02  0.45594000000E+02  0.51100000000E-03 0.  1.
         11   -1    0    0    0    0 -0.00000000000E+00 -0.00000000000E+00 -0.45593999997E+02  0.45594000000E+02  0.51100000000E-03 0. -1.
    9900012    2    1    2    0    0  0.10196638432E+02 -0.29270451502E+02  0.26314146644E+02  0.50528867200E+02  0.30000022341E+02 0.  0.
         12    1    1    2    0    0 -0.10196638432E+02  0.29270451502E+02 -0.26314146644E+02  0.40659132800E+02  0.00000000000E+00 0. -1.
         11    1    3    3    0    0  0.63292491897E+01  0.19814316846E+01  0.12569515401E+02  0.14211902916E+02  0.51100000000E-03 0.  1.
        -11    1    3    3    0    0  0.15487847057E+01 -0.31189584807E+02  0.13360017553E+02  0.33965850552E+02  0.51100000000E-03 0. -1.
         12    1    3    3    0    0  0.23186045370E+01 -0.62298379679E-01  0.38461369114E+00  0.23511137315E+01  0.00000000000E+00 0. -1.
</event>
<event>
 7    1  0.2900470E-011  0.5052886E+02  0.7816164E-02  0.1300439E+00
        -11   -1    0    0    0    0  0.00000000000E+00  0.00000000000E+00  0.45593999997E+02  0.45594000000E+02  0.51100000000E-03 0. -1.
         11   -1    0    0    0    0 -0.00000000000E+00 -0.00000000000E+00 -0.45593999997E+02  0.45594000000E+02  0.51100000000E-03 0.  1.
    9900012    2    1    2    0    0  0.24200099772E+02  0.13761175851E+02 -0.29633607819E+02  0.50528862009E+02  0.30000006562E+02 0.  0.
         12    1    1    2    0    0 -0.24200099772E+02 -0.13761175851E+02  0.29633607819E+02  0.40659137991E+02  0.00000000000E+00 0. -1.
         11    1    3    3    0    0  0.82692753588E+01 -0.28958907479E+01 -0.15705818086E+02  0.17984432718E+02  0.51100000000E-03 0. -1.
        -11    1    3    3    0    0  0.26865414352E+01  0.37540273914E+01  0.44946425548E+01  0.64429836641E+01  0.51100000000E-03 0.  1.
        -12    1    3    3    0    0  0.13244282978E+02  0.12903039208E+02 -0.18422432289E+02  0.26101445627E+02  0.00000000000E+00 0.  1.
</event>
<event>
 7    1  0.2900470E-011  0.5052887E+02  0.7816164E-02  0.1300439E+00
        -11   -1    0    0    0    0  0.00000000000E+00  0.00000000000E+00  0.45593999997E+02  0.45594000000E+02  0.51100000000E-03 0.  1.
         11   -1    0    0    0    0 -0.00000000000E+00 -0.00000000000E+00 -0.45593999997E+02  0.45594000000E+02  0.51100000000E-03 0. -1.
    9900012    2    1    2    0    0 -0.19699400004E+01 -0.26365290820E+02  0.30889414683E+02  0.50528866179E+02  0.30000019238E+02 0.  0.
         12    1    1    2    0    0  0.19699400004E+01  0.26365290820E+02 -0.30889414683E+02  0.40659133821E+02  0.00000000000E+00 0. -1.
         11    1    3    3    0    0  0.65462453939E+01 -0.25096318617E+01 -0.35136169556E+00  0.70196179483E+01  0.51100000000E-03 0. -1.
        -11    1    3    3    0    0  0.13980593407E+01 -0.17686733934E+02  0.23715671679E+02  0.29617700968E+02  0.51100000000E-03 0.  1.
         12    1    3    3    0    0 -0.99142447350E+01 -0.61689250238E+01  0.75251046993E+01  0.13891547263E+02  0.00000000000E+00 0. -1.
</event>
<event>
 7    1  0.2900470E-011  0.5052885E+02  0.7816164E-02  0.1300439E+00
        -11   -1    0    0    0    0  0.00000000000E+00  0.00000000000E+00  0.45593999997E+02  0.45594000000E+02  0.51100000000E-03 0.  1.
         11   -1    0    0    0    0 -0.00000000000E+00 -0.00000000000E+00 -0.45593999997E+02  0.45594000000E+02  0.51100000000E-03 0. -1.
    9900012    2    1    2    0    0 -0.18686602627E+02 -0.14013215691E+02  0.33280731262E+02  0.50528850905E+02  0.29999972812E+02 0.  0.
         12    1    1    2    0    0  0.18686602627E+02  0.14013215691E+02 -0.33280731262E+02  0.40659149095E+02  0.00000000000E+00 0. -1.
         11    1    3    3    0    0  0.60106103436E+00  0.72794879695E+00 -0.32174495026E+01  0.33530829666E+01  0.51100000000E-03 0. -1.
        -11    1    3    3    0    0 -0.22510307504E+02 -0.11405190816E+02  0.31398419063E+02  0.40282167784E+02  0.51100000000E-03 0.  1.
         12    1    3    3    0    0  0.32226438427E+01 -0.33359736716E+01  0.50997617018E+01  0.68936001545E+01  0.00000000000E+00 0. -1.
</event>
<event>
 7    1  0.2900470E-011  0.5052886E+02  0.7816164E-02  0.1300439E+00
        -11   -1    0    0    0    0  0.00000000000E+00  0.00000000000E+00  0.45593999997E+02  0.45594000000E+02  0.51100000000E-03 0.  1.
         11   -1    0    0    0    0 -0.00000000000E+00 -0.00000000000E+00 -0.45593999997E+02  0.45594000000E+02  0.51100000000E-03 0. -1.
    9900012    2    1    2    0    0 -0.16347298928E+02  0.35876792415E+02  0.99391847570E+01  0.50528858225E+02  0.29999995062E+02 0.  0.
         12    1    1    2    0    0  0.16347298928E+02 -0.35876792415E+02 -0.99391847570E+01  0.40659141775E+02  0.00000000000E+00 0. -1.
         11    1    3    3    0    0 -0.95438308532E+01  0.14392297830E+02  0.16552836815E+02  0.23921106811E+02  0.51100000000E-03 0. -1.
        -11    1    3    3    0    0  0.18046007833E+01  0.14459587049E+02 -0.26472538296E+01  0.14810273283E+02  0.51100000000E-03 0.  1.
         12    1    3    3    0    0 -0.86080688579E+01  0.70249075358E+01 -0.39663982288E+01  0.11797478131E+02  0.00000000000E+00 0. -1.
</event>
<event>
 7    1  0.2900470E-011  0.5052886E+02  0.7816164E-02  0.1300439E+00
        -11   -1    0    0    0    0  0.00000000000E+00  0.00000000000E+00  0.45593999997E+02  0.45594000000E+02  0.51100000000E-03 0. -1.
         11   -1    0    0    0    0 -0.00000000000E+00 -0.00000000000E+00 -0.45593999997E+02  0.45594000000E+02  0.51100000000E-03 0.  1.
    9900012    2    1    2    0    0 -0.62614858314E+01  0.22614031721E+02 -0.33204889354E+02  0.50528864341E+02  0.30000013651E+02 0.  0.
         12    1    1    2    0    0  0.62614858314E+01 -0.22614031721E+02  0.33204889354E+02  0.40659135659E+02  0.00000000000E+00 0. -1.
         11    1    3    3    0    0  0.51793969200E+01  0.11512034316E+02 -0.29851075089E+02  0.32410488592E+02  0.51100000000E-03 0. -1.
        -11    1    3    3    0    0 -0.74185270244E+01  0.40919070700E+01 -0.50459304689E+01  0.98610172517E+01  0.51100000000E-03 0.  1.
         12    1    3    3    0    0 -0.40223557269E+01  0.70100903348E+01  0.16921162039E+01  0.82573584968E+01  0.00000000000E+00 0. -1.
</event>
<event>
 7    1  0.2900470E-011  0.5052886E+02  0.7816164E-02  0.1300439E+00
        -11   -1    0    0    0    0  0.00000000000E+00  0.00000000000E+00  0.45593999997E+02  0.45594000000E+02  0.51100000000E-03 0.  1.
         11   -1    0    0    0    0 -0.00000000000E+00 -0.00000000000E+00 -0.45593999997E+02  0.45594000000E+02  0.51100000000E-03 0. -1.
    9900012    2    1    2    0    0  0.19229703536E+02  0.32259712095E+02  0.15578678068E+02  0.50528859172E+02  0.29999997939E+02 0.  0.
         12    1    1    2    0    0 -0.19229703536E+02 -0.32259712095E+02 -0.15578678068E+02  0.40659140828E+02  0.00000000000E+00 0. -1.
         11    1    3    3    0    0  0.25746523749E+01  0.12648758697E+02 -0.75021613749E+01  0.14929914835E+02  0.51100000000E-03 0. -1.
        -11    1    3    3    0    0  0.14430144427E+02  0.18574544449E+02  0.23333547109E+02  0.33131513558E+02  0.51100000000E-03 0.  1.
        -12    1    3    3    0    0  0.22249067344E+01  0.10364089483E+01 -0.25270766599E+00  0.24674307790E+01  0.00000000000E+00 0.  1.
</event>
<event>
 7    1  0.2900470E-011  0.5052885E+02  0.7816164E-02  0.1300439E+00
        -11   -1    0    0    0    0  0.00000000000E+00  0.00000000000E+00  0.45593999997E+02  0.45594000000E+02  0.51100000000E-03 0.  1.
         11   -1    0    0    0    0 -0.00000000000E+00 -0.00000000000E+00 -0.45593999997E+02  0.45594000000E+02  0.51100000000E-03 0. -1.
    9900012    2    1    2    0    0 -0.21968518175E+02  0.25326231986E+02  0.23002877322E+02  0.50528853642E+02  0.29999981131E+02 0.  0.
         12    1    1    2    0    0  0.21968518175E+02 -0.25326231986E+02 -0.23002877322E+02  0.40659146358E+02  0.00000000000E+00 0. -1.
         11    1    3    3    0    0 -0.19171628075E+02  0.14016371382E+02  0.11294399113E+02  0.26297783963E+02  0.51100000000E-03 0.  1.
        -11    1    3    3    0    0  0.10703840260E+01 -0.45826044312E+01  0.38736382901E+01  0.60951668722E+01  0.51100000000E-03 0. -1.
        -12    1    3    3    0    0 -0.38672741260E+01  0.15892465036E+02  0.78348399182E+01  0.18135902807E+02  0.00000000000E+00 0.  1.
</event>
<event>
 7    1  0.2900470E-011  0.5052886E+02  0.7816164E-02  0.1300439E+00
        -11   -1    0    0    0    0  0.00000000000E+00  0.00000000000E+00  0.45593999997E+02  0.45594000000E+02  0.51100000000E-03 0.  1.
         11   -1    0    0    0    0 -0.00000000000E+00 -0.00000000000E+00 -0.45593999997E+02  0.45594000000E+02  0.51100000000E-03 0. -1.
    9900012    2    1    2    0    0 -0.24771349753E+02 -0.24954596859E+02  0.20416018793E+02  0.50528862081E+02  0.30000006782E+02 0.  0.
         12    1    1    2    0    0  0.24771349753E+02  0.24954596859E+02 -0.20416018793E+02  0.40659137919E+02  0.00000000000E+00 0. -1.
         11    1    3    3    0    0 -0.12116219887E+02 -0.17746829795E+02  0.52163411825E+00  0.21494763421E+02  0.51100000000E-03 0. -1.
        -11    1    3    3    0    0 -0.15299859038E+02 -0.83703815410E+01  0.19428527375E+02  0.26107789066E+02  0.51100000000E-03 0.  1.
        -12    1    3    3    0    0  0.26447291716E+01  0.11626144773E+01  0.46585730000E+00  0.29263095936E+01  0.00000000000E+00 0.  1.
</event>
<event>
 7    1  0.2900470E-011  0.5052887E+02  0.7816164E-02  0.1300439E+00
        -11   -1    0    0    0    0  0.00000000000E+00  0.00000000000E+00  0.45593999997E+02  0.45594000000E+02  0.51100000000E-03 0.  1.
         11   -1    0    0    0    0 -0.00000000000E+00 -0.00000000000E+00 -0.45593999997E+02  0.45594000000E+02  0.51100000000E-03 0. -1.
    9900012    2    1    2    0    0  0.10799141349E+02  0.38488002780E+02  0.74308267588E+01  0.50528868207E+02  0.30000025401E+02 0.  0.
         12    1    1    2    0    0 -0.10799141349E+02 -0.38488002780E+02 -0.74308267588E+01  0.40659131793E+02  0.00000000000E+00 0. -1.
         11    1    3    3    0    0 -0.19010292280E+01  0.13024579565E+00 -0.34936240664E+01  0.39794830658E+01  0.51100000000E-03 0. -1.
        -11    1    3    3    0    0  0.12165476447E+02  0.22536286290E+02 -0.25819914159E+01  0.25740040731E+02  0.51100000000E-03 0.  1.
         12    1    3    3    0    0  0.53469413029E+00  0.15821470695E+02  0.13506442241E+02  0.20809344410E+02  0.00000000000E+00 0. -1.
</event>
<event>
 7    1  0.2900470E-011  0.5052885E+02  0.7816164E-02  0.1300439E+00
        -11   -1    0    0    0    0  0.00000000000E+00  0.00000000000E+00  0.45593999997E+02  0.45594000000E+02  0.51100000000E-03 0. -1.
         11   -1    0    0    0    0 -0.00000000000E+00 -0.00000000000E+00 -0.45593999997E+02  0.45594000000E+02  0.51100000000E-03 0.  1.
    9900012    2    1    2    0    0 -0.10789286796E+02 -0.67668192328E+01 -0.38613050275E+02  0.50528853383E+02  0.29999980344E+02 0.  0.
         12    1    1    2    0    0  0.10789286796E+02  0.67668192328E+01  0.38613050275E+02  0.40659146617E+02  0.00000000000E+00 0. -1.
         11    1    3    3    0    0  0.30929956658E+01  0.40092949033E+01 -0.16387162588E+02  0.17151681135E+02  0.51100000000E-03 0. -1.
        -11    1    3    3    0    0  0.14450574182E+01 -0.72245887469E+01 -0.17822061031E+01  0.75801802326E+01  0.51100000000E-03 0.  1.
        -12    1    3    3    0    0 -0.15327339880E+02 -0.35515253891E+01 -0.20443681583E+02  0.25796992015E+02  0.00000000000E+00 0.  1.
</event>
<event>
 7    1  0.2900470E-011  0.5052886E+02  0.7816164E-02  0.1300439E+00
        -11   -1    0    0    0    0  0.00000000000E+00  0.00000000000E+00  0.45593999997E+02  0.45594000000E+02  0.51100000000E-03 0. -1.
         11   -1    0    0    0    0 -0.00000000000E+00 -0.00000000000E+00 -0.45593999997E+02  0.45594000000E+02  0.51100000000E-03 0.  1.
    9900012    2    1    2    0    0  0.27901384412E+02 -0.24059839212E+02  0.17198915722E+02  0.50528858137E+02  0.29999994794E+02 0.  0.
         12    1    1    2    0    0 -0.27901384412E+02  0.24059839212E+02 -0.17198915722E+02  0.40659141863E+02  0.00000000000E+00 0. -1.
         11    1    3    3    0    0  0.25446392806E+02 -0.18714313425E+02  0.24279194447E+02  0.39839976368E+02  0.51100000000E-03 0. -1.
        -11    1    3    3    0    0  0.25818387631E+01 -0.61187991849E+01 -0.45765275206E+01  0.80653703741E+01  0.51100000000E-03 0.  1.
         12    1    3    3    0    0 -0.12684715781E+00  0.77327339771E+00 -0.25037512035E+01  0.26235113947E+01  0.00000000000E+00 0. -1.
</event>
<event>
 7    1  0.2900470E-011  0.5052886E+02  0.7816164E-02  0.1300439E+00
        -11   -1    0    0    0    0  0.00000000000E+00  0.00000000000E+00  0.45593999997E+02  0.45594000000E+02  0.51100000000E-03 0.  1.
         11   -1    0    0    0    0 -0.00000000000E+00 -0.00000000000E+00 -0.45593999997E+02  0.45594000000E+02  0.51100000000E-03 0. -1.
    9900012    2    1    2    0    0  0.74026570805E+01  0.25001856522E+01  0.39901317059E+02  0.50528863718E+02  0.30000011757E+02 0.  0.
         12    1    1    2    0    0 -0.74026570805E+01 -0.25001856522E+01 -0.39901317059E+02  0.40659136282E+02  0.00000000000E+00 0. -1.
         11    1    3    3    0    0 -0.64282197256E+00 -0.76179749417E+01  0.31716263588E+01  0.82768337136E+01  0.51100000000E-03 0. -1.
        -11    1    3    3    0    0  0.77647383710E+01 -0.14561909779E+00  0.27043705295E+02  0.28136708464E+02  0.51100000000E-03 0.  1.
         12    1    3    3    0    0  0.28074068211E+00  0.10263779692E+02  0.96859854058E+01  0.14115321540E+02  0.00000000000E+00 0. -1.
</event>
<event>
 7    1  0.2900470E-011  0.5052885E+02  0.7816164E-02  0.1300439E+00
        -11   -1    0    0    0    0  0.00000000000E+00  0.00000000000E+00  0.45593999997E+02  0.45594000000E+02  0.51100000000E-03 0. -1.
         11   -1    0    0    0    0 -0.00000000000E+00 -0.00000000000E+00 -0.45593999997E+02  0.45594000000E+02  0.51100000000E-03 0.  1.
    9900012    2    1    2    0    0  0.27725792465E+02 -0.56000139043E+01 -0.29207646355E+02  0.50528851840E+02  0.29999975652E+02 0.  0.
         12    1    1    2    0    0 -0.27725792465E+02  0.56000139043E+01  0.29207646355E+02  0.40659148160E+02  0.00000000000E+00 0. -1.
         11    1    3    3    0    0 -0.10084050046E+01  0.18428983404E+00  0.46086065649E+01  0.47212390458E+01  0.51100000000E-03 0. -1.
        -11    1    3    3    0    0  0.63759421117E+01 -0.54041019515E+01 -0.70880414260E+01  0.10958890785E+02  0.51100000000E-03 0.  1.
         12    1    3    3    0    0  0.22358255357E+02 -0.38020178678E+00 -0.26728211494E+02  0.34848722009E+02  0.00000000000E+00 0. -1.
</event>
<event>
 7    1  0.2900470E-011  0.5052885E+02  0.7816164E-02  0.1300439E+00
        -11   -1    0    0    0    0  0.00000000000E+00  0.00000000000E+00  0.45593999997E+02  0.45594000000E+02  0.51100000000E-03 0. -1.
         11   -1    0    0    0    0 -0.00000000000E+00 -0.00000000000E+00 -0.45593999997E+02  0.45594000000E+02  0.51100000000E-03 0.  1.
    9900012    2    1    2    0    0  0.34769454178E+02  0.20534202286E+02  0.47537510075E+01  0.50528849050E+02  0.29999967173E+02 0.  0.
         12    1    1    2    0    0 -0.34769454178E+02 -0.20534202286E+02 -0.47537510075E+01  0.40659150950E+02  0.00000000000E+00 0. -1.
         11    1    3    3    0    0 -0.34548568190E+01  0.22634432190E+01 -0.22145010722E+01  0.46864940099E+01  0.51100000000E-03 0. -1.
        -11    1    3    3    0    0  0.26779077305E+02  0.14738432758E+02  0.12016419999E+02  0.32844097359E+02  0.51100000000E-03 0.  1.
        -12    1    3    3    0    0  0.11445233692E+02  0.35323263086E+01 -0.50481679193E+01  0.12998257682E+02  0.00000000000E+00 0.  1.
</event>
<event>
 7    1  0.2900470E-011  0.5052886E+02  0.7816164E-02  0.1300439E+00
        -11   -1    0    0    0    0  0.00000000000E+00  0.00000000000E+00  0.45593999997E+02  0.45594000000E+02  0.51100000000E-03 0.  1.
         11   -1    0    0    0    0 -0.00000000000E+00 -0.00000000000E+00 -0.45593999997E+02  0.45594000000E+02  0.51100000000E-03 0. -1.
    9900012    2    1    2    0    0  0.35885202594E+02  0.17489721544E+01  0.19035737315E+02  0.50528856330E+02  0.29999989301E+02 0.  0.
         12    1    1    2    0    0 -0.35885202594E+02 -0.17489721544E+01 -0.19035737315E+02  0.40659143670E+02  0.00000000000E+00 0. -1.
         11    1    3    3    0    0  0.17942317896E+02  0.13547341168E+02  0.63813833394E+01  0.23370478767E+02  0.51100000000E-03 0. -1.
        -11    1    3    3    0    0  0.12821987635E+02 -0.85069283932E+01  0.28968502398E+01  0.15657679878E+02  0.51100000000E-03 0.  1.
        -12    1    3    3    0    0  0.51208970636E+01 -0.32914406202E+01  0.97575037359E+01  0.11500697685E+02  0.00000000000E+00 0.  1.
</event>
<event>
 7    1  0.2900470E-011  0.5052899E+02  0.7816164E-02  0.1300438E+00
        -11   -1    0    0    0    0  0.00000000000E+00  0.00000000000E+00  0.45593999997E+02  0.45594000000E+02  0.51100000000E-03 0. -1.
         11   -1    0    0    0    0 -0.00000000000E+00 -0.00000000000E+00 -0.45593999997E+02  0.45594000000E+02  0.51100000000E-03 0.  1.
    9900012    2    1    2    0    0  0.45345064567E+01 -0.33682386894E+02 -0.22317928229E+02  0.50528992927E+02  0.30000404499E+02 0.  0.
         12    1    1    2    0    0 -0.45345064567E+01  0.33682386894E+02  0.22317928229E+02  0.40659007073E+02  0.00000000000E+00 0. -1.
         11    1    3    3    0    0  0.11026894624E+02 -0.73756905563E+01 -0.53706087185E+01  0.14312115654E+02  0.51100000000E-03 0. -1.
        -11    1    3    3    0    0 -0.94958160191E+01 -0.26416001299E+02 -0.12220757043E+02  0.30615723893E+02  0.51100000000E-03 0.  1.
        -12    1    3    3    0    0  0.30034278514E+01  0.10930496103E+00 -0.47265624673E+01  0.56011533804E+01  0.00000000000E+00 0.  1.
</event>
<event>
 7    1  0.2900470E-011  0.5052886E+02  0.7816164E-02  0.1300439E+00
        -11   -1    0    0    0    0  0.00000000000E+00  0.00000000000E+00  0.45593999997E+02  0.45594000000E+02  0.51100000000E-03 0.  1.
         11   -1    0    0    0    0 -0.00000000000E+00 -0.00000000000E+00 -0.45593999997E+02  0.45594000000E+02  0.51100000000E-03 0. -1.
    9900012    2    1    2    0    0  0.26497833212E+01 -0.40254016154E+01  0.40372521271E+02  0.50528859778E+02  0.29999999782E+02 0.  0.
         12    1    1    2    0    0 -0.26497833212E+01  0.40254016154E+01 -0.40372521271E+02  0.40659140222E+02  0.00000000000E+00 0. -1.
         11    1    3    3    0    0  0.11903267187E+01  0.53358477919E+00 -0.19265281083E+01  0.23266072352E+01  0.51100000000E-03 0. -1.
        -11    1    3    3    0    0  0.63796833593E+01 -0.12231464764E+02  0.28523139366E+02  0.31684042823E+02  0.51100000000E-03 0.  1.
        -12    1    3    3    0    0 -0.49202267568E+01  0.76724783697E+01  0.13775910013E+02  0.16518209720E+02  0.00000000000E+00 0.  1.
</event>
<event>
 7    1  0.2900470E-011  0.5052887E+02  0.7816164E-02  0.1300439E+00
        -11   -1    0    0    0    0  0.00000000000E+00  0.00000000000E+00  0.45593999997E+02  0.45594000000E+02  0.51100000000E-03 0.  1.
         11   -1    0    0    0    0 -0.00000000000E+00 -0.00000000000E+00 -0.45593999997E+02  0.45594000000E+02  0.51100000000E-03 0. -1.
    9900012    2    1    2    0    0 -0.75784985156E+01  0.15095993349E+02  0.36984355831E+02  0.50528865342E+02  0.30000016693E+02 0.  0.
         12    1    1    2    0    0  0.75784985156E+01 -0.15095993349E+02 -0.36984355831E+02  0.40659134658E+02  0.00000000000E+00 0. -1.
         11    1    3    3    0    0 -0.14545607754E+02  0.32185910112E+01  0.19478167391E+02  0.24522092860E+02  0.51100000000E-03 0. -1.
        -11    1    3    3    0    0  0.77271820343E+01  0.21512520740E+01  0.12965502876E+02  0.15246032034E+02  0.51100000000E-03 0.  1.
        -12    1    3    3    0    0 -0.76007279555E+00  0.97261502642E+01  0.45406855633E+01  0.10760740449E+02  0.00000000000E+00 0.  1.
</event>
<event>
 7    1  0.2900470E-011  0.5052887E+02  0.7816164E-02  0.1300439E+00
        -11   -1    0    0    0    0  0.00000000000E+00  0.00000000000E+00  0.45593999997E+02  0.45594000000E+02  0.51100000000E-03 0.  1.
         11   -1    0    0    0    0 -0.00000000000E+00 -0.00000000000E+00 -0.45593999997E+02  0.45594000000E+02  0.51100000000E-03 0. -1.
    9900012    2    1    2    0    0 -0.23115973975E+01  0.40371895034E+02  0.42346026823E+01  0.50528865098E+02  0.30000015951E+02 0.  0.
         12    1    1    2    0    0  0.23115973975E+01 -0.40371895034E+02 -0.42346026823E+01  0.40659134902E+02  0.00000000000E+00 0. -1.
         11    1    3    3    0    0  0.12402404061E+02  0.15910435441E+02 -0.10977858588E+01  0.20203136303E+02  0.51100000000E-03 0. -1.
        -11    1    3    3    0    0 -0.10233645987E+02  0.10866594476E+02  0.57743353411E+01  0.16004790989E+02  0.51100000000E-03 0.  1.
         12    1    3    3    0    0 -0.44803554709E+01  0.13594865116E+02 -0.44194679999E+00  0.14320937806E+02  0.00000000000E+00 0. -1.
</event>
<event>
 7    1  0.2900470E-011  0.5052886E+02  0.7816164E-02  0.1300439E+00
        -11   -1    0    0    0    0  0.00000000000E+00  0.00000000000E+00  0.45593999997E+02  0.45594000000E+02  0.51100000000E-03 0.  1.
         11   -1    0    0    0    0 -0.00000000000E+00 -0.00000000000E+00 -0.45593999997E+02  0.45594000000E+02  0.51100000000E-03 0. -1.
    9900012    2    1    2    0    0 -0.22197502986E+02  0.31780845285E+02  0.12264348090E+02  0.50528862036E+02  0.30000006646E+02 0.  0.
         12    1    1    2    0    0  0.22197502986E+02 -0.31780845285E+02 -0.12264348090E+02  0.40659137964E+02  0.00000000000E+00 0. -1.
         11    1    3    3    0    0 -0.15109675974E+02  0.27179692172E+01  0.35097933943E+01  0.15748279736E+02  0.51100000000E-03 0. -1.
        -11    1    3    3    0    0  0.36151712519E+01  0.12934646687E+02 -0.24876195095E+00  0.13432662836E+02  0.51100000000E-03 0.  1.
        -12    1    3    3    0    0 -0.10702998264E+02  0.16128229381E+02  0.90033166471E+01  0.21347919464E+02  0.00000000000E+00 0.  1.
</event>
<event>
 7    1  0.2900470E-011  0.5052886E+02  0.7816164E-02  0.1300439E+00
        -11   -1    0    0    0    0  0.00000000000E+00  0.00000000000E+00  0.45593999997E+02  0.45594000000E+02  0.51100000000E-03 0. -1.
         11   -1    0    0    0    0 -0.00000000000E+00 -0.00000000000E+00 -0.45593999997E+02  0.45594000000E+02  0.51100000000E-03 0.  1.
    9900012    2    1    2    0    0 -0.33307423694E+00  0.16518440700E+02 -0.37150985002E+02  0.50528861935E+02  0.30000006337E+02 0.  0.
         12    1    1    2    0    0  0.33307423694E+00 -0.16518440700E+02  0.37150985002E+02  0.40659138065E+02  0.00000000000E+00 0. -1.
         11    1    3    3    0    0 -0.67999189576E+01  0.38830410955E-01 -0.30490438812E+02  0.31239514479E+02  0.51100000000E-03 0. -1.
        -11    1    3    3    0    0  0.57680179592E+01  0.97229346662E+01 -0.39384198020E+01  0.11971492827E+02  0.51100000000E-03 0.  1.
         12    1    3    3    0    0  0.69882676148E+00  0.67566756227E+01 -0.27221263873E+01  0.73178546297E+01  0.00000000000E+00 0. -1.
</event>
<event>
 7    1  0.2900470E-011  0.5052886E+02  0.7816164E-02  0.1300439E+00
        -11   -1    0    0    0    0  0.00000000000E+00  0.00000000000E+00  0.45593999997E+02  0.45594000000E+02  0.51100000000E-03 0. -1.
         11   -1    0    0    0    0 -0.00000000000E+00 -0.00000000000E+00 -0.45593999997E+02  0.45594000000E+02  0.51100000000E-03 0.  1.
    9900012    2    1    2    0    0 -0.14363234254E+02 -0.21347659096E+02 -0.31482384377E+02  0.50528861136E+02  0.30000003908E+02 0.  0.
         12    1    1    2    0    0  0.14363234254E+02  0.21347659096E+02  0.31482384377E+02  0.40659138864E+02  0.00000000000E+00 0. -1.
         11    1    3    3    0    0 -0.29851063638E+01 -0.53229591820E+01  0.22527682809E+01  0.65053608389E+01  0.51100000000E-03 0. -1.
        -11    1    3    3    0    0 -0.16831754165E+02 -0.90870114437E+01 -0.26070615893E+02  0.32335100720E+02  0.51100000000E-03 0.  1.
        -12    1    3    3    0    0  0.54536262745E+01 -0.69376884704E+01 -0.76645367646E+01  0.11688399577E+02  0.00000000000E+00 0.  1.
</event>
<event>
 7    1  0.2900470E-011  0.5052886E+02  0.7816164E-02  0.1300439E+00
        -11   -1    0    0    0    0  0.00000000000E+00  0.00000000000E+00  0.45593999997E+02  0.45594000000E+02  0.51100000000E-03 0. -1.
         11   -1    0    0    0    0 -0.00000000000E+00 -0.00000000000E+00 -0.45593999997E+02  0.45594000000E+02  0.51100000000E-03 0.  1.
    9900012    2    1    2    0    0  0.38158479833E+02 -0.10999386803E+02 -0.87240934749E+01  0.50528857115E+02  0.29999991687E+02 0.  0.
         12    1    1    2    0    0 -0.38158479833E+02  0.10999386803E+02  0.87240934749E+01  0.40659142885E+02  0.00000000000E+00 0. -1.
         11    1    3    3    0    0  0.67742877293E-01 -0.97171284300E+01 -0.60662854904E+01  0.11455435126E+02  0.51100000000E-03 0. -1.
        -11    1    3    3    0    0  0.14713023867E+02 -0.44756611619E+01 -0.62945958593E+00  0.15391583213E+02  0.51100000000E-03 0.  1.
         12    1    3    3    0    0  0.23377713088E+02  0.31934027889E+01 -0.20283483985E+01  0.23681838776E+02  0.00000000000E+00 0. -1.
</event>
<event>
 7    1  0.2900470E-011  0.5052886E+02  0.7816164E-02  0.1300439E+00
        -11   -1    0    0    0    0  0.00000000000E+00  0.00000000000E+00  0.45593999997E+02  0.45594000000E+02  0.51100000000E-03 0.  1.
         11   -1    0    0    0    0 -0.00000000000E+00 -0.00000000000E+00 -0.45593999997E+02  0.45594000000E+02  0.51100000000E-03 0. -1.
    9900012    2    1    2    0    0 -0.20361054485E+02  0.87061905362E+01  0.34099786424E+02  0.50528859237E+02  0.29999998138E+02 0.  0.
         12    1    1    2    0    0  0.20361054485E+02 -0.87061905362E+01 -0.34099786424E+02  0.40659140763E+02  0.00000000000E+00 0. -1.
         11    1    3    3    0    0  0.55881825151E+00 -0.60167310814E+01  0.10392128381E+02  0.12021217213E+02  0.51100000000E-03 0. -1.
        -11    1    3    3    0    0 -0.12857660993E+02  0.12307212194E+02  0.57981412328E+01  0.18719117506E+02  0.51100000000E-03 0.  1.
        -12    1    3    3    0    0 -0.80622117440E+01  0.24157094238E+01  0.17909516810E+02  0.19788524518E+02  0.00000000000E+00 0.  1.
</event>
<event>
 7    1  0.2900470E-011  0.5052886E+02  0.7816164E-02  0.1300439E+00
        -11   -1    0    0    0    0  0.00000000000E+00  0.00000000000E+00  0.45593999997E+02  0.45594000000E+02  0.51100000000E-03 0.  1.
         11   -1    0    0    0    0 -0.00000000000E+00 -0.00000000000E+00 -0.45593999997E+02  0.45594000000E+02  0.51100000000E-03 0. -1.
    9900012    2    1    2    0    0  0.34671266356E+02 -0.20078996450E+02 -0.69211865800E+01  0.50528860402E+02  0.30000001678E+02 0.  0.
         12    1    1    2    0    0 -0.34671266356E+02  0.20078996450E+02  0.69211865800E+01  0.40659139598E+02  0.00000000000E+00 0. -1.
         11    1    3    3    0    0  0.43334047048E+01 -0.19744116174E+01 -0.72064171107E+01  0.86376585603E+01  0.51100000000E-03 0. -1.
        -11    1    3    3    0    0  0.12231132327E+02 -0.12794769791E+02  0.10351178368E+02  0.20504965883E+02  0.51100000000E-03 0.  1.
        -12    1    3    3    0    0  0.18106729325E+02 -0.53098150413E+01 -0.10065947837E+02  0.21386235958E+02  0.00000000000E+00 0.  1.
</event>
<event>
 7    1  0.2900470E-011  0.5052887E+02  0.7816164E-02  0.1300439E+00
        -11   -1    0    0    0    0  0.00000000000E+00  0.00000000000E+00  0.45593999997E+02  0.45594000000E+02  0.51100000000E-03 0. -1.
         11   -1    0    0    0    0 -0.00000000000E+00 -0.00000000000E+00 -0.45593999997E+02  0.45594000000E+02  0.51100000000E-03 0.  1.
    9900012    2    1    2    0    0 -0.86227180539E+01 -0.78471709343E+01 -0.38951712195E+02  0.50528865218E+02  0.30000016316E+02 0.  0.
         12    1    1    2    0    0  0.86227180539E+01  0.78471709343E+01  0.38951712195E+02  0.40659134782E+02  0.00000000000E+00 0. -1.
         11    1    3    3    0    0 -0.45599784442E+01 -0.97720832438E+01 -0.95642197665E+01  0.14413927790E+02  0.51100000000E-03 0. -1.
        -11    1    3    3    0    0  0.84134577145E+01  0.11253126542E+01 -0.12118362160E+02  0.14795516246E+02  0.51100000000E-03 0.  1.
        -12    1    3    3    0    0 -0.12476197324E+02  0.79959965523E+00 -0.17269130269E+02  0.21319421182E+02  0.00000000000E+00 0.  1.
</event>
<event>
 7    1  0.2900470E-011  0.5052886E+02  0.7816164E-02  0.1300439E+00
        -11   -1    0    0    0    0  0.00000000000E+00  0.00000000000E+00  0.45593999997E+02  0.45594000000E+02  0.51100000000E-03 0. -1.
         11   -1    0    0    0    0 -0.00000000000E+00 -0.00000000000E+00 -0.45593999997E+02  0.45594000000E+02  0.51100000000E-03 0.  1.
    9900012    2    1    2    0    0  0.11665543005E+02 -0.31463161105E+02 -0.22959746848E+02  0.50528863565E+02  0.30000011291E+02 0.  0.
         12    1    1    2    0    0 -0.11665543005E+02  0.31463161105E+02  0.22959746848E+02  0.40659136435E+02  0.00000000000E+00 0. -1.
         11    1    3    3    0    0  0.29709490882E+01 -0.19930850056E+02 -0.15027141299E+01  0.20207015426E+02  0.51100000000E-03 0. -1.
        -11    1    3    3    0    0  0.95009251776E+01 -0.11374339622E+02 -0.23689242407E+02  0.27943217194E+02  0.51100000000E-03 0.  1.
        -12    1    3    3    0    0 -0.80633126094E+00 -0.15797142791E+00  0.22322096888E+01  0.23786309443E+01  0.00000000000E+00 0.  1.
</event>
<event>
 7    1  0.2900470E-011  0.5052887E+02  0.7816164E-02  0.1300439E+00
        -11   -1    0    0    0    0  0.00000000000E+00  0.00000000000E+00  0.45593999997E+02  0.45594000000E+02  0.51100000000E-03 0.  1.
         11   -1    0    0    0    0 -0.00000000000E+00 -0.00000000000E+00 -0.45593999997E+02  0.45594000000E+02  0.51100000000E-03 0. -1.
    9900012    2    1    2    0    0 -0.14195794242E+01 -0.88696524989E+01  0.39654494795E+02  0.50528869431E+02  0.30000029121E+02 0.  0.
         12    1    1    2    0    0  0.14195794242E+01  0.88696524989E+01 -0.39654494795E+02  0.40659130569E+02  0.00000000000E+00 0. -1.
         11    1    3    3    0    0  0.66769049881E+01 -0.10681280612E+02  0.20353360510E+02  0.23935958307E+02  0.51100000000E-03 0. -1.
        -11    1    3    3    0    0 -0.75061312333E+01  0.75224445149E+01  0.17678705154E+02  0.20626822193E+02  0.51100000000E-03 0.  1.
        -12    1    3    3    0    0 -0.59035317895E+00 -0.57108164019E+01  0.16224291306E+01  0.59660889313E+01  0.00000000000E+00 0.  1.
</event>
<event>
 7    1  0.2900470E-011  0.5052886E+02  0.7816164E-02  0.1300439E+00
        -11   -1    0    0    0    0  0.00000000000E+00  0.00000000000E+00  0.45593999997E+02  0.45594000000E+02  0.51100000000E-03 0.  1.
         11   -1    0    0    0    0 -0.00000000000E+00 -0.00000000000E+00 -0.45593999997E+02  0.45594000000E+02  0.51100000000E-03 0. -1.
    9900012    2    1    2    0    0  0.13451562170E+02 -0.20804122878E+02  0.32239870671E+02  0.50528864318E+02  0.30000013580E+02 0.  0.
         12    1    1    2    0    0 -0.13451562170E+02  0.20804122878E+02 -0.32239870671E+02  0.40659135682E+02  0.00000000000E+00 0. -1.
         11    1    3    3    0    0 -0.29070336966E+00 -0.32568930942E+01  0.35109895158E+01  0.47978024884E+01  0.51100000000E-03 0. -1.
        -11    1    3    3    0    0  0.14658615392E+02 -0.19150846545E+02  0.33118287410E+02  0.40968901497E+02  0.51100000000E-03 0.  1.
        -12    1    3    3    0    0 -0.91634985275E+00  0.16036167611E+01 -0.43894062542E+01  0.47621603326E+01  0.00000000000E+00 0.  1.
</event>
<event>
 7    1  0.2900470E-011  0.5052886E+02  0.7816164E-02  0.1300439E+00
        -11   -1    0    0    0    0  0.00000000000E+00  0.00000000000E+00  0.45593999997E+02  0.45594000000E+02  0.51100000000E-03 0.  1.
         11   -1    0    0    0    0 -0.00000000000E+00 -0.00000000000E+00 -0.45593999997E+02  0.45594000000E+02  0.51100000000E-03 0. -1.
    9900012    2    1    2    0    0 -0.31187236741E+02 -0.12909672395E+02  0.22668524860E+02  0.50528863312E+02  0.30000010522E+02 0.  0.
         12    1    1    2    0    0  0.31187236741E+02  0.12909672395E+02 -0.22668524860E+02  0.40659136688E+02  0.00000000000E+00 0. -1.
         11    1    3    3    0    0  0.42255330818E+01 -0.16352592300E+01 -0.16418520532E+01  0.48192199577E+01  0.51100000000E-03 0. -1.
        -11    1    3    3    0    0 -0.30820886735E+02 -0.11216378103E+02  0.24760746934E+02  0.41095362097E+02  0.51100000000E-03 0.  1.
        -12    1    3    3    0    0 -0.45918830882E+01 -0.58035061749E-01 -0.45037002055E+00  0.46142812571E+01  0.00000000000E+00 0.  1.
</event>
<event>
 7    1  0.2900470E-011  0.5052889E+02  0.7816164E-02  0.1300439E+00
        -11   -1    0    0    0    0  0.00000000000E+00  0.00000000000E+00  0.45593999997E+02  0.45594000000E+02  0.51100000000E-03 0. -1.
         11   -1    0    0    0    0 -0.00000000000E+00 -0.00000000000E+00 -0.45593999997E+02  0.45594000000E+02  0.51100000000E-03 0.  1.
    9900012    2    1    2    0    0 -0.38582014239E+02 -0.12783638518E+02 -0.10815070903E+01  0.50528894081E+02  0.30000104050E+02 0.  0.
         12    1    1    2    0    0  0.38582014239E+02  0.12783638518E+02  0.10815070903E+01  0.40659105919E+02  0.00000000000E+00 0. -1.
         11    1    3    3    0    0 -0.12485462497E+02  0.42561176880E+01  0.55381491768E+01  0.14306376484E+02  0.51100000000E-03 0. -1.
        -11    1    3    3    0    0 -0.13597812721E+02 -0.18060328870E+02 -0.14344225399E+01  0.22652451478E+02  0.51100000000E-03 0.  1.
        -12    1    3    3    0    0 -0.12498739021E+02  0.10205726636E+01 -0.51852337271E+01  0.13570066119E+02  0.00000000000E+00 0.  1.
</event>
<event>
 7    1  0.2900470E-011  0.5052885E+02  0.7816164E-02  0.1300439E+00
        -11   -1    0    0    0    0  0.00000000000E+00  0.00000000000E+00  0.45593999997E+02  0.45594000000E+02  0.51100000000E-03 0.  1.
         11   -1    0    0    0    0 -0.00000000000E+00 -0.00000000000E+00 -0.45593999997E+02  0.45594000000E+02  0.51100000000E-03 0. -1.
    9900012    2    1    2    0    0  0.37642269497E+02  0.14550476334E+02  0.49507335140E+01  0.50528848794E+02  0.29999966395E+02 0.  0.
         12    1    1    2    0    0 -0.37642269497E+02 -0.14550476334E+02 -0.49507335140E+01  0.40659151206E+02  0.00000000000E+00 0. -1.
         11    1    3    3    0    0  0.10314868432E+02 -0.55209991534E+01 -0.33059943287E+01  0.12157612479E+02  0.51100000000E-03 0. -1.
        -11    1    3    3    0    0  0.24274795708E+02  0.89833321782E+01  0.69226543523E+01  0.26793452693E+02  0.51100000000E-03 0.  1.
         12    1    3    3    0    0  0.30526053571E+01  0.11088143310E+02  0.13340734905E+01  0.11577783622E+02  0.00000000000E+00 0. -1.
</event>
<event>
 7    1  0.2900470E-011  0.5052886E+02  0.7816164E-02  0.1300439E+00
        -11   -1    0    0    0    0  0.00000000000E+00  0.00000000000E+00  0.45593999997E+02  0.45594000000E+02  0.51100000000E-03 0. -1.
         11   -1    0    0    0    0 -0.00000000000E+00 -0.00000000000E+00 -0.45593999997E+02  0.45594000000E+02  0.51100000000E-03 0.  1.
    9900012    2    1    2    0    0  0.75493879139E+01 -0.39897760348E+02  0.20835482138E+01  0.50528859431E+02  0.29999998727E+02 0.  0.
         12    1    1    2    0    0 -0.75493879139E+01  0.39897760348E+02 -0.20835482138E+01  0.40659140569E+02  0.00000000000E+00 0. -1.
         11    1    3    3    0    0 -0.12727680132E+01 -0.13759339552E+01 -0.23724731087E+01  0.30235346165E+01  0.51100000000E-03 0. -1.
        -11    1    3    3    0    0  0.44009395904E+01 -0.41446291896E+02  0.56811050344E+01  0.42064692271E+02  0.51100000000E-03 0.  1.
        -12    1    3    3    0    0  0.44212163367E+01  0.29244655031E+01 -0.12250837120E+01  0.54406325437E+01  0.00000000000E+00 0.  1.
</event>
<event>
 7    1  0.2900470E-011  0.5052886E+02  0.7816164E-02  0.1300439E+00
        -11   -1    0    0    0    0  0.00000000000E+00  0.00000000000E+00  0.45593999997E+02  0.45594000000E+02  0.51100000000E-03 0.  1.
         11   -1    0    0    0    0 -0.00000000000E+00 -0.00000000000E+00 -0.45593999997E+02  0.45594000000E+02  0.51100000000E-03 0. -1.
    9900012    2    1    2    0    0 -0.78628699958E+01  0.33392933400E+02  0.21823219497E+02  0.50528860378E+02  0.30000001604E+02 0.  0.
         12    1    1    2    0    0  0.78628699958E+01 -0.33392933400E+02 -0.21823219497E+02  0.40659139622E+02  0.00000000000E+00 0. -1.
         11    1    3    3    0    0 -0.13046416133E+02  0.29656878847E+01  0.78626290149E+01  0.15518544192E+02  0.51100000000E-03 0. -1.
        -11    1    3    3    0    0  0.75930251306E+01  0.25627000770E+02  0.11345500239E+02  0.29036486961E+02  0.51100000000E-03 0.  1.
         12    1    3    3    0    0 -0.24094789936E+01  0.48002447455E+01  0.26150902430E+01  0.59738292256E+01  0.00000000000E+00 0. -1.
</event>
<event>
 7    1  0.2900470E-011  0.5052885E+02  0.7816164E-02  0.1300439E+00
        -11   -1    0    0    0    0  0.00000000000E+00  0.00000000000E+00  0.45593999997E+02  0.45594000000E+02  0.51100000000E-03 0.  1.
         11   -1    0    0    0    0 -0.00000000000E+00 -0.00000000000E+00 -0.45593999997E+02  0.45594000000E+02  0.51100000000E-03 0. -1.
    9900012    2    1    2    0    0 -0.37573625873E+02  0.14744409045E+02  0.48981491128E+01  0.50528845753E+02  0.29999957152E+02 0.  0.
         12    1    1    2    0    0  0.37573625873E+02 -0.14744409045E+02 -0.48981491128E+01  0.40659154247E+02  0.00000000000E+00 0. -1.
         11    1    3    3    0    0 -0.73717858805E+01 -0.18780795303E+01  0.32556976561E+01  0.82746587410E+01  0.51100000000E-03 0. -1.
        -11    1    3    3    0    0 -0.15523781000E+02  0.21510904088E+02  0.31331141166E+01  0.26711854588E+02  0.51100000000E-03 0.  1.
        -12    1    3    3    0    0 -0.14678058993E+02 -0.48884155128E+01 -0.14906626599E+01  0.15542332424E+02  0.00000000000E+00 0.  1.
</event>
<event>
 7    1  0.2900470E-011  0.5052892E+02  0.7816164E-02  0.1300439E+00
        -11   -1    0    0    0    0  0.00000000000E+00  0.00000000000E+00  0.45593999997E+02  0.45594000000E+02  0.51100000000E-03 0. -1.
         11   -1    0    0    0    0 -0.00000000000E+00 -0.00000000000E+00 -0.45593999997E+02  0.45594000000E+02  0.51100000000E-03 0.  1.
    9900012    2    1    2    0    0  0.32914369788E+02 -0.22869220353E+02 -0.68413312444E+01  0.50528919940E+02  0.30000182649E+02 0.  0.
         12    1    1    2    0    0 -0.32914369788E+02  0.22869220353E+02  0.68413312444E+01  0.40659080060E+02  0.00000000000E+00 0. -1.
         11    1    3    3    0    0  0.19298697064E+02 -0.14780143545E+01 -0.11454088363E+02  0.22490450758E+02  0.51100000000E-03 0. -1.
        -11    1    3    3    0    0  0.12299073372E+02 -0.17374263090E+02  0.78770719216E+01  0.22697587670E+02  0.51100000000E-03 0.  1.
        -12    1    3    3    0    0  0.13165993522E+01 -0.40169429092E+01 -0.32643148035E+01  0.53408815121E+01  0.00000000000E+00 0.  1.
</event>
<event>
 7    1  0.2900470E-011  0.5052885E+02  0.7816164E-02  0.1300439E+00
        -11   -1    0    0    0    0  0.00000000000E+00  0.00000000000E+00  0.45593999997E+02  0.45594000000E+02  0.51100000000E-03 0.  1.
         11   -1    0    0    0    0 -0.00000000000E+00 -0.00000000000E+00 -0.45593999997E+02  0.45594000000E+02  0.51100000000E-03 0. -1.
    9900012    2    1    2    0    0  0.17101025239E+02 -0.36841012789E+02  0.18604468864E+01  0.50528849121E+02  0.29999967390E+02 0.  0.
         12    1    1    2    0    0 -0.17101025239E+02  0.36841012789E+02 -0.18604468864E+01  0.40659150879E+02  0.00000000000E+00 0. -1.
         11    1    3    3    0    0  0.88207528671E+01 -0.51389069401E+01 -0.19490631944E+01  0.10392925155E+02  0.51100000000E-03 0. -1.
        -11    1    3    3    0    0 -0.32543950396E+01 -0.93220459906E+01  0.10162326452E+02  0.14169139271E+02  0.51100000000E-03 0.  1.
        -12    1    3    3    0    0  0.11534667412E+02 -0.22380059858E+02 -0.63528163707E+01  0.25966784695E+02  0.00000000000E+00 0.  1.
</event>
<event>
 7    1  0.2900470E-011  0.5052887E+02  0.7816164E-02  0.1300439E+00
        -11   -1    0    0    0    0  0.00000000000E+00  0.00000000000E+00  0.45593999997E+02  0.45594000000E+02  0.51100000000E-03 0.  1.
         11   -1    0    0    0    0 -0.00000000000E+00 -0.00000000000E+00 -0.45593999997E+02  0.45594000000E+02  0.51100000000E-03 0. -1.
    9900012    2    1    2    0    0 -0.11168524281E+02 -0.35243542026E+02  0.16921036880E+02  0.50528872141E+02  0.30000037360E+02 0.  0.
         12    1    1    2    0    0  0.11168524281E+02  0.35243542026E+02 -0.16921036880E+02  0.40659127859E+02  0.00000000000E+00 0. -1.
         11    1    3    3    0    0 -0.64346697522E-01 -0.46352670973E+01  0.13912051072E+02  0.14664071974E+02  0.51100000000E-03 0. -1.
        -11    1    3    3    0    0 -0.95828367173E+01 -0.17539459927E+02  0.83556204311E+01  0.21662867011E+02  0.51100000000E-03 0.  1.
         12    1    3    3    0    0 -0.15213408659E+01 -0.13068815001E+02 -0.53466346229E+01  0.14201933156E+02  0.00000000000E+00 0. -1.
</event>
<event>
 7    1  0.2900470E-011  0.5052885E+02  0.7816164E-02  0.1300439E+00
        -11   -1    0    0    0    0  0.00000000000E+00  0.00000000000E+00  0.45593999997E+02  0.45594000000E+02  0.51100000000E-03 0.  1.
         11   -1    0    0    0    0 -0.00000000000E+00 -0.00000000000E+00 -0.45593999997E+02  0.45594000000E+02  0.51100000000E-03 0. -1.
    9900012    2    1    2    0    0 -0.39637416026E+02  0.87694766305E+01  0.22666978536E+01  0.50528851107E+02  0.29999973424E+02 0.  0.
         12    1    1    2    0    0  0.39637416026E+02 -0.87694766305E+01 -0.22666978536E+01  0.40659148893E+02  0.00000000000E+00 0. -1.
         11    1    3    3    0    0 -0.21128811371E+01 -0.44879314708E+01 -0.52778255454E+01  0.72430130702E+01  0.51100000000E-03 0. -1.
        -11    1    3    3    0    0 -0.38433905966E+02  0.14503234536E+02  0.73405373394E+01  0.41729994351E+02  0.51100000000E-03 0.  1.
        -12    1    3    3    0    0  0.90937107766E+00 -0.12458264345E+01  0.20398605962E+00  0.15558436857E+01  0.00000000000E+00 0.  1.
</event>
<event>
 7    1  0.2900470E-011  0.5052886E+02  0.7816164E-02  0.1300439E+00
        -11   -1    0    0    0    0  0.00000000000E+00  0.00000000000E+00  0.45593999997E+02  0.45594000000E+02  0.51100000000E-03 0.  1.
         11   -1    0    0    0    0 -0.00000000000E+00 -0.00000000000E+00 -0.45593999997E+02  0.45594000000E+02  0.51100000000E-03 0. -1.
    9900012    2    1    2    0    0  0.86822468525E+01  0.33697340945E+02  0.21030298784E+02  0.50528860017E+02  0.30000000509E+02 0.  0.
         12    1    1    2    0    0 -0.86822468525E+01 -0.33697340945E+02 -0.21030298784E+02  0.40659139983E+02  0.00000000000E+00 0. -1.
         11    1    3    3    0    0  0.73498490314E+01  0.34586135585E+01  0.10989084975E+02  0.13665367810E+02  0.51100000000E-03 0. -1.
        -11    1    3    3    0    0  0.30381142280E+01  0.22609441400E+02 -0.15690827048E+01  0.22866547603E+02  0.51100000000E-03 0.  1.
        -12    1    3    3    0    0 -0.17057164070E+01  0.76292859866E+01  0.11610296513E+02  0.13996944604E+02  0.00000000000E+00 0.  1.
</event>
<event>
 7    1  0.2900470E-011  0.5052885E+02  0.7816164E-02  0.1300439E+00
        -11   -1    0    0    0    0  0.00000000000E+00  0.00000000000E+00  0.45593999997E+02  0.45594000000E+02  0.51100000000E-03 0. -1.
         11   -1    0    0    0    0 -0.00000000000E+00 -0.00000000000E+00 -0.45593999997E+02  0.45594000000E+02  0.51100000000E-03 0.  1.
    9900012    2    1    2    0    0  0.38638049162E+02  0.11244522346E+02 -0.58162019107E+01  0.50528851823E+02  0.29999975600E+02 0.  0.
         12    1    1    2    0    0 -0.38638049162E+02 -0.11244522346E+02  0.58162019107E+01  0.40659148177E+02  0.00000000000E+00 0. -1.
         11    1    3    3    0    0  0.24111572335E+02  0.12759598782E+02  0.51554234570E+01  0.27762450771E+02  0.51100000000E-03 0. -1.
        -11    1    3    3    0    0 -0.24830482549E+01  0.10781256832E+01 -0.19696402426E+01  0.33477405173E+01  0.51100000000E-03 0.  1.
         12    1    3    3    0    0  0.17009525082E+02 -0.25932021191E+01 -0.90019851251E+01  0.19418660534E+02  0.00000000000E+00 0. -1.
</event>
<event>
 7    1  0.2900470E-011  0.5052885E+02  0.7816164E-02  0.1300439E+00
        -11   -1    0    0    0    0  0.00000000000E+00  0.00000000000E+00  0.45593999997E+02  0.45594000000E+02  0.51100000000E-03 0. -1.
         11   -1    0    0    0    0 -0.00000000000E+00 -0.00000000000E+00 -0.45593999997E+02  0.45594000000E+02  0.51100000000E-03 0.  1.
    9900012    2    1    2    0    0  0.16888664716E+02  0.34428322600E+02 -0.13514055891E+02  0.50528854663E+02  0.29999984232E+02 0.  0.
         12    1    1    2    0    0 -0.16888664716E+02 -0.34428322600E+02  0.13514055891E+02  0.40659145337E+02  0.00000000000E+00 0. -1.
         11    1    3    3    0    0  0.12766379044E+02 -0.60841295061E+00 -0.41975137419E+01  0.13452498730E+02  0.51100000000E-03 0. -1.
        -11    1    3    3    0    0  0.22926939321E+01  0.30260881169E+02 -0.99171336287E+01  0.31926899541E+02  0.51100000000E-03 0.  1.
         12    1    3    3    0    0  0.18295917401E+01  0.47758543815E+01  0.60059147951E+00  0.51494563921E+01  0.00000000000E+00 0. -1.
</event>
<event>
 7    1  0.2900470E-011  0.5052887E+02  0.7816164E-02  0.1300439E+00
        -11   -1    0    0    0    0  0.00000000000E+00  0.00000000000E+00  0.45593999997E+02  0.45594000000E+02  0.51100000000E-03 0. -1.
         11   -1    0    0    0    0 -0.00000000000E+00 -0.00000000000E+00 -0.45593999997E+02  0.45594000000E+02  0.51100000000E-03 0.  1.
    9900012    2    1    2    0    0 -0.71010163298E+01  0.88849691878E+01 -0.39035856729E+02  0.50528865468E+02  0.30000017076E+02 0.  0.
         12    1    1    2    0    0  0.71010163298E+01 -0.88849691878E+01  0.39035856729E+02  0.40659134532E+02  0.00000000000E+00 0. -1.
         11    1    3    3    0    0 -0.63238764908E+01 -0.73299842145E+01 -0.43093611787E+01  0.10596729518E+02  0.51100000000E-03 0.  1.
        -11    1    3    3    0    0 -0.53203165571E+01  0.41945187463E+01 -0.13837516336E+02  0.15407031330E+02  0.51100000000E-03 0. -1.
         12    1    3    3    0    0  0.45431767182E+01  0.12020434656E+02 -0.20888979214E+02  0.24525104620E+02  0.00000000000E+00 0. -1.
</event>
<event>
 7    1  0.2900470E-011  0.5052886E+02  0.7816164E-02  0.1300439E+00
        -11   -1    0    0    0    0  0.00000000000E+00  0.00000000000E+00  0.45593999997E+02  0.45594000000E+02  0.51100000000E-03 0.  1.
         11   -1    0    0    0    0 -0.00000000000E+00 -0.00000000000E+00 -0.45593999997E+02  0.45594000000E+02  0.51100000000E-03 0. -1.
    9900012    2    1    2    0    0  0.16717562072E+02 -0.60035202316E+01  0.36573850603E+02  0.50528859764E+02  0.29999999738E+02 0.  0.
         12    1    1    2    0    0 -0.16717562072E+02  0.60035202316E+01 -0.36573850603E+02  0.40659140236E+02  0.00000000000E+00 0. -1.
         11    1    3    3    0    0  0.22663379348E+02 -0.13720481055E+01  0.19880610343E+02  0.30178633954E+02  0.51100000000E-03 0. -1.
        -11    1    3    3    0    0 -0.28933091663E+01 -0.59773814266E+01  0.15402611620E+02  0.16773215900E+02  0.51100000000E-03 0.  1.
        -12    1    3    3    0    0 -0.30525081097E+01  0.13459093005E+01  0.12906286404E+01  0.35770099095E+01  0.00000000000E+00 0.  1.
</event>
<event>
 7    1  0.2900470E-011  0.5052888E+02  0.7816164E-02  0.1300439E+00
        -11   -1    0    0    0    0  0.00000000000E+00  0.00000000000E+00  0.45593999997E+02  0.45594000000E+02  0.51100000000E-03 0.  1.
         11   -1    0    0    0    0 -0.00000000000E+00 -0.00000000000E+00 -0.45593999997E+02  0.45594000000E+02  0.51100000000E-03 0. -1.
    9900012    2    1    2    0    0  0.55814357944E+01  0.18113309736E+02  0.35971089370E+02  0.50528884348E+02  0.30000074464E+02 0.  0.
         12    1    1    2    0    0 -0.55814357944E+01 -0.18113309736E+02 -0.35971089370E+02  0.40659115652E+02  0.00000000000E+00 0. -1.
         11    1    3    3    0    0  0.36164227317E+01  0.75919052800E+01  0.15826717335E+02  0.17922067990E+02  0.51100000000E-03 0.  1.
        -11    1    3    3    0    0  0.28298556566E+01  0.11339757485E+02 -0.71888642052E+00  0.11709610617E+02  0.51100000000E-03 0. -1.
        -12    1    3    3    0    0 -0.86484259394E+00 -0.81835302901E+00  0.20863258456E+02  0.20897205741E+02  0.00000000000E+00 0.  1.
</event>
<event>
 7    1  0.2900470E-011  0.5052886E+02  0.7816164E-02  0.1300439E+00
        -11   -1    0    0    0    0  0.00000000000E+00  0.00000000000E+00  0.45593999997E+02  0.45594000000E+02  0.51100000000E-03 0. -1.
         11   -1    0    0    0    0 -0.00000000000E+00 -0.00000000000E+00 -0.45593999997E+02  0.45594000000E+02  0.51100000000E-03 0.  1.
    9900012    2    1    2    0    0 -0.17443526878E+02 -0.29669405459E+02 -0.21647527261E+02  0.50528859739E+02  0.29999999662E+02 0.  0.
         12    1    1    2    0    0  0.17443526878E+02  0.29669405459E+02  0.21647527261E+02  0.40659140261E+02  0.00000000000E+00 0. -1.
         11    1    3    3    0    0 -0.11118541471E+02 -0.17760429613E+02  0.92337123421E+00  0.20973970515E+02  0.51100000000E-03 0. -1.
        -11    1    3    3    0    0 -0.52522758224E+01 -0.13978018960E+02 -0.22755117073E+02  0.27217030856E+02  0.51100000000E-03 0.  1.
        -12    1    3    3    0    0 -0.10727095854E+01  0.20690431141E+01  0.18421857712E+00  0.23378583675E+01  0.00000000000E+00 0.  1.
</event>
<event>
 7    1  0.2900470E-011  0.5052886E+02  0.7816164E-02  0.1300439E+00
        -11   -1    0    0    0    0  0.00000000000E+00  0.00000000000E+00  0.45593999997E+02  0.45594000000E+02  0.51100000000E-03 0. -1.
         11   -1    0    0    0    0 -0.00000000000E+00 -0.00000000000E+00 -0.45593999997E+02  0.45594000000E+02  0.51100000000E-03 0.  1.
    9900012    2    1    2    0    0  0.13642884889E+02  0.36768435530E+02 -0.10729383423E+02  0.50528858002E+02  0.29999994382E+02 0.  0.
         12    1    1    2    0    0 -0.13642884889E+02 -0.36768435530E+02  0.10729383423E+02  0.40659141998E+02  0.00000000000E+00 0. -1.
         11    1    3    3    0    0  0.16871839292E+02  0.21513069430E+02 -0.14714967800E+02  0.31048371857E+02  0.51100000000E-03 0. -1.
        -11    1    3    3    0    0  0.38319236244E+01  0.82185976866E+01  0.24608443930E+01  0.93959960614E+01  0.51100000000E-03 0.  1.
         12    1    3    3    0    0 -0.70608780272E+01  0.70367684133E+01  0.15247399839E+01  0.10084490083E+02  0.00000000000E+00 0. -1.
</event>
<event>
 7    1  0.2900470E-011  0.5052886E+02  0.7816164E-02  0.1300439E+00
        -11   -1    0    0    0    0  0.00000000000E+00  0.00000000000E+00  0.45593999997E+02  0.45594000000E+02  0.51100000000E-03 0. -1.
         11   -1    0    0    0    0 -0.00000000000E+00 -0.00000000000E+00 -0.45593999997E+02  0.45594000000E+02  0.51100000000E-03 0.  1.
    9900012    2    1    2    0    0 -0.30729954815E+02  0.70011271568E+01 -0.25686953551E+02  0.50528862193E+02  0.30000007123E+02 0.  0.
         12    1    1    2    0    0  0.30729954815E+02 -0.70011271568E+01  0.25686953551E+02  0.40659137807E+02  0.00000000000E+00 0. -1.
         11    1    3    3    0    0 -0.10103478592E+02 -0.85021853140E+01 -0.80710507347E+00  0.13229469136E+02  0.51100000000E-03 0. -1.
        -11    1    3    3    0    0 -0.13848397868E+02  0.11362742569E+02 -0.22971950670E+02  0.29130749390E+02  0.51100000000E-03 0.  1.
         12    1    3    3    0    0 -0.67780783557E+01  0.41405699016E+01 -0.19078978079E+01  0.81686436665E+01  0.00000000000E+00 0. -1.
</event>
<event>
 7    1  0.2900470E-011  0.5052886E+02  0.7816164E-02  0.1300439E+00
        -11   -1    0    0    0    0  0.00000000000E+00  0.00000000000E+00  0.45593999997E+02  0.45594000000E+02  0.51100000000E-03 0. -1.
         11   -1    0    0    0    0 -0.00000000000E+00 -0.00000000000E+00 -0.45593999997E+02  0.45594000000E+02  0.51100000000E-03 0.  1.
    9900012    2    1    2    0    0 -0.87561259816E+01  0.52520288924E+01 -0.39356220393E+02  0.50528860396E+02  0.30000001660E+02 0.  0.
         12    1    1    2    0    0  0.87561259816E+01 -0.52520288924E+01  0.39356220393E+02  0.40659139604E+02  0.00000000000E+00 0. -1.
         11    1    3    3    0    0  0.25099316654E+01 -0.37938185251E+01 -0.23820052423E+01  0.51348578560E+01  0.51100000000E-03 0. -1.
        -11    1    3    3    0    0 -0.16674622950E+02  0.98242273270E+01 -0.21225290069E+02  0.28724056674E+02  0.51100000000E-03 0.  1.
        -12    1    3    3    0    0  0.54085653026E+01 -0.77837990953E+00 -0.15748925082E+02  0.16669945866E+02  0.00000000000E+00 0.  1.
</event>
<event>
 7    1  0.2900470E-011  0.5052886E+02  0.7816164E-02  0.1300439E+00
        -11   -1    0    0    0    0  0.00000000000E+00  0.00000000000E+00  0.45593999997E+02  0.45594000000E+02  0.51100000000E-03 0. -1.
         11   -1    0    0    0    0 -0.00000000000E+00 -0.00000000000E+00 -0.45593999997E+02  0.45594000000E+02  0.51100000000E-03 0.  1.
    9900012    2    1    2    0    0 -0.13262765439E+02 -0.38421565382E+02 -0.10238140960E+01  0.50528857992E+02  0.29999994353E+02 0.  0.
         12    1    1    2    0    0  0.13262765439E+02  0.38421565382E+02  0.10238140960E+01  0.40659142008E+02  0.00000000000E+00 0. -1.
         11    1    3    3    0    0 -0.52016954824E+01 -0.29927834645E+02  0.54448741653E+01  0.30860647714E+02  0.51100000000E-03 0. -1.
        -11    1    3    3    0    0 -0.11480391054E+02 -0.26189275392E+01 -0.42122512775E+01  0.12506047389E+02  0.51100000000E-03 0.  1.
        -12    1    3    3    0    0  0.34193210973E+01 -0.58748031984E+01 -0.22564369838E+01  0.71621628890E+01  0.00000000000E+00 0.  1.
</event>
<event>
 7    1  0.2900470E-011  0.5052886E+02  0.7816164E-02  0.1300439E+00
        -11   -1    0    0    0    0  0.00000000000E+00  0.00000000000E+00  0.45593999997E+02  0.45594000000E+02  0.51100000000E-03 0.  1.
         11   -1    0    0    0    0 -0.00000000000E+00 -0.00000000000E+00 -0.45593999997E+02  0.45594000000E+02  0.51100000000E-03 0. -1.
    9900012    2    1    2    0    0  0.12312944302E+02  0.38181931982E+02  0.66103922222E+01  0.50528858192E+02  0.29999994959E+02 0.  0.
         12    1    1    2    0    0 -0.12312944302E+02 -0.38181931982E+02 -0.66103922222E+01  0.40659141808E+02  0.00000000000E+00 0. -1.
         11    1    3    3    0    0  0.38698901076E+00  0.72233967465E+01 -0.90849478816E+01  0.11613074499E+02  0.51100000000E-03 0. -1.
        -11    1    3    3    0    0  0.98971644086E+01  0.31450373926E+02  0.12849301608E+02  0.35386218158E+02  0.51100000000E-03 0.  1.
        -12    1    3    3    0    0  0.20287908827E+01 -0.49183869097E+00  0.28460384957E+01  0.35295655345E+01  0.00000000000E+00 0.  1.
</event>
<event>
 7    1  0.2900470E-011  0.5052886E+02  0.7816164E-02  0.1300439E+00
        -11   -1    0    0    0    0  0.00000000000E+00  0.00000000000E+00  0.45593999997E+02  0.45594000000E+02  0.51100000000E-03 0.  1.
         11   -1    0    0    0    0 -0.00000000000E+00 -0.00000000000E+00 -0.45593999997E+02  0.45594000000E+02  0.51100000000E-03 0. -1.
    9900012    2    1    2    0    0 -0.12441829968E+02  0.69307080400E+01  0.38083220562E+02  0.50528861602E+02  0.30000005326E+02 0.  0.
         12    1    1    2    0    0  0.12441829968E+02 -0.69307080400E+01 -0.38083220562E+02  0.40659138398E+02  0.00000000000E+00 0. -1.
         11    1    3    3    0    0  0.25458771034E+01 -0.43247298804E+01 -0.14359895192E+01  0.52198510443E+01  0.51100000000E-03 0. -1.
        -11    1    3    3    0    0 -0.11309633783E+02  0.71066375831E+01  0.14632528402E+02  0.19812193259E+02  0.51100000000E-03 0.  1.
         12    1    3    3    0    0 -0.36780732877E+01  0.41488003373E+01  0.24886681679E+02  0.25496817298E+02  0.00000000000E+00 0. -1.
</event>
<event>
 7    1  0.2900470E-011  0.5052886E+02  0.7816164E-02  0.1300439E+00
        -11   -1    0    0    0    0  0.00000000000E+00  0.00000000000E+00  0.45593999997E+02  0.45594000000E+02  0.51100000000E-03 0.  1.
         11   -1    0    0    0    0 -0.00000000000E+00 -0.00000000000E+00 -0.45593999997E+02  0.45594000000E+02  0.51100000000E-03 0. -1.
    9900012    2    1    2    0    0 -0.19188389797E+02  0.18297315724E+02  0.30824983034E+02  0.50528860256E+02  0.30000001234E+02 0.  0.
         12    1    1    2    0    0  0.19188389797E+02 -0.18297315724E+02 -0.30824983034E+02  0.40659139744E+02  0.00000000000E+00 0. -1.
         11    1    3    3    0    0 -0.11141589492E+02 -0.53187686372E+01  0.76030459511E+01  0.14499331855E+02  0.51100000000E-03 0. -1.
        -11    1    3    3    0    0 -0.15749833199E+01  0.58331221956E+01  0.13420522931E+02  0.14717891256E+02  0.51100000000E-03 0.  1.
         12    1    3    3    0    0 -0.64718169844E+01  0.17782962165E+02  0.98014141518E+01  0.21311637146E+02  0.00000000000E+00 0. -1.
</event>
<event>
 7    1  0.2900470E-011  0.5052885E+02  0.7816164E-02  0.1300439E+00
        -11   -1    0    0    0    0  0.00000000000E+00  0.00000000000E+00  0.45593999997E+02  0.45594000000E+02  0.51100000000E-03 0.  1.
         11   -1    0    0    0    0 -0.00000000000E+00 -0.00000000000E+00 -0.45593999997E+02  0.45594000000E+02  0.51100000000E-03 0. -1.
    9900012    2    1    2    0    0 -0.36955575646E+02 -0.13585128640E+00  0.16953864509E+02  0.50528849139E+02  0.29999967444E+02 0.  0.
         12    1    1    2    0    0  0.36955575646E+02  0.13585128640E+00 -0.16953864509E+02  0.40659150861E+02  0.00000000000E+00 0. -1.
         11    1    3    3    0    0 -0.63677726793E+01  0.12309810661E+02  0.16084894173E+01  0.13952319014E+02  0.51100000000E-03 0. -1.
        -11    1    3    3    0    0 -0.20909660833E+02 -0.69046860822E+01  0.10911187334E+02  0.24575243953E+02  0.51100000000E-03 0.  1.
         12    1    3    3    0    0 -0.96781421341E+01 -0.55409758655E+01  0.44341877572E+01  0.12001286172E+02  0.00000000000E+00 0. -1.
</event>
<event>
 7    1  0.2900470E-011  0.5052887E+02  0.7816164E-02  0.1300439E+00
        -11   -1    0    0    0    0  0.00000000000E+00  0.00000000000E+00  0.45593999997E+02  0.45594000000E+02  0.51100000000E-03 0. -1.
         11   -1    0    0    0    0 -0.00000000000E+00 -0.00000000000E+00 -0.45593999997E+02  0.45594000000E+02  0.51100000000E-03 0.  1.
    9900012    2    1    2    0    0  0.67992731730E+01  0.29147428250E+02 -0.27520217278E+02  0.50528867591E+02  0.30000023529E+02 0.  0.
         12    1    1    2    0    0 -0.67992731730E+01 -0.29147428250E+02  0.27520217278E+02  0.40659132409E+02  0.00000000000E+00 0. -1.
         11    1    3    3    0    0 -0.71588041112E+01  0.38602782244E+01 -0.47501859774E+01  0.94188370489E+01  0.51100000000E-03 0. -1.
        -11    1    3    3    0    0  0.10014482012E+02  0.27761266254E+02 -0.18800106058E+02  0.34991738197E+02  0.51100000000E-03 0.  1.
        -12    1    3    3    0    0  0.39435952727E+01 -0.24741162288E+01 -0.39699252426E+01  0.61182923451E+01  0.00000000000E+00 0.  1.
</event>
<event>
 7    1  0.2900470E-011  0.5052890E+02  0.7816164E-02  0.1300439E+00
        -11   -1    0    0    0    0  0.00000000000E+00  0.00000000000E+00  0.45593999997E+02  0.45594000000E+02  0.51100000000E-03 0.  1.
         11   -1    0    0    0    0 -0.00000000000E+00 -0.00000000000E+00 -0.45593999997E+02  0.45594000000E+02  0.51100000000E-03 0. -1.
    9900012    2    1    2    0    0  0.20635077655E+02  0.26807592678E+02  0.22554568709E+02  0.50528904773E+02  0.30000136547E+02 0.  0.
         12    1    1    2    0    0 -0.20635077655E+02 -0.26807592678E+02 -0.22554568709E+02  0.40659095227E+02  0.00000000000E+00 0. -1.
         11    1    3    3    0    0  0.94931553756E+01 -0.85309833491E+00  0.32763012082E+01  0.10078785920E+02  0.51100000000E-03 0. -1.
        -11    1    3    3    0    0  0.16000685543E+01  0.20823084426E+02  0.19691623559E+02  0.28704025903E+02  0.51100000000E-03 0.  1.
        -12    1    3    3    0    0  0.95418537250E+01  0.68376065869E+01 -0.41335605781E+00  0.11746092949E+02  0.00000000000E+00 0.  1.
</event>
<event>
 7    1  0.2900470E-011  0.5052885E+02  0.7816164E-02  0.1300439E+00
        -11   -1    0    0    0    0  0.00000000000E+00  0.00000000000E+00  0.45593999997E+02  0.45594000000E+02  0.51100000000E-03 0.  1.
         11   -1    0    0    0    0 -0.00000000000E+00 -0.00000000000E+00 -0.45593999997E+02  0.45594000000E+02  0.51100000000E-03 0. -1.
    9900012    2    1    2    0    0 -0.39162776531E+02  0.10181119075E+02 -0.39734637294E+01  0.50528847706E+02  0.29999963087E+02 0.  0.
         12    1    1    2    0    0  0.39162776531E+02 -0.10181119075E+02  0.39734637294E+01  0.40659152294E+02  0.00000000000E+00 0. -1.
         11    1    3    3    0    0 -0.17028974157E+01 -0.41616681676E+01 -0.23012897466E+01  0.50512648223E+01  0.51100000000E-03 0. -1.
        -11    1    3    3    0    0 -0.35865253668E+02  0.17405955780E+02  0.26398721164E+01  0.39953130570E+02  0.51100000000E-03 0.  1.
        -12    1    3    3    0    0 -0.15946254479E+01 -0.30631685375E+01 -0.43120460992E+01  0.55244523140E+01  0.00000000000E+00 0.  1.
</event>
<event>
 7    1  0.2900470E-011  0.5052887E+02  0.7816164E-02  0.1300439E+00
        -11   -1    0    0    0    0  0.00000000000E+00  0.00000000000E+00  0.45593999997E+02  0.45594000000E+02  0.51100000000E-03 0.  1.
         11   -1    0    0    0    0 -0.00000000000E+00 -0.00000000000E+00 -0.45593999997E+02  0.45594000000E+02  0.51100000000E-03 0. -1.
    9900012    2    1    2    0    0 -0.70687334675E+01  0.19942279665E+02  0.34720363954E+02  0.50528865920E+02  0.30000018450E+02 0.  0.
         12    1    1    2    0    0  0.70687334675E+01 -0.19942279665E+02 -0.34720363954E+02  0.40659134080E+02  0.00000000000E+00 0. -1.
         11    1    3    3    0    0  0.13472447615E+01 -0.42580665180E+01  0.76849649619E+01  0.88884692521E+01  0.51100000000E-03 0. -1.
        -11    1    3    3    0    0 -0.77874763125E+01  0.19396870273E+02  0.29539907789E+02  0.36186869388E+02  0.51100000000E-03 0.  1.
        -12    1    3    3    0    0 -0.62850191654E+00  0.48034759099E+01 -0.25045087968E+01  0.54535272796E+01  0.00000000000E+00 0.  1.
</event>
<event>
 7    1  0.2900470E-011  0.5052887E+02  0.7816164E-02  0.1300439E+00
        -11   -1    0    0    0    0  0.00000000000E+00  0.00000000000E+00  0.45593999997E+02  0.45594000000E+02  0.51100000000E-03 0.  1.
         11   -1    0    0    0    0 -0.00000000000E+00 -0.00000000000E+00 -0.45593999997E+02  0.45594000000E+02  0.51100000000E-03 0. -1.
    9900012    2    1    2    0    0 -0.11922378910E+02  0.26723525989E+02  0.28228971848E+02  0.50528870499E+02  0.30000032369E+02 0.  0.
         12    1    1    2    0    0  0.11922378910E+02 -0.26723525989E+02 -0.28228971848E+02  0.40659129501E+02  0.00000000000E+00 0. -1.
         11    1    3    3    0    0 -0.49584450358E+01  0.25479665253E+02  0.18635415052E+02  0.31954314466E+02  0.51100000000E-03 0. -1.
        -11    1    3    3    0    0 -0.43629038494E+01 -0.36673559406E+00  0.13163820809E+02  0.13872836896E+02  0.51100000000E-03 0.  1.
        -12    1    3    3    0    0 -0.26010300244E+01  0.16105963306E+01 -0.35702640125E+01  0.47017191373E+01  0.00000000000E+00 0.  1.
</event>
<event>
 7    1  0.2900470E-011  0.5052886E+02  0.7816164E-02  0.1300439E+00
        -11   -1    0    0    0    0  0.00000000000E+00  0.00000000000E+00  0.45593999997E+02  0.45594000000E+02  0.51100000000E-03 0.  1.
         11   -1    0    0    0    0 -0.00000000000E+00 -0.00000000000E+00 -0.45593999997E+02  0.45594000000E+02  0.51100000000E-03 0. -1.
    9900012    2    1    2    0    0  0.39049150634E+02  0.47191508791E+01  0.10298508574E+02  0.50528857988E+02  0.29999994341E+02 0.  0.
         12    1    1    2    0    0 -0.39049150634E+02 -0.47191508791E+01 -0.10298508574E+02  0.40659142012E+02  0.00000000000E+00 0. -1.
         11    1    3    3    0    0  0.65710074837E+01  0.27562438541E+01  0.12295278704E+02  0.14210872535E+02  0.51100000000E-03 0.  1.
        -11    1    3    3    0    0  0.18752514559E+02 -0.62592667262E+01 -0.40704856494E+01  0.20184253167E+02  0.51100000000E-03 0. -1.
        -12    1    3    3    0    0  0.13725628592E+02  0.82221737513E+01  0.20737155193E+01  0.16133732287E+02  0.00000000000E+00 0.  1.
</event>
<event>
 7    1  0.2900470E-011  0.5052885E+02  0.7816164E-02  0.1300439E+00
        -11   -1    0    0    0    0  0.00000000000E+00  0.00000000000E+00  0.45593999997E+02  0.45594000000E+02  0.51100000000E-03 0.  1.
         11   -1    0    0    0    0 -0.00000000000E+00 -0.00000000000E+00 -0.45593999997E+02  0.45594000000E+02  0.51100000000E-03 0. -1.
    9900012    2    1    2    0    0 -0.38551635822E+02  0.56787475106E+01  0.11605582425E+02  0.50528851691E+02  0.29999975198E+02 0.  0.
         12    1    1    2    0    0  0.38551635822E+02 -0.56787475106E+01 -0.11605582425E+02  0.40659148309E+02  0.00000000000E+00 0. -1.
         11    1    3    3    0    0  0.23703366057E+01 -0.50572482264E+01 -0.13869984146E+01  0.57548258107E+01  0.51100000000E-03 0. -1.
        -11    1    3    3    0    0 -0.12947396067E+02  0.56272763253E+01  0.18774054811E+01  0.14241697770E+02  0.51100000000E-03 0.  1.
         12    1    3    3    0    0 -0.27974576360E+02  0.51087194117E+01  0.11115175359E+02  0.30532328110E+02  0.00000000000E+00 0. -1.
</event>
<event>
 7    1  0.2900470E-011  0.5052886E+02  0.7816164E-02  0.1300439E+00
        -11   -1    0    0    0    0  0.00000000000E+00  0.00000000000E+00  0.45593999997E+02  0.45594000000E+02  0.51100000000E-03 0. -1.
         11   -1    0    0    0    0 -0.00000000000E+00 -0.00000000000E+00 -0.45593999997E+02  0.45594000000E+02  0.51100000000E-03 0.  1.
    9900012    2    1    2    0    0 -0.15320768775E+02  0.37515129349E+02 -0.33248140410E+01  0.50528864811E+02  0.30000015080E+02 0.  0.
         12    1    1    2    0    0  0.15320768775E+02 -0.37515129349E+02  0.33248140410E+01  0.40659135189E+02  0.00000000000E+00 0. -1.
         11    1    3    3    0    0 -0.16622753031E+01  0.16905267836E+02  0.28428745893E+01  0.17223042007E+02  0.51100000000E-03 0. -1.
        -11    1    3    3    0    0 -0.19450012272E+02  0.14413872135E+02 -0.38442643142E+01  0.24512059392E+02  0.51100000000E-03 0.  1.
        -12    1    3    3    0    0  0.57915188001E+01  0.61959893779E+01 -0.23234243161E+01  0.87937634115E+01  0.00000000000E+00 0.  1.
</event>
<event>
 7    1  0.2900470E-011  0.5052884E+02  0.7816164E-02  0.1300439E+00
        -11   -1    0    0    0    0  0.00000000000E+00  0.00000000000E+00  0.45593999997E+02  0.45594000000E+02  0.51100000000E-03 0.  1.
         11   -1    0    0    0    0 -0.00000000000E+00 -0.00000000000E+00 -0.45593999997E+02  0.45594000000E+02  0.51100000000E-03 0. -1.
    9900012    2    1    2    0    0 -0.37344390878E+02  0.16210527964E+01  0.15998010148E+02  0.50528835339E+02  0.29999925497E+02 0.  0.
         12    1    1    2    0    0  0.37344390878E+02 -0.16210527964E+01 -0.15998010148E+02  0.40659164661E+02  0.00000000000E+00 0. -1.
         11    1    3    3    0    0  0.26946983268E+01 -0.10239074867E+01  0.20324099014E+01  0.35271058791E+01  0.51100000000E-03 0. -1.
        -11    1    3    3    0    0 -0.39689409053E+02  0.64083739824E+01  0.98072448111E+01  0.41382345258E+02  0.51100000000E-03 0.  1.
        -12    1    3    3    0    0 -0.34968015243E+00 -0.37634136993E+01  0.41583554351E+01  0.56193842016E+01  0.00000000000E+00 0.  1.
</event>
<event>
 7    1  0.2900470E-011  0.5052889E+02  0.7816164E-02  0.1300439E+00
        -11   -1    0    0    0    0  0.00000000000E+00  0.00000000000E+00  0.45593999997E+02  0.45594000000E+02  0.51100000000E-03 0. -1.
         11   -1    0    0    0    0 -0.00000000000E+00 -0.00000000000E+00 -0.45593999997E+02  0.45594000000E+02  0.51100000000E-03 0.  1.
    9900012    2    1    2    0    0  0.14817496080E+01  0.33317032991E+02 -0.23258176038E+02  0.50528892511E+02  0.30000099275E+02 0.  0.
         12    1    1    2    0    0 -0.14817496080E+01 -0.33317032991E+02  0.23258176038E+02  0.40659107489E+02  0.00000000000E+00 0. -1.
         11    1    3    3    0    0  0.18155878079E+01 -0.38326835392E+01  0.13194092498E+01  0.44414708408E+01  0.51100000000E-03 0. -1.
        -11    1    3    3    0    0 -0.34769981141E+01  0.16855215442E+02 -0.55280305622E+01  0.18076142443E+02  0.51100000000E-03 0.  1.
         12    1    3    3    0    0  0.31431599143E+01  0.20294501088E+02 -0.19049554726E+02  0.28011279227E+02  0.00000000000E+00 0. -1.
</event>
<event>
 7    1  0.2900470E-011  0.5052887E+02  0.7816164E-02  0.1300439E+00
        -11   -1    0    0    0    0  0.00000000000E+00  0.00000000000E+00  0.45593999997E+02  0.45594000000E+02  0.51100000000E-03 0. -1.
         11   -1    0    0    0    0 -0.00000000000E+00 -0.00000000000E+00 -0.45593999997E+02  0.45594000000E+02  0.51100000000E-03 0.  1.
    9900012    2    1    2    0    0 -0.38859107961E+02 -0.11766507710E+02  0.21642878073E+01  0.50528866747E+02  0.30000020963E+02 0.  0.
         12    1    1    2    0    0  0.38859107961E+02  0.11766507710E+02 -0.21642878073E+01  0.40659133253E+02  0.00000000000E+00 0. -1.
         11    1    3    3    0    0 -0.10758307131E+01 -0.60034589874E+00 -0.64624313809E+01  0.65788180197E+01  0.51100000000E-03 0. -1.
        -11    1    3    3    0    0 -0.35424142700E+02 -0.70782480367E+01  0.24925988420E+01  0.36210282111E+02  0.51100000000E-03 0.  1.
         12    1    3    3    0    0 -0.23591345474E+01 -0.40879137746E+01  0.61341203462E+01  0.77397666156E+01  0.00000000000E+00 0. -1.
</event>
<event>
 7    1  0.2900470E-011  0.5052886E+02  0.7816164E-02  0.1300439E+00
        -11   -1    0    0    0    0  0.00000000000E+00  0.00000000000E+00  0.45593999997E+02  0.45594000000E+02  0.51100000000E-03 0.  1.
         11   -1    0    0    0    0 -0.00000000000E+00 -0.00000000000E+00 -0.45593999997E+02  0.45594000000E+02  0.51100000000E-03 0. -1.
    9900012    2    1    2    0    0 -0.26677699512E+02 -0.20380743247E+02  0.22936679124E+02  0.50528860858E+02  0.30000003063E+02 0.  0.
         12    1    1    2    0    0  0.26677699512E+02  0.20380743247E+02 -0.22936679124E+02  0.40659139142E+02  0.00000000000E+00 0. -1.
         11    1    3    3    0    0  0.37865728216E+01 -0.86457990230E+01  0.33027883445E+01  0.99998192778E+01  0.51100000000E-03 0. -1.
        -11    1    3    3    0    0 -0.19068548882E+02 -0.11092138524E+02  0.62278389925E+01  0.22922283313E+02  0.51100000000E-03 0.  1.
         12    1    3    3    0    0 -0.11395723451E+02 -0.64280569997E+00  0.13406051787E+02  0.17606758267E+02  0.00000000000E+00 0. -1.
</event>
<event>
 7    1  0.2900470E-011  0.5052885E+02  0.7816164E-02  0.1300439E+00
        -11   -1    0    0    0    0  0.00000000000E+00  0.00000000000E+00  0.45593999997E+02  0.45594000000E+02  0.51100000000E-03 0. -1.
         11   -1    0    0    0    0 -0.00000000000E+00 -0.00000000000E+00 -0.45593999997E+02  0.45594000000E+02  0.51100000000E-03 0.  1.
    9900012    2    1    2    0    0  0.30290224193E+02 -0.12950557364E+02 -0.23831736225E+02  0.50528852577E+02  0.29999977892E+02 0.  0.
         12    1    1    2    0    0 -0.30290224193E+02  0.12950557364E+02  0.23831736225E+02  0.40659147423E+02  0.00000000000E+00 0. -1.
         11    1    3    3    0    0  0.12629316531E+02 -0.15196783985E+02  0.17477318209E-01  0.19759609947E+02  0.51100000000E-03 0. -1.
        -11    1    3    3    0    0  0.16294179273E+01  0.26124926704E+01 -0.62043967188E+01  0.69263742059E+01  0.51100000000E-03 0.  1.
         12    1    3    3    0    0  0.16031489734E+02 -0.36626604933E+00 -0.17644816825E+02  0.23842868424E+02  0.00000000000E+00 0. -1.
</event>
<event>
 7    1  0.2900470E-011  0.5052886E+02  0.7816164E-02  0.1300439E+00
        -11   -1    0    0    0    0  0.00000000000E+00  0.00000000000E+00  0.45593999997E+02  0.45594000000E+02  0.51100000000E-03 0.  1.
         11   -1    0    0    0    0 -0.00000000000E+00 -0.00000000000E+00 -0.45593999997E+02  0.45594000000E+02  0.51100000000E-03 0. -1.
    9900012    2    1    2    0    0  0.33253575051E+02 -0.22993282013E+02  0.43213740213E+01  0.50528861484E+02  0.30000004968E+02 0.  0.
         12    1    1    2    0    0 -0.33253575051E+02  0.22993282013E+02 -0.43213740213E+01  0.40659138516E+02  0.00000000000E+00 0. -1.
         11    1    3    3    0    0  0.30703609911E+02 -0.22803699585E+02  0.24141342936E+01  0.38321644289E+02  0.51100000000E-03 0. -1.
        -11    1    3    3    0    0 -0.46164087065E+00  0.44524147752E+00  0.65803967798E+01  0.66115788060E+01  0.51100000000E-03 0.  1.
         12    1    3    3    0    0  0.30116060101E+01 -0.63482390571E+00 -0.46731570520E+01  0.55956383893E+01  0.00000000000E+00 0. -1.
</event>
<event>
 7    1  0.2900470E-011  0.5052886E+02  0.7816164E-02  0.1300439E+00
        -11   -1    0    0    0    0  0.00000000000E+00  0.00000000000E+00  0.45593999997E+02  0.45594000000E+02  0.51100000000E-03 0.  1.
         11   -1    0    0    0    0 -0.00000000000E+00 -0.00000000000E+00 -0.45593999997E+02  0.45594000000E+02  0.51100000000E-03 0. -1.
    9900012    2    1    2    0    0  0.20685379281E+02 -0.16518413554E+02  0.30861343026E+02  0.50528863318E+02  0.30000010542E+02 0.  0.
         12    1    1    2    0    0 -0.20685379281E+02  0.16518413554E+02 -0.30861343026E+02  0.40659136682E+02  0.00000000000E+00 0. -1.
         11    1    3    3    0    0  0.96571556199E+01  0.19356848393E+01  0.44633030582E+01  0.10813353084E+02  0.51100000000E-03 0. -1.
        -11    1    3    3    0    0  0.56650497424E+01 -0.15905388639E+02  0.51481347392E+01  0.17651557095E+02  0.51100000000E-03 0.  1.
        -12    1    3    3    0    0  0.53631739189E+01 -0.25487097545E+01  0.21249905229E+02  0.22063953139E+02  0.00000000000E+00 0.  1.
</event>
<event>
 7    1  0.2900470E-011  0.5052887E+02  0.7816164E-02  0.1300439E+00
        -11   -1    0    0    0    0  0.00000000000E+00  0.00000000000E+00  0.45593999997E+02  0.45594000000E+02  0.51100000000E-03 0.  1.
         11   -1    0    0    0    0 -0.00000000000E+00 -0.00000000000E+00 -0.45593999997E+02  0.45594000000E+02  0.51100000000E-03 0. -1.
    9900012    2    1    2    0    0 -0.36032205847E+02  0.18396853004E+02  0.40497703083E+01  0.50528871896E+02  0.30000036614E+02 0.  0.
         12    1    1    2    0    0  0.36032205847E+02 -0.18396853004E+02 -0.40497703083E+01  0.40659128104E+02  0.00000000000E+00 0. -1.
         11    1    3    3    0    0  0.33071537459E+01 -0.16420963461E+01  0.13752672992E+01  0.39401912027E+01  0.51100000000E-03 0. -1.
        -11    1    3    3    0    0 -0.25128357575E+02  0.15035452497E+02 -0.49575225681E+01  0.29699767953E+02  0.51100000000E-03 0.  1.
         12    1    3    3    0    0 -0.14211002018E+02  0.50034968533E+01  0.76320255772E+01  0.16888912739E+02  0.00000000000E+00 0. -1.
</event>
<event>
 7    1  0.2900470E-011  0.5052886E+02  0.7816164E-02  0.1300439E+00
        -11   -1    0    0    0    0  0.00000000000E+00  0.00000000000E+00  0.45593999997E+02  0.45594000000E+02  0.51100000000E-03 0.  1.
         11   -1    0    0    0    0 -0.00000000000E+00 -0.00000000000E+00 -0.45593999997E+02  0.45594000000E+02  0.51100000000E-03 0. -1.
    9900012    2    1    2    0    0 -0.35375051639E+02 -0.15593132460E+02  0.12594662928E+02  0.50528860896E+02  0.30000003180E+02 0.  0.
         12    1    1    2    0    0  0.35375051639E+02  0.15593132460E+02 -0.12594662928E+02  0.40659139104E+02  0.00000000000E+00 0. -1.
         11    1    3    3    0    0 -0.20133254228E+01 -0.13763038378E+01 -0.58159551838E+01  0.63065859602E+01  0.51100000000E-03 0. -1.
        -11    1    3    3    0    0 -0.21196708014E+02 -0.14177164588E+02  0.19364376958E+02  0.32019861362E+02  0.51100000000E-03 0.  1.
        -12    1    3    3    0    0 -0.12165018202E+02 -0.39664033731E-01 -0.95375884592E+00  0.12202413574E+02  0.00000000000E+00 0.  1.
</event>
<event>
 7    1  0.2900470E-011  0.5052886E+02  0.7816164E-02  0.1300439E+00
        -11   -1    0    0    0    0  0.00000000000E+00  0.00000000000E+00  0.45593999997E+02  0.45594000000E+02  0.51100000000E-03 0. -1.
         11   -1    0    0    0    0 -0.00000000000E+00 -0.00000000000E+00 -0.45593999997E+02  0.45594000000E+02  0.51100000000E-03 0.  1.
    9900012    2    1    2    0    0 -0.69867779070E+01  0.34310639691E+02 -0.20667134427E+02  0.50528861950E+02  0.30000006384E+02 0.  0.
         12    1    1    2    0    0  0.69867779070E+01 -0.34310639691E+02  0.20667134427E+02  0.40659138050E+02  0.00000000000E+00 0. -1.
         11    1    3    3    0    0  0.61584463967E+00  0.30098606186E+01  0.59864375498E+00  0.31300000272E+01  0.51100000000E-03 0. -1.
        -11    1    3    3    0    0 -0.13130942815E+02  0.89335528049E+01 -0.18200595647E+02  0.24155573002E+02  0.51100000000E-03 0.  1.
        -12    1    3    3    0    0  0.55283202680E+01  0.22367226267E+02 -0.30651825359E+01  0.23243288921E+02  0.00000000000E+00 0.  1.
</event>
<event>
 7    1  0.2900470E-011  0.5052886E+02  0.7816164E-02  0.1300439E+00
        -11   -1    0    0    0    0  0.00000000000E+00  0.00000000000E+00  0.45593999997E+02  0.45594000000E+02  0.51100000000E-03 0.  1.
         11   -1    0    0    0    0 -0.00000000000E+00 -0.00000000000E+00 -0.45593999997E+02  0.45594000000E+02  0.51100000000E-03 0. -1.
    9900012    2    1    2    0    0  0.24340560640E+00  0.29199393761E+02  0.28293135974E+02  0.50528863443E+02  0.30000010923E+02 0.  0.
         12    1    1    2    0    0 -0.24340560640E+00 -0.29199393761E+02 -0.28293135974E+02  0.40659136557E+02  0.00000000000E+00 0. -1.
         11    1    3    3    0    0  0.78014226207E+01  0.55795428305E+01  0.76313761983E+01  0.12256891778E+02  0.51100000000E-03 0. -1.
        -11    1    3    3    0    0 -0.47549904428E+01  0.21227213724E+02  0.51852421235E+01  0.22362720603E+02  0.51100000000E-03 0.  1.
        -12    1    3    3    0    0 -0.28030265715E+01  0.23926372061E+01  0.15476517652E+02  0.15909251063E+02  0.00000000000E+00 0.  1.
</event>
<event>
 7    1  0.2900470E-011  0.5052886E+02  0.7816164E-02  0.1300439E+00
        -11   -1    0    0    0    0  0.00000000000E+00  0.00000000000E+00  0.45593999997E+02  0.45594000000E+02  0.51100000000E-03 0.  1.
         11   -1    0    0    0    0 -0.00000000000E+00 -0.00000000000E+00 -0.45593999997E+02  0.45594000000E+02  0.51100000000E-03 0. -1.
    9900012    2    1    2    0    0 -0.18017649587E+02 -0.11886840762E+02  0.34456245356E+02  0.50528861741E+02  0.30000005748E+02 0.  0.
         12    1    1    2    0    0  0.18017649587E+02  0.11886840762E+02 -0.34456245356E+02  0.40659138259E+02  0.00000000000E+00 0. -1.
         11    1    3    3    0    0 -0.17195033277E+02 -0.13280601012E+02  0.32158981029E+02  0.38810354208E+02  0.51100000000E-03 0. -1.
        -11    1    3    3    0    0  0.21857491478E-01 -0.34587387265E+01  0.50157204420E+01  0.60926843954E+01  0.51100000000E-03 0.  1.
         12    1    3    3    0    0 -0.84447380117E+00  0.48524989769E+01 -0.27184561155E+01  0.56258231374E+01  0.00000000000E+00 0. -1.
</event>
<event>
 7    1  0.2900470E-011  0.5052886E+02  0.7816164E-02  0.1300439E+00
        -11   -1    0    0    0    0  0.00000000000E+00  0.00000000000E+00  0.45593999997E+02  0.45594000000E+02  0.51100000000E-03 0.  1.
         11   -1    0    0    0    0 -0.00000000000E+00 -0.00000000000E+00 -0.45593999997E+02  0.45594000000E+02  0.51100000000E-03 0. -1.
    9900012    2    1    2    0    0  0.26734748130E+02  0.50110382848E+01  0.30220987451E+02  0.50528863944E+02  0.30000012445E+02 0.  0.
         12    1    1    2    0    0 -0.26734748130E+02 -0.50110382848E+01 -0.30220987451E+02  0.40659136056E+02  0.00000000000E+00 0. -1.
         11    1    3    3    0    0 -0.38475462351E+01 -0.41938540353E+01 -0.68187002168E+00  0.57321000242E+01  0.51100000000E-03 0. -1.
        -11    1    3    3    0    0  0.12140516125E+02  0.90035061854E+00  0.12578233965E+02  0.17504706023E+02  0.51100000000E-03 0.  1.
         12    1    3    3    0    0  0.18441778241E+02  0.83045417016E+01  0.18324623508E+02  0.27292057897E+02  0.00000000000E+00 0. -1.
</event>
<event>
 7    1  0.2900470E-011  0.5052886E+02  0.7816164E-02  0.1300439E+00
        -11   -1    0    0    0    0  0.00000000000E+00  0.00000000000E+00  0.45593999997E+02  0.45594000000E+02  0.51100000000E-03 0. -1.
         11   -1    0    0    0    0 -0.00000000000E+00 -0.00000000000E+00 -0.45593999997E+02  0.45594000000E+02  0.51100000000E-03 0.  1.
    9900012    2    1    2    0    0 -0.64965440241E+01 -0.19816315934E+01 -0.40087826621E+02  0.50528858455E+02  0.29999995759E+02 0.  0.
         12    1    1    2    0    0  0.64965440241E+01  0.19816315934E+01  0.40087826621E+02  0.40659141545E+02  0.00000000000E+00 0. -1.
         11    1    3    3    0    0 -0.47482611288E+01  0.11161299902E+02 -0.12689588122E+02  0.17554094856E+02  0.51100000000E-03 0. -1.
        -11    1    3    3    0    0  0.48533194632E+01 -0.64692912421E+01 -0.17790330125E+02  0.19542320364E+02  0.51100000000E-03 0.  1.
        -12    1    3    3    0    0 -0.66016023584E+01 -0.66736402536E+01 -0.96079083739E+01  0.13432443235E+02  0.00000000000E+00 0.  1.
</event>
<event>
 7    1  0.2900470E-011  0.5052886E+02  0.7816164E-02  0.1300439E+00
        -11   -1    0    0    0    0  0.00000000000E+00  0.00000000000E+00  0.45593999997E+02  0.45594000000E+02  0.51100000000E-03 0. -1.
         11   -1    0    0    0    0 -0.00000000000E+00 -0.00000000000E+00 -0.45593999997E+02  0.45594000000E+02  0.51100000000E-03 0.  1.
    9900012    2    1    2    0    0  0.24898724573E+02 -0.21520917842E+02 -0.23876124740E+02  0.50528859297E+02  0.29999998318E+02 0.  0.
         12    1    1    2    0    0 -0.24898724573E+02  0.21520917842E+02  0.23876124740E+02  0.40659140703E+02  0.00000000000E+00 0. -1.
         11    1    3    3    0    0  0.34753077517E+00  0.12116043124E+00  0.42158236044E+01  0.42318585059E+01  0.51100000000E-03 0. -1.
        -11    1    3    3    0    0  0.14837414073E+02 -0.17909384201E+02 -0.27295936818E+02  0.35860327186E+02  0.51100000000E-03 0.  1.
        -12    1    3    3    0    0  0.97137797245E+01 -0.37326940717E+01 -0.79601152637E+00  0.10436673604E+02  0.00000000000E+00 0.  1.
</event>
<event>
 7    1  0.2900470E-011  0.5052886E+02  0.7816164E-02  0.1300439E+00
        -11   -1    0    0    0    0  0.00000000000E+00  0.00000000000E+00  0.45593999997E+02  0.45594000000E+02  0.51100000000E-03 0.  1.
         11   -1    0    0    0    0 -0.00000000000E+00 -0.00000000000E+00 -0.45593999997E+02  0.45594000000E+02  0.51100000000E-03 0. -1.
    9900012    2    1    2    0    0  0.21883808017E+01 -0.28502566380E+00  0.40599205802E+02  0.50528858815E+02  0.29999996854E+02 0.  0.
         12    1    1    2    0    0 -0.21883808017E+01  0.28502566380E+00 -0.40599205802E+02  0.40659141185E+02  0.00000000000E+00 0. -1.
         11    1    3    3    0    0 -0.52990779540E+01  0.21673943202E+01  0.34937436645E+01  0.67070165018E+01  0.51100000000E-03 0. -1.
        -11    1    3    3    0    0  0.90297307117E+01  0.75217544452E+01  0.27425499374E+02  0.29837406771E+02  0.51100000000E-03 0.  1.
        -12    1    3    3    0    0 -0.15422719561E+01 -0.99741744292E+01  0.96799627635E+01  0.13984435542E+02  0.00000000000E+00 0.  1.
</event>
<event>
 7    1  0.2900470E-011  0.5052886E+02  0.7816164E-02  0.1300439E+00
        -11   -1    0    0    0    0  0.00000000000E+00  0.00000000000E+00  0.45593999997E+02  0.45594000000E+02  0.51100000000E-03 0.  1.
         11   -1    0    0    0    0 -0.00000000000E+00 -0.00000000000E+00 -0.45593999997E+02  0.45594000000E+02  0.51100000000E-03 0. -1.
    9900012    2    1    2    0    0 -0.23754346075E+02 -0.32942515743E+02 -0.19202782326E+01  0.50528858723E+02  0.29999996574E+02 0.  0.
         12    1    1    2    0    0  0.23754346075E+02  0.32942515743E+02  0.19202782326E+01  0.40659141277E+02  0.00000000000E+00 0. -1.
         11    1    3    3    0    0 -0.15706326645E+02 -0.21506404597E+02 -0.12418929033E+02  0.29384416515E+02  0.51100000000E-03 0. -1.
        -11    1    3    3    0    0 -0.49384817886E+01 -0.13448649361E+02  0.98448193289E+01  0.17383188427E+02  0.51100000000E-03 0.  1.
         12    1    3    3    0    0 -0.31095376416E+01  0.20125382147E+01  0.65383147125E+00  0.37612537807E+01  0.00000000000E+00 0. -1.
</event>
<event>
 7    1  0.2900470E-011  0.5052886E+02  0.7816164E-02  0.1300439E+00
        -11   -1    0    0    0    0  0.00000000000E+00  0.00000000000E+00  0.45593999997E+02  0.45594000000E+02  0.51100000000E-03 0.  1.
         11   -1    0    0    0    0 -0.00000000000E+00 -0.00000000000E+00 -0.45593999997E+02  0.45594000000E+02  0.51100000000E-03 0. -1.
    9900012    2    1    2    0    0  0.58922196205E+01  0.21910753327E+02  0.33739688104E+02  0.50528856910E+02  0.29999991065E+02 0.  0.
         12    1    1    2    0    0 -0.58922196205E+01 -0.21910753327E+02 -0.33739688104E+02  0.40659143090E+02  0.00000000000E+00 0. -1.
         11    1    3    3    0    0  0.53510393575E+01  0.20820215648E+02  0.84392692446E+01  0.23094074294E+02  0.51100000000E-03 0. -1.
        -11    1    3    3    0    0  0.44555569076E+01 -0.26588169916E+01  0.12483668456E+02  0.13518996765E+02  0.51100000000E-03 0.  1.
         12    1    3    3    0    0 -0.39143766445E+01  0.37493546702E+01  0.12816750403E+02  0.13915785851E+02  0.00000000000E+00 0. -1.
</event>
<event>
 7    1  0.2900470E-011  0.5052886E+02  0.7816164E-02  0.1300439E+00
        -11   -1    0    0    0    0  0.00000000000E+00  0.00000000000E+00  0.45593999997E+02  0.45594000000E+02  0.51100000000E-03 0. -1.
         11   -1    0    0    0    0 -0.00000000000E+00 -0.00000000000E+00 -0.45593999997E+02  0.45594000000E+02  0.51100000000E-03 0.  1.
    9900012    2    1    2    0    0  0.46406418327E+01 -0.31176005905E+02 -0.25684361902E+02  0.50528863916E+02  0.30000012358E+02 0.  0.
         12    1    1    2    0    0 -0.46406418327E+01  0.31176005905E+02  0.25684361902E+02  0.40659136084E+02  0.00000000000E+00 0. -1.
         11    1    3    3    0    0 -0.81808012847E+01 -0.14979011359E+02 -0.63100126212E+01  0.18196498303E+02  0.51100000000E-03 0. -1.
        -11    1    3    3    0    0  0.69399459669E+01  0.15921538455E+01 -0.46702831219E+01  0.85152421335E+01  0.51100000000E-03 0.  1.
         12    1    3    3    0    0  0.58814971504E+01 -0.17789148392E+02 -0.14704066159E+02  0.23817123479E+02  0.00000000000E+00 0. -1.
</event>
<event>
 7    1  0.2900470E-011  0.5052886E+02  0.7816164E-02  0.1300439E+00
        -11   -1    0    0    0    0  0.00000000000E+00  0.00000000000E+00  0.45593999997E+02  0.45594000000E+02  0.51100000000E-03 0. -1.
         11   -1    0    0    0    0 -0.00000000000E+00 -0.00000000000E+00 -0.45593999997E+02  0.45594000000E+02  0.51100000000E-03 0.  1.
    9900012    2    1    2    0    0 -0.78097527598E+01 -0.24954422946E+02 -0.31135994419E+02  0.50528860668E+02  0.30000002486E+02 0.  0.
         12    1    1    2    0    0  0.78097527598E+01  0.24954422946E+02  0.31135994419E+02  0.40659139332E+02  0.00000000000E+00 0. -1.
         11    1    3    3    0    0 -0.32868120280E+01 -0.61264134630E+00  0.51261827904E+01  0.61201481182E+01  0.51100000000E-03 0. -1.
        -11    1    3    3    0    0 -0.39641520146E+01 -0.65943162569E+01 -0.13517041278E+02  0.15553453419E+02  0.51100000000E-03 0.  1.
         12    1    3    3    0    0 -0.55878871716E+00 -0.17747465343E+02 -0.22745135932E+02  0.28855259130E+02  0.00000000000E+00 0. -1.
</event>
<event>
 7    1  0.2900470E-011  0.5052882E+02  0.7816164E-02  0.1300439E+00
        -11   -1    0    0    0    0  0.00000000000E+00  0.00000000000E+00  0.45593999997E+02  0.45594000000E+02  0.51100000000E-03 0.  1.
         11   -1    0    0    0    0 -0.00000000000E+00 -0.00000000000E+00 -0.45593999997E+02  0.45594000000E+02  0.51100000000E-03 0. -1.
    9900012    2    1    2    0    0 -0.37648996133E+02  0.36528133945E+01  0.14912363866E+02  0.50528824509E+02  0.29999892577E+02 0.  0.
         12    1    1    2    0    0  0.37648996133E+02 -0.36528133945E+01 -0.14912363866E+02  0.40659175491E+02  0.00000000000E+00 0. -1.
         11    1    3    3    0    0 -0.23670429651E+02 -0.15213340832E+01 -0.51673002625E+01  0.24275598644E+02  0.51100000000E-03 0. -1.
        -11    1    3    3    0    0 -0.20710067811E+01 -0.12362568345E+01  0.71402302937E+01  0.75365966428E+01  0.51100000000E-03 0.  1.
         12    1    3    3    0    0 -0.11907559702E+02  0.64104043122E+01  0.12939433835E+02  0.18716629223E+02  0.00000000000E+00 0. -1.
</event>
<event>
 7    1  0.2900470E-011  0.5052886E+02  0.7816164E-02  0.1300439E+00
        -11   -1    0    0    0    0  0.00000000000E+00  0.00000000000E+00  0.45593999997E+02  0.45594000000E+02  0.51100000000E-03 0.  1.
         11   -1    0    0    0    0 -0.00000000000E+00 -0.00000000000E+00 -0.45593999997E+02  0.45594000000E+02  0.51100000000E-03 0. -1.
    9900012    2    1    2    0    0 -0.34405174773E+01 -0.12498831887E+02  0.38537092191E+02  0.50528862853E+02  0.30000009127E+02 0.  0.
         12    1    1    2    0    0  0.34405174773E+01  0.12498831887E+02 -0.38537092191E+02  0.40659137147E+02  0.00000000000E+00 0. -1.
         11    1    3    3    0    0  0.80241688003E+01  0.59844963850E+01  0.86983789810E+01  0.13261345297E+02  0.51100000000E-03 0. -1.
        -11    1    3    3    0    0 -0.81054776410E+01 -0.14883211353E+02  0.19630815570E+02  0.25934102417E+02  0.51100000000E-03 0.  1.
         12    1    3    3    0    0 -0.33592086367E+01 -0.36001169190E+01  0.10207897640E+02  0.11333415139E+02  0.00000000000E+00 0. -1.
</event>
<event>
 7    1  0.2900470E-011  0.5052885E+02  0.7816164E-02  0.1300439E+00
        -11   -1    0    0    0    0  0.00000000000E+00  0.00000000000E+00  0.45593999997E+02  0.45594000000E+02  0.51100000000E-03 0.  1.
         11   -1    0    0    0    0 -0.00000000000E+00 -0.00000000000E+00 -0.45593999997E+02  0.45594000000E+02  0.51100000000E-03 0. -1.
    9900012    2    1    2    0    0 -0.90164199996E+01  0.39400891415E+02 -0.44091528966E+01  0.50528847240E+02  0.29999961669E+02 0.  0.
         12    1    1    2    0    0  0.90164199996E+01 -0.39400891415E+02  0.44091528966E+01  0.40659152760E+02  0.00000000000E+00 0. -1.
         11    1    3    3    0    0 -0.58422413205E+01  0.34917583343E+01  0.15393800588E+01  0.69780979599E+01  0.51100000000E-03 0. -1.
        -11    1    3    3    0    0 -0.45378842692E+01  0.20175975281E+02 -0.14815682913E+02  0.25439473906E+02  0.51100000000E-03 0.  1.
        -12    1    3    3    0    0  0.13637055901E+01  0.15733157800E+02  0.88671499574E+01  0.18111275373E+02  0.00000000000E+00 0.  1.
</event>
<event>
 7    1  0.2900470E-011  0.5052886E+02  0.7816164E-02  0.1300439E+00
        -11   -1    0    0    0    0  0.00000000000E+00  0.00000000000E+00  0.45593999997E+02  0.45594000000E+02  0.51100000000E-03 0.  1.
         11   -1    0    0    0    0 -0.00000000000E+00 -0.00000000000E+00 -0.45593999997E+02  0.45594000000E+02  0.51100000000E-03 0. -1.
    9900012    2    1    2    0    0  0.37302131107E+02 -0.13674946220E+02  0.86436548257E+01  0.50528857018E+02  0.29999991393E+02 0.  0.
         12    1    1    2    0    0 -0.37302131107E+02  0.13674946220E+02 -0.86436548257E+01  0.40659142982E+02  0.00000000000E+00 0. -1.
         11    1    3    3    0    0  0.32614377986E+01 -0.31360448666E+01 -0.91163523760E+01  0.10177408060E+02  0.51100000000E-03 0. -1.
        -11    1    3    3    0    0  0.12491081726E+02 -0.38599692738E+01  0.10116667087E+02  0.16530984202E+02  0.51100000000E-03 0.  1.
         12    1    3    3    0    0  0.21549611583E+02 -0.66789320794E+01  0.76433401145E+01  0.23820464756E+02  0.00000000000E+00 0. -1.
</event>
<event>
 7    1  0.2900470E-011  0.5052883E+02  0.7816164E-02  0.1300439E+00
        -11   -1    0    0    0    0  0.00000000000E+00  0.00000000000E+00  0.45593999997E+02  0.45594000000E+02  0.51100000000E-03 0.  1.
         11   -1    0    0    0    0 -0.00000000000E+00 -0.00000000000E+00 -0.45593999997E+02  0.45594000000E+02  0.51100000000E-03 0. -1.
    9900012    2    1    2    0    0  0.92802277002E+01  0.11779911479E+02  0.37792578413E+02  0.50528832230E+02  0.29999916047E+02 0.  0.
         12    1    1    2    0    0 -0.92802277002E+01 -0.11779911479E+02 -0.37792578413E+02  0.40659167770E+02  0.00000000000E+00 0. -1.
         11    1    3    3    0    0 -0.48770326853E+01 -0.32889655458E+01  0.17915936520E+02  0.18856922437E+02  0.51100000000E-03 0. -1.
        -11    1    3    3    0    0  0.91456619824E+01  0.33402811016E+01  0.15271984937E+02  0.18111712650E+02  0.51100000000E-03 0.  1.
         12    1    3    3    0    0  0.50115984030E+01  0.11728595923E+02  0.46046569563E+01  0.13560197143E+02  0.00000000000E+00 0. -1.
</event>
<event>
 7    1  0.2900470E-011  0.5052886E+02  0.7816164E-02  0.1300439E+00
        -11   -1    0    0    0    0  0.00000000000E+00  0.00000000000E+00  0.45593999997E+02  0.45594000000E+02  0.51100000000E-03 0.  1.
         11   -1    0    0    0    0 -0.00000000000E+00 -0.00000000000E+00 -0.45593999997E+02  0.45594000000E+02  0.51100000000E-03 0. -1.
    9900012    2    1    2    0    0 -0.18755377651E+02  0.52519554496E+01  0.35690592834E+02  0.50528860269E+02  0.30000001272E+02 0.  0.
         12    1    1    2    0    0  0.18755377651E+02 -0.52519554496E+01 -0.35690592834E+02  0.40659139731E+02  0.00000000000E+00 0. -1.
         11    1    3    3    0    0 -0.12732997611E+02 -0.68887280910E+01  0.84470176051E+01  0.16761142847E+02  0.51100000000E-03 0. -1.
        -11    1    3    3    0    0 -0.56397132587E+01  0.13974787257E+02  0.27959368971E+02  0.31762042725E+02  0.51100000000E-03 0.  1.
        -12    1    3    3    0    0 -0.38266678154E+00 -0.18341037165E+01 -0.71579374228E+00  0.20056746969E+01  0.00000000000E+00 0.  1.
</event>
<event>
 7    1  0.2900470E-011  0.5052886E+02  0.7816164E-02  0.1300439E+00
        -11   -1    0    0    0    0  0.00000000000E+00  0.00000000000E+00  0.45593999997E+02  0.45594000000E+02  0.51100000000E-03 0.  1.
         11   -1    0    0    0    0 -0.00000000000E+00 -0.00000000000E+00 -0.45593999997E+02  0.45594000000E+02  0.51100000000E-03 0. -1.
    9900012    2    1    2    0    0  0.35969273197E+01  0.17731891919E+02  0.36411644197E+02  0.50528859450E+02  0.29999998785E+02 0.  0.
         12    1    1    2    0    0 -0.35969273197E+01 -0.17731891919E+02 -0.36411644197E+02  0.40659140550E+02  0.00000000000E+00 0. -1.
         11    1    3    3    0    0  0.47858678585E+01 -0.29204493146E+01  0.54751881816E+00  0.56332346370E+01  0.51100000000E-03 0. -1.
        -11    1    3    3    0    0 -0.92183125220E+01  0.12528071358E+02  0.21724916106E+02  0.26718941554E+02  0.51100000000E-03 0.  1.
        -12    1    3    3    0    0  0.80293719832E+01  0.81242698749E+01  0.14139209272E+02  0.18176683259E+02  0.00000000000E+00 0.  1.
</event>
<event>
 7    1  0.2900470E-011  0.5052886E+02  0.7816164E-02  0.1300439E+00
        -11   -1    0    0    0    0  0.00000000000E+00  0.00000000000E+00  0.45593999997E+02  0.45594000000E+02  0.51100000000E-03 0. -1.
         11   -1    0    0    0    0 -0.00000000000E+00 -0.00000000000E+00 -0.45593999997E+02  0.45594000000E+02  0.51100000000E-03 0.  1.
    9900012    2    1    2    0    0 -0.11738981608E+02 -0.21171140034E+02 -0.32667180730E+02  0.50528861343E+02  0.30000004538E+02 0.  0.
         12    1    1    2    0    0  0.11738981608E+02  0.21171140034E+02  0.32667180730E+02  0.40659138657E+02  0.00000000000E+00 0. -1.
         11    1    3    3    0    0 -0.98298329318E+01 -0.24543038460E+01  0.12726078963E+01  0.10211207272E+02  0.51100000000E-03 0. -1.
        -11    1    3    3    0    0 -0.72147206343E+00 -0.16126901948E+02 -0.18224011058E+02  0.24345678624E+02  0.51100000000E-03 0.  1.
         12    1    3    3    0    0 -0.11876766126E+01 -0.25899342396E+01 -0.15715777568E+02  0.15971975447E+02  0.00000000000E+00 0. -1.
</event>
<event>
 7    1  0.2900470E-011  0.5052886E+02  0.7816164E-02  0.1300439E+00
        -11   -1    0    0    0    0  0.00000000000E+00  0.00000000000E+00  0.45593999997E+02  0.45594000000E+02  0.51100000000E-03 0. -1.
         11   -1    0    0    0    0 -0.00000000000E+00 -0.00000000000E+00 -0.45593999997E+02  0.45594000000E+02  0.51100000000E-03 0.  1.
    9900012    2    1    2    0    0 -0.16666496607E+02 -0.33730019509E+02  0.15416845056E+02  0.50528862814E+02  0.30000009009E+02 0.  0.
         12    1    1    2    0    0  0.16666496607E+02  0.33730019509E+02 -0.15416845056E+02  0.40659137186E+02  0.00000000000E+00 0. -1.
         11    1    3    3    0    0 -0.24639920988E+01  0.37267201465E+01  0.13690596716E+01  0.46726892427E+01  0.51100000000E-03 0. -1.
        -11    1    3    3    0    0 -0.15805189998E+02 -0.38581459910E+02  0.13443564341E+02  0.43807105612E+02  0.51100000000E-03 0.  1.
        -12    1    3    3    0    0  0.16026854899E+01  0.11247202545E+01  0.60422104334E+00  0.20490679588E+01  0.00000000000E+00 0.  1.
</event>
<event>
 7    1  0.2900470E-011  0.5052886E+02  0.7816164E-02  0.1300439E+00
        -11   -1    0    0    0    0  0.00000000000E+00  0.00000000000E+00  0.45593999997E+02  0.45594000000E+02  0.51100000000E-03 0.  1.
         11   -1    0    0    0    0 -0.00000000000E+00 -0.00000000000E+00 -0.45593999997E+02  0.45594000000E+02  0.51100000000E-03 0. -1.
    9900012    2    1    2    0    0  0.17801408398E+02  0.27522615896E+02  0.24057868996E+02  0.50528860961E+02  0.30000003378E+02 0.  0.
         12    1    1    2    0    0 -0.17801408398E+02 -0.27522615896E+02 -0.24057868996E+02  0.40659139039E+02  0.00000000000E+00 0. -1.
         11    1    3    3    0    0  0.22122259960E+01  0.66944079247E+01  0.56049091688E+00  0.70727075189E+01  0.51100000000E-03 0. -1.
        -11    1    3    3    0    0  0.41492910406E+01  0.68426983072E+01  0.24083570514E+02  0.25378288067E+02  0.51100000000E-03 0.  1.
        -12    1    3    3    0    0  0.11439891362E+02  0.13985509664E+02 -0.58619243464E+00  0.18077865375E+02  0.00000000000E+00 0.  1.
</event>
<event>
 7    1  0.2900470E-011  0.5052886E+02  0.7816164E-02  0.1300439E+00
        -11   -1    0    0    0    0  0.00000000000E+00  0.00000000000E+00  0.45593999997E+02  0.45594000000E+02  0.51100000000E-03 0.  1.
         11   -1    0    0    0    0 -0.00000000000E+00 -0.00000000000E+00 -0.45593999997E+02  0.45594000000E+02  0.51100000000E-03 0. -1.
    9900012    2    1    2    0    0 -0.12670703880E+02  0.10036033546E+02  0.37308131480E+02  0.50528863503E+02  0.30000011105E+02 0.  0.
         12    1    1    2    0    0  0.12670703880E+02 -0.10036033546E+02 -0.37308131480E+02  0.40659136497E+02  0.00000000000E+00 0. -1.
         11    1    3    3    0    0 -0.77387241337E+01 -0.94410783843E+01  0.13483615190E+02  0.18188724285E+02  0.51100000000E-03 0. -1.
        -11    1    3    3    0    0  0.26558121053E+00  0.38829003791E+01  0.10442136407E+02  0.11143862066E+02  0.51100000000E-03 0.  1.
         12    1    3    3    0    0 -0.51975609566E+01  0.15594211551E+02  0.13382379883E+02  0.21196277153E+02  0.00000000000E+00 0. -1.
</event>
<event>
 7    1  0.2900470E-011  0.5052886E+02  0.7816164E-02  0.1300439E+00
        -11   -1    0    0    0    0  0.00000000000E+00  0.00000000000E+00  0.45593999997E+02  0.45594000000E+02  0.51100000000E-03 0.  1.
         11   -1    0    0    0    0 -0.00000000000E+00 -0.00000000000E+00 -0.45593999997E+02  0.45594000000E+02  0.51100000000E-03 0. -1.
    9900012    2    1    2    0    0 -0.16546433422E+02  0.54194255137E+01  0.36742494107E+02  0.50528861974E+02  0.30000006455E+02 0.  0.
         12    1    1    2    0    0  0.16546433422E+02 -0.54194255137E+01 -0.36742494107E+02  0.40659138026E+02  0.00000000000E+00 0. -1.
         11    1    3    3    0    0 -0.46641151225E+01 -0.15168597218E+01 -0.44150857930E+01  0.65990769136E+01  0.51100000000E-03 0. -1.
        -11    1    3    3    0    0 -0.62419729983E+01 -0.88655522234E-01  0.19440135955E+02  0.20417859166E+02  0.51100000000E-03 0.  1.
         12    1    3    3    0    0 -0.56403453007E+01  0.70249407577E+01  0.21717443945E+02  0.23511925894E+02  0.00000000000E+00 0. -1.
</event>
<event>
 7    1  0.2900470E-011  0.5052886E+02  0.7816164E-02  0.1300439E+00
        -11   -1    0    0    0    0  0.00000000000E+00  0.00000000000E+00  0.45593999997E+02  0.45594000000E+02  0.51100000000E-03 0.  1.
         11   -1    0    0    0    0 -0.00000000000E+00 -0.00000000000E+00 -0.45593999997E+02  0.45594000000E+02  0.51100000000E-03 0. -1.
    9900012    2    1    2    0    0  0.10886247597E+02  0.39125781287E+02 -0.19566644286E+01  0.50528859776E+02  0.29999999776E+02 0.  0.
         12    1    1    2    0    0 -0.10886247597E+02 -0.39125781287E+02  0.19566644286E+01  0.40659140224E+02  0.00000000000E+00 0. -1.
         11    1    3    3    0    0  0.19282325796E+02  0.22375875841E+02 -0.60933133338E+01  0.30159847072E+02  0.51100000000E-03 0. -1.
        -11    1    3    3    0    0 -0.44216217922E+01  0.42230323350E+01 -0.11171451295E+01  0.62155253098E+01  0.51100000000E-03 0.  1.
         12    1    3    3    0    0 -0.39744564071E+01  0.12526873111E+02  0.52537940347E+01  0.14153487395E+02  0.00000000000E+00 0. -1.
</event>
<event>
 7    1  0.2900470E-011  0.5052887E+02  0.7816164E-02  0.1300439E+00
        -11   -1    0    0    0    0  0.00000000000E+00  0.00000000000E+00  0.45593999997E+02  0.45594000000E+02  0.51100000000E-03 0.  1.
         11   -1    0    0    0    0 -0.00000000000E+00 -0.00000000000E+00 -0.45593999997E+02  0.45594000000E+02  0.51100000000E-03 0. -1.
    9900012    2    1    2    0    0  0.18040041628E+02 -0.35829771845E+02  0.66294396258E+01  0.50528866682E+02  0.30000020766E+02 0.  0.
         12    1    1    2    0    0 -0.18040041628E+02  0.35829771845E+02 -0.66294396258E+01  0.40659133318E+02  0.00000000000E+00 0. -1.
         11    1    3    3    0    0  0.20900370245E+01  0.35967195875E+01 -0.39369276275E+01  0.57274816420E+01  0.51100000000E-03 0. -1.
        -11    1    3    3    0    0  0.10001874360E+02 -0.19190622470E+02  0.96357030745E+01  0.23688905748E+02  0.51100000000E-03 0.  1.
        -12    1    3    3    0    0  0.59481302433E+01 -0.20235868962E+02  0.93066417882E+00  0.21112479292E+02  0.00000000000E+00 0.  1.
</event>
<event>
 7    1  0.2900470E-011  0.5052886E+02  0.7816164E-02  0.1300439E+00
        -11   -1    0    0    0    0  0.00000000000E+00  0.00000000000E+00  0.45593999997E+02  0.45594000000E+02  0.51100000000E-03 0.  1.
         11   -1    0    0    0    0 -0.00000000000E+00 -0.00000000000E+00 -0.45593999997E+02  0.45594000000E+02  0.51100000000E-03 0. -1.
    9900012    2    1    2    0    0 -0.38997236177E+02  0.11300536542E+02  0.21631030573E+01  0.50528861170E+02  0.30000004012E+02 0.  0.
         12    1    1    2    0    0  0.38997236177E+02 -0.11300536542E+02 -0.21631030573E+01  0.40659138830E+02  0.00000000000E+00 0. -1.
         11    1    3    3    0    0 -0.41115658761E+01  0.14688518558E+01 -0.48817907293E+01  0.65493801778E+01  0.51100000000E-03 0. -1.
        -11    1    3    3    0    0 -0.24620398042E+02  0.10975312546E+02  0.15085456578E+02  0.30890006242E+02  0.51100000000E-03 0.  1.
        -12    1    3    3    0    0 -0.10265272258E+02 -0.11436278598E+01 -0.80405627914E+01  0.13089474750E+02  0.00000000000E+00 0.  1.
</event>
<event>
 7    1  0.2900470E-011  0.5052890E+02  0.7816164E-02  0.1300439E+00
        -11   -1    0    0    0    0  0.00000000000E+00  0.00000000000E+00  0.45593999997E+02  0.45594000000E+02  0.51100000000E-03 0.  1.
         11   -1    0    0    0    0 -0.00000000000E+00 -0.00000000000E+00 -0.45593999997E+02  0.45594000000E+02  0.51100000000E-03 0. -1.
    9900012    2    1    2    0    0  0.23899958022E+02 -0.95713119044E+01  0.31469736019E+02  0.50528901509E+02  0.30000126625E+02 0.  0.
         12    1    1    2    0    0 -0.23899958022E+02  0.95713119044E+01 -0.31469736019E+02  0.40659098491E+02  0.00000000000E+00 0. -1.
         11    1    3    3    0    0  0.18808350305E+01  0.32260195945E+01  0.21583961628E+02  0.21904614642E+02  0.51100000000E-03 0. -1.
        -11    1    3    3    0    0  0.21769043922E+02 -0.10002880652E+02  0.80591649594E+01  0.25276452179E+02  0.51100000000E-03 0.  1.
         12    1    3    3    0    0  0.25007906904E+00 -0.27944508468E+01  0.18266094323E+01  0.33478346874E+01  0.00000000000E+00 0. -1.
</event>
<event>
 7    1  0.2900470E-011  0.5052886E+02  0.7816164E-02  0.1300439E+00
        -11   -1    0    0    0    0  0.00000000000E+00  0.00000000000E+00  0.45593999997E+02  0.45594000000E+02  0.51100000000E-03 0. -1.
         11   -1    0    0    0    0 -0.00000000000E+00 -0.00000000000E+00 -0.45593999997E+02  0.45594000000E+02  0.51100000000E-03 0.  1.
    9900012    2    1    2    0    0 -0.18183694231E+02  0.11915747809E+02 -0.34358893323E+02  0.50528864100E+02  0.30000012917E+02 0.  0.
         12    1    1    2    0    0  0.18183694231E+02 -0.11915747809E+02  0.34358893323E+02  0.40659135900E+02  0.00000000000E+00 0. -1.
         11    1    3    3    0    0 -0.11548926035E+02 -0.45948018882E+01 -0.48662254556E+01  0.13348035339E+02  0.51100000000E-03 0.  1.
        -11    1    3    3    0    0 -0.14338868512E+01  0.11810234224E+02 -0.27389922193E+02  0.29862108130E+02  0.51100000000E-03 0. -1.
         12    1    3    3    0    0 -0.52008813451E+01  0.47003154728E+01 -0.21027456747E+01  0.73187206316E+01  0.00000000000E+00 0. -1.
</event>
<event>
 7    1  0.2900470E-011  0.5052886E+02  0.7816164E-02  0.1300439E+00
        -11   -1    0    0    0    0  0.00000000000E+00  0.00000000000E+00  0.45593999997E+02  0.45594000000E+02  0.51100000000E-03 0. -1.
         11   -1    0    0    0    0 -0.00000000000E+00 -0.00000000000E+00 -0.45593999997E+02  0.45594000000E+02  0.51100000000E-03 0.  1.
    9900012    2    1    2    0    0 -0.29259455104E+02  0.25642120948E+02 -0.11812347918E+02  0.50528860277E+02  0.30000001299E+02 0.  0.
         12    1    1    2    0    0  0.29259455104E+02 -0.25642120948E+02  0.11812347918E+02  0.40659139723E+02  0.00000000000E+00 0. -1.
         11    1    3    3    0    0  0.48660971031E+01  0.37264473750E+01 -0.19713115164E+01  0.64382746456E+01  0.51100000000E-03 0. -1.
        -11    1    3    3    0    0 -0.20831229957E+02  0.20041476724E+02 -0.31146863395E+01  0.29074081276E+02  0.51100000000E-03 0.  1.
         12    1    3    3    0    0 -0.13294322250E+02  0.18741968492E+01 -0.67263500620E+01  0.15016504356E+02  0.00000000000E+00 0. -1.
</event>
<event>
 7    1  0.2900470E-011  0.5052893E+02  0.7816164E-02  0.1300439E+00
        -11   -1    0    0    0    0  0.00000000000E+00  0.00000000000E+00  0.45593999997E+02  0.45594000000E+02  0.51100000000E-03 0.  1.
         11   -1    0    0    0    0 -0.00000000000E+00 -0.00000000000E+00 -0.45593999997E+02  0.45594000000E+02  0.51100000000E-03 0. -1.
    9900012    2    1    2    0    0 -0.16391034191E+02  0.27089049903E+02 -0.25508384922E+02  0.50528925640E+02  0.30000199974E+02 0.  0.
         12    1    1    2    0    0  0.16391034191E+02 -0.27089049903E+02  0.25508384922E+02  0.40659074360E+02  0.00000000000E+00 0. -1.
         11    1    3    3    0    0 -0.40988677401E+01 -0.36719500070E+01  0.13703633237E+01  0.56711400533E+01  0.51100000000E-03 0. -1.
        -11    1    3    3    0    0 -0.63033050921E+01  0.22623857215E+02 -0.10757211227E+02  0.25831921416E+02  0.51100000000E-03 0.  1.
         12    1    3    3    0    0 -0.59888613589E+01  0.81371426948E+01 -0.16121537019E+02  0.19025864171E+02  0.00000000000E+00 0. -1.
</event>
<event>
 7    1  0.2900470E-011  0.5052886E+02  0.7816164E-02  0.1300439E+00
        -11   -1    0    0    0    0  0.00000000000E+00  0.00000000000E+00  0.45593999997E+02  0.45594000000E+02  0.51100000000E-03 0. -1.
         11   -1    0    0    0    0 -0.00000000000E+00 -0.00000000000E+00 -0.45593999997E+02  0.45594000000E+02  0.51100000000E-03 0.  1.
    9900012    2    1    2    0    0  0.31918889111E+02 -0.15689128891E+01 -0.25137394685E+02  0.50528861036E+02  0.30000003606E+02 0.  0.
         12    1    1    2    0    0 -0.31918889111E+02  0.15689128891E+01  0.25137394685E+02  0.40659138964E+02  0.00000000000E+00 0. -1.
         11    1    3    3    0    0  0.34305795731E+02  0.44920989067E+01 -0.25869361616E+02  0.43200583839E+02  0.51100000000E-03 0. -1.
        -11    1    3    3    0    0 -0.11255218214E+01 -0.59100357786E+01  0.70689733444E+00  0.60576419816E+01  0.51100000000E-03 0.  1.
         12    1    3    3    0    0 -0.12613847985E+01 -0.15097601724E+00  0.25069596994E-01  0.12706352160E+01  0.00000000000E+00 0. -1.
</event>
<event>
 7    1  0.2900470E-011  0.5052886E+02  0.7816164E-02  0.1300439E+00
        -11   -1    0    0    0    0  0.00000000000E+00  0.00000000000E+00  0.45593999997E+02  0.45594000000E+02  0.51100000000E-03 0.  1.
         11   -1    0    0    0    0 -0.00000000000E+00 -0.00000000000E+00 -0.45593999997E+02  0.45594000000E+02  0.51100000000E-03 0. -1.
    9900012    2    1    2    0    0  0.80230847376E+01  0.25126566120E+02  0.30942711146E+02  0.50528860969E+02  0.30000003402E+02 0.  0.
         12    1    1    2    0    0 -0.80230847376E+01 -0.25126566120E+02 -0.30942711146E+02  0.40659139031E+02  0.00000000000E+00 0. -1.
         11    1    3    3    0    0  0.30103128802E+01  0.20480329620E+02  0.12559561017E+02  0.24212568186E+02  0.51100000000E-03 0. -1.
        -11    1    3    3    0    0 -0.63974092107E+01  0.20947802245E-01  0.77404165608E+01  0.10041978501E+02  0.51100000000E-03 0.  1.
         12    1    3    3    0    0  0.11410181068E+02  0.46252886978E+01  0.10642733568E+02  0.16274314282E+02  0.00000000000E+00 0. -1.
</event>
<event>
 7    1  0.2900470E-011  0.5052887E+02  0.7816164E-02  0.1300439E+00
        -11   -1    0    0    0    0  0.00000000000E+00  0.00000000000E+00  0.45593999997E+02  0.45594000000E+02  0.51100000000E-03 0.  1.
         11   -1    0    0    0    0 -0.00000000000E+00 -0.00000000000E+00 -0.45593999997E+02  0.45594000000E+02  0.51100000000E-03 0. -1.
    9900012    2    1    2    0    0 -0.31591908359E+02  0.73721537316E+01  0.24510567454E+02  0.50528865217E+02  0.30000016313E+02 0.  0.
         12    1    1    2    0    0  0.31591908359E+02 -0.73721537316E+01 -0.24510567454E+02  0.40659134783E+02  0.00000000000E+00 0. -1.
         11    1    3    3    0    0 -0.16270012721E+01 -0.94431876011E+00 -0.37766915968E+01  0.42192737217E+01  0.51100000000E-03 0. -1.
        -11    1    3    3    0    0 -0.96810309458E+01  0.79678790854E+01  0.21552015291E+02  0.24933889000E+02  0.51100000000E-03 0.  1.
        -12    1    3    3    0    0 -0.20283876141E+02  0.34859340631E+00  0.67352437598E+01  0.21375702495E+02  0.00000000000E+00 0.  1.
</event>
<event>
 7    1  0.2900470E-011  0.5052887E+02  0.7816164E-02  0.1300439E+00
        -11   -1    0    0    0    0  0.00000000000E+00  0.00000000000E+00  0.45593999997E+02  0.45594000000E+02  0.51100000000E-03 0.  1.
         11   -1    0    0    0    0 -0.00000000000E+00 -0.00000000000E+00 -0.45593999997E+02  0.45594000000E+02  0.51100000000E-03 0. -1.
    9900012    2    1    2    0    0  0.17832226529E+01 -0.21584464848E+02  0.34410699094E+02  0.50528865504E+02  0.30000017187E+02 0.  0.
         12    1    1    2    0    0 -0.17832226529E+01  0.21584464848E+02 -0.34410699094E+02  0.40659134496E+02  0.00000000000E+00 0. -1.
         11    1    3    3    0    0  0.30970252166E+01  0.30058737693E+00 -0.15086612435E+01  0.34580307940E+01  0.51100000000E-03 0. -1.
        -11    1    3    3    0    0 -0.63676192531E+00 -0.25728171616E+02  0.26823198903E+02  0.37172950920E+02  0.51100000000E-03 0.  1.
        -12    1    3    3    0    0 -0.67704063841E+00  0.38431193913E+01  0.90961614345E+01  0.98978837902E+01  0.00000000000E+00 0.  1.
</event>
<event>
 7    1  0.2900470E-011  0.5052885E+02  0.7816164E-02  0.1300439E+00
        -11   -1    0    0    0    0  0.00000000000E+00  0.00000000000E+00  0.45593999997E+02  0.45594000000E+02  0.51100000000E-03 0.  1.
         11   -1    0    0    0    0 -0.00000000000E+00 -0.00000000000E+00 -0.45593999997E+02  0.45594000000E+02  0.51100000000E-03 0. -1.
    9900012    2    1    2    0    0  0.19579570262E+02  0.24681646500E+02  0.25702594921E+02  0.50528848125E+02  0.29999964359E+02 0.  0.
         12    1    1    2    0    0 -0.19579570262E+02 -0.24681646500E+02 -0.25702594921E+02  0.40659151875E+02  0.00000000000E+00 0. -1.
         11    1    3    3    0    0  0.23550530437E+01  0.52993753298E+01 -0.16716680249E+01  0.60352405065E+01  0.51100000000E-03 0. -1.
        -11    1    3    3    0    0  0.18040238297E+02  0.52899873334E+01  0.23020293018E+02  0.29721508284E+02  0.51100000000E-03 0.  1.
        -12    1    3    3    0    0 -0.81572107866E+00  0.14092283837E+02  0.43539699279E+01  0.14772099334E+02  0.00000000000E+00 0.  1.
</event>
<event>
 7    1  0.2900470E-011  0.5052886E+02  0.7816164E-02  0.1300439E+00
        -11   -1    0    0    0    0  0.00000000000E+00  0.00000000000E+00  0.45593999997E+02  0.45594000000E+02  0.51100000000E-03 0. -1.
         11   -1    0    0    0    0 -0.00000000000E+00 -0.00000000000E+00 -0.45593999997E+02  0.45594000000E+02  0.51100000000E-03 0.  1.
    9900012    2    1    2    0    0 -0.12261082374E+02  0.35980107931E+02 -0.14431343221E+02  0.50528856196E+02  0.29999988894E+02 0.  0.
         12    1    1    2    0    0  0.12261082374E+02 -0.35980107931E+02  0.14431343221E+02  0.40659143804E+02  0.00000000000E+00 0. -1.
         11    1    3    3    0    0 -0.41369605632E+01 -0.38538228613E+01  0.20561776711E+00  0.56576207256E+01  0.51100000000E-03 0. -1.
        -11    1    3    3    0    0 -0.40637949472E+01  0.19597233456E+02 -0.81524014264E+00  0.20030741506E+02  0.51100000000E-03 0.  1.
         12    1    3    3    0    0 -0.40603268631E+01  0.20236697336E+02 -0.13821720846E+02  0.24840493965E+02  0.00000000000E+00 0. -1.
</event>
<event>
 7    1  0.2900470E-011  0.5052873E+02  0.7816164E-02  0.1300439E+00
        -11   -1    0    0    0    0  0.00000000000E+00  0.00000000000E+00  0.45593999997E+02  0.45594000000E+02  0.51100000000E-03 0.  1.
         11   -1    0    0    0    0 -0.00000000000E+00 -0.00000000000E+00 -0.45593999997E+02  0.45594000000E+02  0.51100000000E-03 0. -1.
    9900012    2    1    2    0    0  0.37980623713E+02  0.20406775279E+01  0.14369565526E+02  0.50528726079E+02  0.29999593386E+02 0.  0.
         12    1    1    2    0    0 -0.37980623713E+02 -0.20406775279E+01 -0.14369565526E+02  0.40659273921E+02  0.00000000000E+00 0. -1.
         11    1    3    3    0    0  0.41103416449E+01  0.72254384521E+01 -0.47684904964E+01  0.95833382043E+01  0.51100000000E-03 0. -1.
        -11    1    3    3    0    0  0.31410948910E+02 -0.26746331485E+01  0.13481927062E+02  0.34286494885E+02  0.51100000000E-03 0.  1.
        -12    1    3    3    0    0  0.24593331582E+01 -0.25101277757E+01  0.56561289602E+01  0.66588929897E+01  0.00000000000E+00 0.  1.
</event>
<event>
 7    1  0.2900470E-011  0.5052886E+02  0.7816164E-02  0.1300439E+00
        -11   -1    0    0    0    0  0.00000000000E+00  0.00000000000E+00  0.45593999997E+02  0.45594000000E+02  0.51100000000E-03 0. -1.
         11   -1    0    0    0    0 -0.00000000000E+00 -0.00000000000E+00 -0.45593999997E+02  0.45594000000E+02  0.51100000000E-03 0.  1.
    9900012    2    1    2    0    0 -0.27309293453E+01  0.34248466066E+02  0.21742816295E+02  0.50528862486E+02  0.30000008011E+02 0.  0.
         12    1    1    2    0    0  0.27309293453E+01 -0.34248466066E+02 -0.21742816295E+02  0.40659137514E+02  0.00000000000E+00 0. -1.
         11    1    3    3    0    0 -0.12978957137E+01  0.15787990811E+01 -0.45559750714E+01  0.49934005382E+01  0.51100000000E-03 0. -1.
        -11    1    3    3    0    0  0.33506462743E+01  0.27193621890E+02  0.12885229981E+02  0.30277864090E+02  0.51100000000E-03 0.  1.
         12    1    3    3    0    0 -0.47836799059E+01  0.54760450954E+01  0.13413561386E+02  0.15257597857E+02  0.00000000000E+00 0. -1.
</event>
<event>
 7    1  0.2900470E-011  0.5052888E+02  0.7816164E-02  0.1300439E+00
        -11   -1    0    0    0    0  0.00000000000E+00  0.00000000000E+00  0.45593999997E+02  0.45594000000E+02  0.51100000000E-03 0.  1.
         11   -1    0    0    0    0 -0.00000000000E+00 -0.00000000000E+00 -0.45593999997E+02  0.45594000000E+02  0.51100000000E-03 0. -1.
    9900012    2    1    2    0    0 -0.60113059777E+01 -0.34109252109E+02 -0.21297583467E+02  0.50528881213E+02  0.30000064934E+02 0.  0.
         12    1    1    2    0    0  0.60113059777E+01  0.34109252109E+02  0.21297583467E+02  0.40659118787E+02  0.00000000000E+00 0. -1.
         11    1    3    3    0    0  0.71686429727E+00  0.50635260826E+00 -0.75205201605E+01  0.75715593592E+01  0.51100000000E-03 0. -1.
        -11    1    3    3    0    0 -0.11408962080E+02 -0.23659841119E+02 -0.22226037251E+01  0.26360813059E+02  0.51100000000E-03 0.  1.
        -12    1    3    3    0    0  0.46807918055E+01 -0.10955763598E+02 -0.11554459582E+02  0.16596508795E+02  0.00000000000E+00 0.  1.
</event>
<event>
 7    1  0.2900470E-011  0.5052883E+02  0.7816164E-02  0.1300439E+00
        -11   -1    0    0    0    0  0.00000000000E+00  0.00000000000E+00  0.45593999997E+02  0.45594000000E+02  0.51100000000E-03 0.  1.
         11   -1    0    0    0    0 -0.00000000000E+00 -0.00000000000E+00 -0.45593999997E+02  0.45594000000E+02  0.51100000000E-03 0. -1.
    9900012    2    1    2    0    0 -0.24571304986E+02 -0.18777228492E+02  0.26397621343E+02  0.50528834353E+02  0.29999922499E+02 0.  0.
         12    1    1    2    0    0  0.24571304986E+02  0.18777228492E+02 -0.26397621343E+02  0.40659165647E+02  0.00000000000E+00 0. -1.
         11    1    3    3    0    0 -0.20509461818E+01  0.18875234732E+00 -0.52754214011E+00  0.21261017520E+01  0.51100000000E-03 0. -1.
        -11    1    3    3    0    0 -0.19750023402E+02 -0.18196200703E+02  0.63072025153E+01  0.27585248743E+02  0.51100000000E-03 0.  1.
        -12    1    3    3    0    0 -0.27703354024E+01 -0.76978013631E+00  0.20617960967E+02  0.20817483857E+02  0.00000000000E+00 0.  1.
</event>
<event>
 7    1  0.2900470E-011  0.5052884E+02  0.7816164E-02  0.1300439E+00
        -11   -1    0    0    0    0  0.00000000000E+00  0.00000000000E+00  0.45593999997E+02  0.45594000000E+02  0.51100000000E-03 0.  1.
         11   -1    0    0    0    0 -0.00000000000E+00 -0.00000000000E+00 -0.45593999997E+02  0.45594000000E+02  0.51100000000E-03 0. -1.
    9900012    2    1    2    0    0  0.67439916540E+00  0.11901741789E+01  0.40636141956E+02  0.50528839139E+02  0.29999937047E+02 0.  0.
         12    1    1    2    0    0 -0.67439916540E+00 -0.11901741789E+01 -0.40636141956E+02  0.40659160861E+02  0.00000000000E+00 0. -1.
         11    1    3    3    0    0 -0.15810663031E+01  0.11867152052E+02  0.91732612820E+01  0.15082366900E+02  0.51100000000E-03 0. -1.
        -11    1    3    3    0    0  0.34526636345E+01 -0.83439197447E+01  0.31555922539E+02  0.32822524742E+02  0.51100000000E-03 0.  1.
        -12    1    3    3    0    0 -0.11971981660E+01 -0.23330581288E+01 -0.93041864624E-01  0.26239474975E+01  0.00000000000E+00 0.  1.
</event>
<event>
 7    1  0.2900470E-011  0.5052885E+02  0.7816164E-02  0.1300439E+00
        -11   -1    0    0    0    0  0.00000000000E+00  0.00000000000E+00  0.45593999997E+02  0.45594000000E+02  0.51100000000E-03 0. -1.
         11   -1    0    0    0    0 -0.00000000000E+00 -0.00000000000E+00 -0.45593999997E+02  0.45594000000E+02  0.51100000000E-03 0.  1.
    9900012    2    1    2    0    0  0.15571233429E+00 -0.19427382987E+02 -0.35717207737E+02  0.50528851158E+02  0.29999973579E+02 0.  0.
         12    1    1    2    0    0 -0.15571233429E+00  0.19427382987E+02  0.35717207737E+02  0.40659148842E+02  0.00000000000E+00 0. -1.
         11    1    3    3    0    0  0.21552884031E+01 -0.16571875247E+00  0.35700297266E+01  0.41734689787E+01  0.51100000000E-03 0. -1.
        -11    1    3    3    0    0 -0.23129117674E+01 -0.21841426564E+02 -0.34250863914E+02  0.40688071400E+02  0.51100000000E-03 0.  1.
        -12    1    3    3    0    0  0.31333569855E+00  0.25797623287E+01 -0.50363735497E+01  0.56673107789E+01  0.00000000000E+00 0.  1.
</event>
<event>
 7    1  0.2900470E-011  0.5052887E+02  0.7816164E-02  0.1300439E+00
        -11   -1    0    0    0    0  0.00000000000E+00  0.00000000000E+00  0.45593999997E+02  0.45594000000E+02  0.51100000000E-03 0.  1.
         11   -1    0    0    0    0 -0.00000000000E+00 -0.00000000000E+00 -0.45593999997E+02  0.45594000000E+02  0.51100000000E-03 0. -1.
    9900012    2    1    2    0    0  0.11318012708E+02  0.99709835452E+01  0.37757737350E+02  0.50528872435E+02  0.30000038255E+02 0.  0.
         12    1    1    2    0    0 -0.11318012708E+02 -0.99709835452E+01 -0.37757737350E+02  0.40659127565E+02  0.00000000000E+00 0. -1.
         11    1    3    3    0    0 -0.42219030281E+01  0.58244511059E+01 -0.17030397031E+01  0.73924989249E+01  0.51100000000E-03 0. -1.
        -11    1    3    3    0    0  0.97152715368E+01  0.93355250823E+00  0.30172260589E+02  0.31711564620E+02  0.51100000000E-03 0.  1.
        -12    1    3    3    0    0  0.58246441994E+01  0.32129799311E+01  0.92885164637E+01  0.11424808890E+02  0.00000000000E+00 0.  1.
</event>
<event>
 7    1  0.2900470E-011  0.5052886E+02  0.7816164E-02  0.1300439E+00
        -11   -1    0    0    0    0  0.00000000000E+00  0.00000000000E+00  0.45593999997E+02  0.45594000000E+02  0.51100000000E-03 0.  1.
         11   -1    0    0    0    0 -0.00000000000E+00 -0.00000000000E+00 -0.45593999997E+02  0.45594000000E+02  0.51100000000E-03 0. -1.
    9900012    2    1    2    0    0 -0.23665795809E+02 -0.31203158549E+02  0.10929699034E+02  0.50528864303E+02  0.30000013535E+02 0.  0.
         12    1    1    2    0    0  0.23665795809E+02  0.31203158549E+02 -0.10929699034E+02  0.40659135697E+02  0.00000000000E+00 0. -1.
         11    1    3    3    0    0 -0.56042639361E+01 -0.18594809418E+02 -0.83071717147E+00  0.19438744888E+02  0.51100000000E-03 0.  1.
        -11    1    3    3    0    0 -0.13418882514E+02  0.77912202279E+00  0.10121294817E+02  0.16825993228E+02  0.51100000000E-03 0. -1.
         12    1    3    3    0    0 -0.46426493584E+01 -0.13387471154E+02  0.16391213878E+01  0.14264126187E+02  0.00000000000E+00 0. -1.
</event>
<event>
 7    1  0.2900470E-011  0.5052886E+02  0.7816164E-02  0.1300439E+00
        -11   -1    0    0    0    0  0.00000000000E+00  0.00000000000E+00  0.45593999997E+02  0.45594000000E+02  0.51100000000E-03 0.  1.
         11   -1    0    0    0    0 -0.00000000000E+00 -0.00000000000E+00 -0.45593999997E+02  0.45594000000E+02  0.51100000000E-03 0. -1.
    9900012    2    1    2    0    0  0.23972442340E+02  0.24340452202E+02  0.22046092402E+02  0.50528858404E+02  0.29999995606E+02 0.  0.
         12    1    1    2    0    0 -0.23972442340E+02 -0.24340452202E+02 -0.22046092402E+02  0.40659141596E+02  0.00000000000E+00 0. -1.
         11    1    3    3    0    0 -0.13573219899E+01  0.61881682760E+01  0.63337836615E+01  0.89583796151E+01  0.51100000000E-03 0. -1.
        -11    1    3    3    0    0  0.24358532205E+02  0.10276358254E+02  0.19427706845E+02  0.32808191411E+02  0.51100000000E-03 0.  1.
        -12    1    3    3    0    0  0.97123212452E+00  0.78759256713E+01 -0.37153981046E+01  0.87622873780E+01  0.00000000000E+00 0.  1.
</event>
<event>
 7    1  0.2900470E-011  0.5052886E+02  0.7816164E-02  0.1300439E+00
        -11   -1    0    0    0    0  0.00000000000E+00  0.00000000000E+00  0.45593999997E+02  0.45594000000E+02  0.51100000000E-03 0. -1.
         11   -1    0    0    0    0 -0.00000000000E+00 -0.00000000000E+00 -0.45593999997E+02  0.45594000000E+02  0.51100000000E-03 0.  1.
    9900012    2    1    2    0    0 -0.33033682648E+02  0.14976994891E+02 -0.18374737792E+02  0.50528861369E+02  0.30000004618E+02 0.  0.
         12    1    1    2    0    0  0.33033682648E+02 -0.14976994891E+02  0.18374737792E+02  0.40659138631E+02  0.00000000000E+00 0. -1.
         11    1    3    3    0    0 -0.32928169153E+02  0.32944169498E+01 -0.14701115424E+02  0.36211052205E+02  0.51100000000E-03 0. -1.
        -11    1    3    3    0    0 -0.24326951777E+01  0.98211520592E+01 -0.47128974485E+01  0.11161739838E+02  0.51100000000E-03 0.  1.
         12    1    3    3    0    0  0.23271816830E+01  0.18614258818E+01  0.10392750800E+01  0.31560693261E+01  0.00000000000E+00 0. -1.
</event>
<event>
 7    1  0.2900470E-011  0.5052885E+02  0.7816164E-02  0.1300439E+00
        -11   -1    0    0    0    0  0.00000000000E+00  0.00000000000E+00  0.45593999997E+02  0.45594000000E+02  0.51100000000E-03 0.  1.
         11   -1    0    0    0    0 -0.00000000000E+00 -0.00000000000E+00 -0.45593999997E+02  0.45594000000E+02  0.51100000000E-03 0. -1.
    9900012    2    1    2    0    0  0.25267768973E+02  0.22742039512E+02  0.22304839284E+02  0.50528851392E+02  0.29999974291E+02 0.  0.
         12    1    1    2    0    0 -0.25267768973E+02 -0.22742039512E+02 -0.22304839284E+02  0.40659148608E+02  0.00000000000E+00 0. -1.
         11    1    3    3    0    0  0.10099575453E+02  0.30400201079E+01  0.22266594677E+02  0.24638270746E+02  0.51100000000E-03 0. -1.
        -11    1    3    3    0    0  0.74425339440E+01  0.10434666508E+02  0.35958362805E+01  0.13311784833E+02  0.51100000000E-03 0.  1.
         12    1    3    3    0    0  0.77256595754E+01  0.92673528964E+01 -0.35575916730E+01  0.12578795813E+02  0.00000000000E+00 0. -1.
</event>
<event>
 7    1  0.2900470E-011  0.5052886E+02  0.7816164E-02  0.1300439E+00
        -11   -1    0    0    0    0  0.00000000000E+00  0.00000000000E+00  0.45593999997E+02  0.45594000000E+02  0.51100000000E-03 0.  1.
         11   -1    0    0    0    0 -0.00000000000E+00 -0.00000000000E+00 -0.45593999997E+02  0.45594000000E+02  0.51100000000E-03 0. -1.
    9900012    2    1    2    0    0  0.26854331660E+02 -0.29834556359E+02  0.64737880494E+01  0.50528858177E+02  0.29999994915E+02 0.  0.
         12    1    1    2    0    0 -0.26854331660E+02  0.29834556359E+02 -0.64737880494E+01  0.40659141823E+02  0.00000000000E+00 0. -1.
         11    1    3    3    0    0  0.12403845973E+02  0.41325738622E+00 -0.37595124366E+01  0.12967656327E+02  0.51100000000E-03 0. -1.
        -11    1    3    3    0    0  0.79488467868E+01 -0.27133189792E+02  0.51466834566E+01  0.28738171556E+02  0.51100000000E-03 0.  1.
        -12    1    3    3    0    0  0.65016389002E+01 -0.31146239537E+01  0.50866170294E+01  0.88230302938E+01  0.00000000000E+00 0.  1.
</event>
<event>
 7    1  0.2900470E-011  0.5052886E+02  0.7816164E-02  0.1300439E+00
        -11   -1    0    0    0    0  0.00000000000E+00  0.00000000000E+00  0.45593999997E+02  0.45594000000E+02  0.51100000000E-03 0.  1.
         11   -1    0    0    0    0 -0.00000000000E+00 -0.00000000000E+00 -0.45593999997E+02  0.45594000000E+02  0.51100000000E-03 0. -1.
    9900012    2    1    2    0    0 -0.35318715962E+02 -0.12897312394E+02  0.15472975784E+02  0.50528863956E+02  0.30000012481E+02 0.  0.
         12    1    1    2    0    0  0.35318715962E+02  0.12897312394E+02 -0.15472975784E+02  0.40659136044E+02  0.00000000000E+00 0. -1.
         11    1    3    3    0    0 -0.11971673066E+02 -0.76723404090E+01 -0.68693690774E+01  0.15791579881E+02  0.51100000000E-03 0. -1.
        -11    1    3    3    0    0 -0.23344075090E+02 -0.50763229752E+01  0.23535103461E+02  0.33535294719E+02  0.51100000000E-03 0.  1.
        -12    1    3    3    0    0 -0.29678069086E-02 -0.14864901014E+00 -0.11927585992E+01  0.12019893560E+01  0.00000000000E+00 0.  1.
</event>
<event>
 7    1  0.2900470E-011  0.5052899E+02  0.7816164E-02  0.1300438E+00
        -11   -1    0    0    0    0  0.00000000000E+00  0.00000000000E+00  0.45593999997E+02  0.45594000000E+02  0.51100000000E-03 0. -1.
         11   -1    0    0    0    0 -0.00000000000E+00 -0.00000000000E+00 -0.45593999997E+02  0.45594000000E+02  0.51100000000E-03 0.  1.
    9900012    2    1    2    0    0  0.49562702627E+01 -0.31214699540E+02 -0.25577973639E+02  0.50528993399E+02  0.30000405934E+02 0.  0.
         12    1    1    2    0    0 -0.49562702627E+01  0.31214699540E+02  0.25577973639E+02  0.40659006601E+02  0.00000000000E+00 0. -1.
         11    1    3    3    0    0 -0.76204995017E+01 -0.25752778589E+02 -0.22728252596E+02  0.35183107936E+02  0.51100000000E-03 0. -1.
        -11    1    3    3    0    0  0.59341167545E+01 -0.19056472610E+01 -0.44308403804E+01  0.76470634806E+01  0.51100000000E-03 0.  1.
         12    1    3    3    0    0  0.66426530099E+01 -0.35562736897E+01  0.15811193368E+01  0.76988219828E+01  0.00000000000E+00 0. -1.
</event>
<event>
 7    1  0.2900470E-011  0.5052886E+02  0.7816164E-02  0.1300439E+00
        -11   -1    0    0    0    0  0.00000000000E+00  0.00000000000E+00  0.45593999997E+02  0.45594000000E+02  0.51100000000E-03 0. -1.
         11   -1    0    0    0    0 -0.00000000000E+00 -0.00000000000E+00 -0.45593999997E+02  0.45594000000E+02  0.51100000000E-03 0.  1.
    9900012    2    1    2    0    0 -0.36613867195E+02 -0.15614691502E+02 -0.82928884310E+01  0.50528857606E+02  0.29999993179E+02 0.  0.
         12    1    1    2    0    0  0.36613867195E+02  0.15614691502E+02  0.82928884310E+01  0.40659142394E+02  0.00000000000E+00 0. -1.
         11    1    3    3    0    0 -0.93767010271E+01 -0.64375085349E+01 -0.12373563970E+02  0.16806817780E+02  0.51100000000E-03 0. -1.
        -11    1    3    3    0    0 -0.16473231116E+02 -0.13346825994E+02  0.59679114846E+01  0.22025464246E+02  0.51100000000E-03 0.  1.
         12    1    3    3    0    0 -0.10763935052E+02  0.41696430271E+01 -0.18872359452E+01  0.11696575580E+02  0.00000000000E+00 0. -1.
</event>
<event>
 7    1  0.2900470E-011  0.5052884E+02  0.7816164E-02  0.1300439E+00
        -11   -1    0    0    0    0  0.00000000000E+00  0.00000000000E+00  0.45593999997E+02  0.45594000000E+02  0.51100000000E-03 0.  1.
         11   -1    0    0    0    0 -0.00000000000E+00 -0.00000000000E+00 -0.45593999997E+02  0.45594000000E+02  0.51100000000E-03 0. -1.
    9900012    2    1    2    0    0 -0.43219572005E+01 -0.32285551935E+02  0.24333737233E+02  0.50528844260E+02  0.29999952611E+02 0.  0.
         12    1    1    2    0    0  0.43219572005E+01  0.32285551935E+02 -0.24333737233E+02  0.40659155740E+02  0.00000000000E+00 0. -1.
         11    1    3    3    0    0 -0.11011755664E+02 -0.23945142466E+02  0.70839223804E+01  0.27291217765E+02  0.51100000000E-03 0. -1.
        -11    1    3    3    0    0  0.92483825516E+01 -0.33540865226E+01  0.95201774354E+01  0.13690005657E+02  0.51100000000E-03 0.  1.
         12    1    3    3    0    0 -0.25585840884E+01 -0.49863229460E+01  0.77296374177E+01  0.95476208381E+01  0.00000000000E+00 0. -1.
</event>
<event>
 7    1  0.2900470E-011  0.5052887E+02  0.7816164E-02  0.1300439E+00
        -11   -1    0    0    0    0  0.00000000000E+00  0.00000000000E+00  0.45593999997E+02  0.45594000000E+02  0.51100000000E-03 0.  1.
         11   -1    0    0    0    0 -0.00000000000E+00 -0.00000000000E+00 -0.45593999997E+02  0.45594000000E+02  0.51100000000E-03 0. -1.
    9900012    2    1    2    0    0 -0.32014430460E+02  0.20719918028E+02  0.14104118414E+02  0.50528869205E+02  0.30000028436E+02 0.  0.
         12    1    1    2    0    0  0.32014430460E+02 -0.20719918028E+02 -0.14104118414E+02  0.40659130795E+02  0.00000000000E+00 0. -1.
         11    1    3    3    0    0 -0.12442891647E+02 -0.72065853150E+01  0.41201674932E+01  0.14957814175E+02  0.51100000000E-03 0. -1.
        -11    1    3    3    0    0 -0.12872893493E+02  0.17009860988E+02  0.60845277923E+01  0.22182611128E+02  0.51100000000E-03 0.  1.
         12    1    3    3    0    0 -0.66986453196E+01  0.10916642354E+02  0.38994231284E+01  0.13388443903E+02  0.00000000000E+00 0. -1.
</event>
<event>
 7    1  0.2900470E-011  0.5052886E+02  0.7816164E-02  0.1300439E+00
        -11   -1    0    0    0    0  0.00000000000E+00  0.00000000000E+00  0.45593999997E+02  0.45594000000E+02  0.51100000000E-03 0. -1.
         11   -1    0    0    0    0 -0.00000000000E+00 -0.00000000000E+00 -0.45593999997E+02  0.45594000000E+02  0.51100000000E-03 0.  1.
    9900012    2    1    2    0    0  0.28715235644E+00  0.63324383353E+01 -0.40161964846E+02  0.50528860166E+02  0.30000000962E+02 0.  0.
         12    1    1    2    0    0 -0.28715235644E+00 -0.63324383353E+01  0.40161964846E+02  0.40659139834E+02  0.00000000000E+00 0. -1.
         11    1    3    3    0    0  0.30987784549E+01  0.81927954899E+00 -0.18657691462E+01  0.37087385537E+01  0.51100000000E-03 0. -1.
        -11    1    3    3    0    0 -0.10042650350E+02  0.11097722150E+02 -0.12655962267E+02  0.19600705194E+02  0.51100000000E-03 0.  1.
        -12    1    3    3    0    0  0.72310242514E+01 -0.55845633632E+01 -0.25640233432E+02  0.27219416418E+02  0.00000000000E+00 0.  1.
</event>
<event>
 7    1  0.2900470E-011  0.5052886E+02  0.7816164E-02  0.1300439E+00
        -11   -1    0    0    0    0  0.00000000000E+00  0.00000000000E+00  0.45593999997E+02  0.45594000000E+02  0.51100000000E-03 0.  1.
         11   -1    0    0    0    0 -0.00000000000E+00 -0.00000000000E+00 -0.45593999997E+02  0.45594000000E+02  0.51100000000E-03 0. -1.
    9900012    2    1    2    0    0 -0.32215745565E+02 -0.11143505552E+02  0.22161545226E+02  0.50528855087E+02  0.29999985521E+02 0.  0.
         12    1    1    2    0    0  0.32215745565E+02  0.11143505552E+02 -0.22161545226E+02  0.40659144913E+02  0.00000000000E+00 0. -1.
         11    1    3    3    0    0 -0.21319746930E+02  0.88679192022E+00  0.89561715955E+00  0.21356969340E+02  0.51100000000E-03 0. -1.
        -11    1    3    3    0    0 -0.43093054337E+01  0.17941601220E+00  0.11286138204E+02  0.12082186030E+02  0.51100000000E-03 0.  1.
         12    1    3    3    0    0 -0.65866932014E+01 -0.12209713485E+02  0.99797898619E+01  0.17089699716E+02  0.00000000000E+00 0. -1.
</event>
<event>
 7    1  0.2900470E-011  0.5052886E+02  0.7816164E-02  0.1300439E+00
        -11   -1    0    0    0    0  0.00000000000E+00  0.00000000000E+00  0.45593999997E+02  0.45594000000E+02  0.51100000000E-03 0.  1.
         11   -1    0    0    0    0 -0.00000000000E+00 -0.00000000000E+00 -0.45593999997E+02  0.45594000000E+02  0.51100000000E-03 0. -1.
    9900012    2    1    2    0    0  0.15431651318E+02  0.34313232600E+02  0.15415307139E+02  0.50528862183E+02  0.30000007090E+02 0.  0.
         12    1    1    2    0    0 -0.15431651318E+02 -0.34313232600E+02 -0.15415307139E+02  0.40659137817E+02  0.00000000000E+00 0. -1.
         11    1    3    3    0    0 -0.53745414295E+01  0.43887253103E+01  0.36498850066E+01  0.78401700396E+01  0.51100000000E-03 0. -1.
        -11    1    3    3    0    0  0.15144764423E+02  0.31630898078E+02  0.10818339415E+02  0.36700327936E+02  0.51100000000E-03 0.  1.
        -12    1    3    3    0    0  0.56614283246E+01 -0.17063907887E+01  0.94708271714E+00  0.59883642067E+01  0.00000000000E+00 0.  1.
</event>
<event>
 7    1  0.2900470E-011  0.5052885E+02  0.7816164E-02  0.1300439E+00
        -11   -1    0    0    0    0  0.00000000000E+00  0.00000000000E+00  0.45593999997E+02  0.45594000000E+02  0.51100000000E-03 0. -1.
         11   -1    0    0    0    0 -0.00000000000E+00 -0.00000000000E+00 -0.45593999997E+02  0.45594000000E+02  0.51100000000E-03 0.  1.
    9900012    2    1    2    0    0  0.27288062241E+02 -0.62267913630E+01 -0.29491613932E+02  0.50528848953E+02  0.29999966878E+02 0.  0.
         12    1    1    2    0    0 -0.27288062241E+02  0.62267913630E+01  0.29491613932E+02  0.40659151047E+02  0.00000000000E+00 0. -1.
         11    1    3    3    0    0  0.20487862832E+01 -0.54506344439E+00 -0.10654338417E+02  0.10863219907E+02  0.51100000000E-03 0. -1.
        -11    1    3    3    0    0  0.15042366960E+02 -0.12152107875E+01  0.27847165771E+01  0.15346145695E+02  0.51100000000E-03 0.  1.
        -12    1    3    3    0    0  0.10196908997E+02 -0.44665171311E+01 -0.21621992092E+02  0.24319483350E+02  0.00000000000E+00 0.  1.
</event>
<event>
 7    1  0.2900470E-011  0.5052885E+02  0.7816164E-02  0.1300439E+00
        -11   -1    0    0    0    0  0.00000000000E+00  0.00000000000E+00  0.45593999997E+02  0.45594000000E+02  0.51100000000E-03 0.  1.
         11   -1    0    0    0    0 -0.00000000000E+00 -0.00000000000E+00 -0.45593999997E+02  0.45594000000E+02  0.51100000000E-03 0. -1.
    9900012    2    1    2    0    0  0.36617166850E+02  0.46042525540E+01  0.17063127981E+02  0.50528851138E+02  0.29999973519E+02 0.  0.
         12    1    1    2    0    0 -0.36617166850E+02 -0.46042525540E+01 -0.17063127981E+02  0.40659148862E+02  0.00000000000E+00 0. -1.
         11    1    3    3    0    0  0.41990794169E+01 -0.52259368263E+01 -0.52450226164E+01  0.85119296384E+01  0.51100000000E-03 0. -1.
        -11    1    3    3    0    0  0.17589200333E+02  0.10647696155E+02  0.10774811493E+02  0.23213142069E+02  0.51100000000E-03 0.  1.
         12    1    3    3    0    0  0.14828887100E+02 -0.81750677494E+00  0.11533339105E+02  0.18803779430E+02  0.00000000000E+00 0. -1.
</event>
<event>
 7    1  0.2900470E-011  0.5052886E+02  0.7816164E-02  0.1300439E+00
        -11   -1    0    0    0    0  0.00000000000E+00  0.00000000000E+00  0.45593999997E+02  0.45594000000E+02  0.51100000000E-03 0.  1.
         11   -1    0    0    0    0 -0.00000000000E+00 -0.00000000000E+00 -0.45593999997E+02  0.45594000000E+02  0.51100000000E-03 0. -1.
    9900012    2    1    2    0    0 -0.33515555802E+02  0.14864817085E+02  0.17575855554E+02  0.50528856304E+02  0.29999989221E+02 0.  0.
         12    1    1    2    0    0  0.33515555802E+02 -0.14864817085E+02 -0.17575855554E+02  0.40659143696E+02  0.00000000000E+00 0. -1.
         11    1    3    3    0    0  0.22108318460E+01  0.69643517601E+01  0.63196557727E+01  0.96606429515E+01  0.51100000000E-03 0. -1.
        -11    1    3    3    0    0 -0.30375449363E+02  0.10813267348E+02  0.12620892151E+02  0.34624869583E+02  0.51100000000E-03 0.  1.
        -12    1    3    3    0    0 -0.53509382848E+01 -0.29128020229E+01 -0.13646923697E+01  0.62433437689E+01  0.00000000000E+00 0.  1.
</event>
<event>
 7    1  0.2900470E-011  0.5052886E+02  0.7816164E-02  0.1300439E+00
        -11   -1    0    0    0    0  0.00000000000E+00  0.00000000000E+00  0.45593999997E+02  0.45594000000E+02  0.51100000000E-03 0.  1.
         11   -1    0    0    0    0 -0.00000000000E+00 -0.00000000000E+00 -0.45593999997E+02  0.45594000000E+02  0.51100000000E-03 0. -1.
    9900012    2    1    2    0    0  0.19056186206E+02  0.35914577440E+02 -0.41282469819E+00  0.50528861672E+02  0.30000005537E+02 0.  0.
         12    1    1    2    0    0 -0.19056186206E+02 -0.35914577440E+02  0.41282469819E+00  0.40659138328E+02  0.00000000000E+00 0. -1.
         11    1    3    3    0    0  0.13958702243E+02  0.16618131825E+01 -0.52034642608E+00  0.14066902716E+02  0.51100000000E-03 0. -1.
        -11    1    3    3    0    0  0.13203373798E+01  0.18136658838E+02  0.55906307592E+01  0.19024637635E+02  0.51100000000E-03 0.  1.
         12    1    3    3    0    0  0.37771465832E+01  0.16116105419E+02 -0.54831090313E+01  0.17437321321E+02  0.00000000000E+00 0. -1.
</event>
<event>
 7    1  0.2900470E-011  0.5052887E+02  0.7816164E-02  0.1300439E+00
        -11   -1    0    0    0    0  0.00000000000E+00  0.00000000000E+00  0.45593999997E+02  0.45594000000E+02  0.51100000000E-03 0. -1.
         11   -1    0    0    0    0 -0.00000000000E+00 -0.00000000000E+00 -0.45593999997E+02  0.45594000000E+02  0.51100000000E-03 0.  1.
    9900012    2    1    2    0    0  0.21380479758E+02 -0.31256566197E+02 -0.14800911195E+02  0.50528870431E+02  0.30000032163E+02 0.  0.
         12    1    1    2    0    0 -0.21380479758E+02  0.31256566197E+02  0.14800911195E+02  0.40659129569E+02  0.00000000000E+00 0. -1.
         11    1    3    3    0    0  0.15405223035E+02 -0.12462635355E+02  0.33460521858E+01  0.20095627441E+02  0.51100000000E-03 0. -1.
        -11    1    3    3    0    0 -0.20856293994E+01 -0.13771309620E+02 -0.64035369301E+01  0.15329843578E+02  0.51100000000E-03 0.  1.
         12    1    3    3    0    0  0.80608861228E+01 -0.50226212213E+01 -0.11743426450E+02  0.15103399412E+02  0.00000000000E+00 0. -1.
</event>
<event>
 7    1  0.2900470E-011  0.5052890E+02  0.7816164E-02  0.1300439E+00
        -11   -1    0    0    0    0  0.00000000000E+00  0.00000000000E+00  0.45593999997E+02  0.45594000000E+02  0.51100000000E-03 0.  1.
         11   -1    0    0    0    0 -0.00000000000E+00 -0.00000000000E+00 -0.45593999997E+02  0.45594000000E+02  0.51100000000E-03 0. -1.
    9900012    2    1    2    0    0 -0.39505508389E+02  0.37741108154E+01  0.88449598392E+01  0.50528899910E+02  0.30000121767E+02 0.  0.
         12    1    1    2    0    0  0.39505508389E+02 -0.37741108154E+01 -0.88449598392E+01  0.40659100090E+02  0.00000000000E+00 0. -1.
         11    1    3    3    0    0 -0.90334503710E+01  0.11524857568E+02 -0.45435999923E+01  0.15331988414E+02  0.51100000000E-03 0. -1.
        -11    1    3    3    0    0 -0.18803523406E+02 -0.12769120584E+01  0.52406081369E+01  0.19561875441E+02  0.51100000000E-03 0.  1.
         12    1    3    3    0    0 -0.11668534613E+02 -0.64738346938E+01  0.81479516946E+01  0.15635036056E+02  0.00000000000E+00 0. -1.
</event>
<event>
 7    1  0.2900470E-011  0.5052885E+02  0.7816164E-02  0.1300439E+00
        -11   -1    0    0    0    0  0.00000000000E+00  0.00000000000E+00  0.45593999997E+02  0.45594000000E+02  0.51100000000E-03 0.  1.
         11   -1    0    0    0    0 -0.00000000000E+00 -0.00000000000E+00 -0.45593999997E+02  0.45594000000E+02  0.51100000000E-03 0. -1.
    9900012    2    1    2    0    0  0.74832099027E+01 -0.65660141005E+01  0.39421505947E+02  0.50528854623E+02  0.29999984113E+02 0.  0.
         12    1    1    2    0    0 -0.74832099027E+01  0.65660141005E+01 -0.39421505947E+02  0.40659145377E+02  0.00000000000E+00 0. -1.
         11    1    3    3    0    0  0.60676440369E+01 -0.85364558007E+01  0.54165199585E+01  0.11790931707E+02  0.51100000000E-03 0. -1.
        -11    1    3    3    0    0  0.81958224586E+01  0.53016683649E+01  0.25800496904E+02  0.27585228547E+02  0.51100000000E-03 0.  1.
        -12    1    3    3    0    0 -0.67802565929E+01 -0.33312266648E+01  0.82044890848E+01  0.11152694370E+02  0.00000000000E+00 0.  1.
</event>
<event>
 7    1  0.2900470E-011  0.5052886E+02  0.7816164E-02  0.1300439E+00
        -11   -1    0    0    0    0  0.00000000000E+00  0.00000000000E+00  0.45593999997E+02  0.45594000000E+02  0.51100000000E-03 0.  1.
         11   -1    0    0    0    0 -0.00000000000E+00 -0.00000000000E+00 -0.45593999997E+02  0.45594000000E+02  0.51100000000E-03 0. -1.
    9900012    2    1    2    0    0 -0.11749638202E+02 -0.38005507590E+02  0.84079062009E+01  0.50528862138E+02  0.30000006954E+02 0.  0.
         12    1    1    2    0    0  0.11749638202E+02  0.38005507590E+02 -0.84079062009E+01  0.40659137862E+02  0.00000000000E+00 0. -1.
         11    1    3    3    0    0 -0.62168684411E+01 -0.99131470960E+01 -0.77207842476E+01  0.14018931779E+02  0.51100000000E-03 0. -1.
        -11    1    3    3    0    0  0.46360948800E+01 -0.12850275572E+02  0.10839422660E+02  0.17438923186E+02  0.51100000000E-03 0.  1.
        -12    1    3    3    0    0 -0.10168864641E+02 -0.15242084922E+02  0.52892677881E+01  0.19071007173E+02  0.00000000000E+00 0.  1.
</event>
<event>
 7    1  0.2900470E-011  0.5052886E+02  0.7816164E-02  0.1300439E+00
        -11   -1    0    0    0    0  0.00000000000E+00  0.00000000000E+00  0.45593999997E+02  0.45594000000E+02  0.51100000000E-03 0.  1.
         11   -1    0    0    0    0 -0.00000000000E+00 -0.00000000000E+00 -0.45593999997E+02  0.45594000000E+02  0.51100000000E-03 0. -1.
    9900012    2    1    2    0    0  0.32720299304E+02  0.16954563450E+02 -0.17178190154E+02  0.50528862955E+02  0.30000009437E+02 0.  0.
         12    1    1    2    0    0 -0.32720299304E+02 -0.16954563450E+02  0.17178190154E+02  0.40659137045E+02  0.00000000000E+00 0. -1.
         11    1    3    3    0    0  0.45558059339E+01  0.72541666982E+00  0.54634396781E+01  0.71505783284E+01  0.51100000000E-03 0. -1.
        -11    1    3    3    0    0  0.14747942961E+01  0.93065381909E+01 -0.54604052176E+01  0.10890486523E+02  0.51100000000E-03 0.  1.
         12    1    3    3    0    0  0.26689699074E+02  0.69226085888E+01 -0.17181224615E+02  0.32487798103E+02  0.00000000000E+00 0. -1.
</event>
<event>
 7    1  0.2900470E-011  0.5052886E+02  0.7816164E-02  0.1300439E+00
        -11   -1    0    0    0    0  0.00000000000E+00  0.00000000000E+00  0.45593999997E+02  0.45594000000E+02  0.51100000000E-03 0.  1.
         11   -1    0    0    0    0 -0.00000000000E+00 -0.00000000000E+00 -0.45593999997E+02  0.45594000000E+02  0.51100000000E-03 0. -1.
    9900012    2    1    2    0    0  0.24577654768E+02  0.16330962361E+02  0.27971486319E+02  0.50528862129E+02  0.30000006929E+02 0.  0.
         12    1    1    2    0    0 -0.24577654768E+02 -0.16330962361E+02 -0.27971486319E+02  0.40659137871E+02  0.00000000000E+00 0. -1.
         11    1    3    3    0    0  0.51022941595E+01  0.20311410078E+02  0.14903670022E+02  0.25704205209E+02  0.51100000000E-03 0. -1.
        -11    1    3    3    0    0  0.18996880634E+02 -0.37648004963E+01  0.13901738940E+02  0.23839327642E+02  0.51100000000E-03 0.  1.
         12    1    3    3    0    0  0.47847997380E+00 -0.21564722090E+00 -0.83392264410E+00  0.98532927773E+00  0.00000000000E+00 0. -1.
</event>
<event>
 7    1  0.2900470E-011  0.5052885E+02  0.7816164E-02  0.1300439E+00
        -11   -1    0    0    0    0  0.00000000000E+00  0.00000000000E+00  0.45593999997E+02  0.45594000000E+02  0.51100000000E-03 0.  1.
         11   -1    0    0    0    0 -0.00000000000E+00 -0.00000000000E+00 -0.45593999997E+02  0.45594000000E+02  0.51100000000E-03 0. -1.
    9900012    2    1    2    0    0  0.10482984292E+02 -0.23541362737E+02  0.31449603154E+02  0.50528852718E+02  0.29999978321E+02 0.  0.
         12    1    1    2    0    0 -0.10482984292E+02  0.23541362737E+02 -0.31449603154E+02  0.40659147282E+02  0.00000000000E+00 0. -1.
         11    1    3    3    0    0 -0.17453891879E+01 -0.17855732765E+00  0.90273377099E+01  0.91962542661E+01  0.51100000000E-03 0. -1.
        -11    1    3    3    0    0  0.14409196233E+02 -0.26787821422E+02  0.21254943965E+02  0.37107747921E+02  0.51100000000E-03 0.  1.
        -12    1    3    3    0    0 -0.21808227527E+01  0.34250160127E+01  0.11673214793E+01  0.42248505301E+01  0.00000000000E+00 0.  1.
</event>
<event>
 7    1  0.2900470E-011  0.5052886E+02  0.7816164E-02  0.1300439E+00
        -11   -1    0    0    0    0  0.00000000000E+00  0.00000000000E+00  0.45593999997E+02  0.45594000000E+02  0.51100000000E-03 0.  1.
         11   -1    0    0    0    0 -0.00000000000E+00 -0.00000000000E+00 -0.45593999997E+02  0.45594000000E+02  0.51100000000E-03 0. -1.
    9900012    2    1    2    0    0 -0.21481984396E+02  0.66849015965E+01  0.33867417632E+02  0.50528861543E+02  0.30000005147E+02 0.  0.
         12    1    1    2    0    0  0.21481984396E+02 -0.66849015965E+01 -0.33867417632E+02  0.40659138457E+02  0.00000000000E+00 0. -1.
         11    1    3    3    0    0 -0.22219177706E+02 -0.23730063434E+01  0.13960277721E+02  0.26347910190E+02  0.51100000000E-03 0. -1.
        -11    1    3    3    0    0 -0.46324910681E+01  0.58527560701E+01  0.11267418391E+02  0.13515526056E+02  0.51100000000E-03 0.  1.
         12    1    3    3    0    0  0.53696843781E+01  0.32051518697E+01  0.86397215205E+01  0.10665425298E+02  0.00000000000E+00 0. -1.
</event>
<event>
 7    1  0.2900470E-011  0.5052887E+02  0.7816164E-02  0.1300439E+00
        -11   -1    0    0    0    0  0.00000000000E+00  0.00000000000E+00  0.45593999997E+02  0.45594000000E+02  0.51100000000E-03 0.  1.
         11   -1    0    0    0    0 -0.00000000000E+00 -0.00000000000E+00 -0.45593999997E+02  0.45594000000E+02  0.51100000000E-03 0. -1.
    9900012    2    1    2    0    0 -0.71285818543E+01 -0.45029061127E+01  0.39775273673E+02  0.50528865252E+02  0.30000016420E+02 0.  0.
         12    1    1    2    0    0  0.71285818543E+01  0.45029061127E+01 -0.39775273673E+02  0.40659134748E+02  0.00000000000E+00 0. -1.
         11    1    3    3    0    0  0.52552264704E+01  0.23013421964E+01  0.34248497237E+00  0.57472495489E+01  0.51100000000E-03 0. -1.
        -11    1    3    3    0    0 -0.45443674755E+00 -0.83687271158E+01  0.22494627281E+02  0.24005215330E+02  0.51100000000E-03 0.  1.
        -12    1    3    3    0    0 -0.11929371577E+02  0.15644788067E+01  0.16938161420E+02  0.20776400373E+02  0.00000000000E+00 0.  1.
</event>
<event>
 7    1  0.2900470E-011  0.5052886E+02  0.7816164E-02  0.1300439E+00
        -11   -1    0    0    0    0  0.00000000000E+00  0.00000000000E+00  0.45593999997E+02  0.45594000000E+02  0.51100000000E-03 0. -1.
         11   -1    0    0    0    0 -0.00000000000E+00 -0.00000000000E+00 -0.45593999997E+02  0.45594000000E+02  0.51100000000E-03 0.  1.
    9900012    2    1    2    0    0  0.32814461019E+02 -0.23907173980E+02 -0.21964024783E+01  0.50528855844E+02  0.29999987824E+02 0.  0.
         12    1    1    2    0    0 -0.32814461019E+02  0.23907173980E+02  0.21964024783E+01  0.40659144156E+02  0.00000000000E+00 0. -1.
         11    1    3    3    0    0  0.96752323924E+01  0.43061164047E+01 -0.52285091948E+01  0.11810591391E+02  0.51100000000E-03 0. -1.
        -11    1    3    3    0    0  0.15101182719E+02 -0.25062737902E+02 -0.80223247392E+00  0.29271660832E+02  0.51100000000E-03 0.  1.
         12    1    3    3    0    0  0.80380459074E+01 -0.31505524818E+01  0.38343391904E+01  0.94466036212E+01  0.00000000000E+00 0. -1.
</event>
<event>
 7    1  0.2900470E-011  0.5052885E+02  0.7816164E-02  0.1300439E+00
        -11   -1    0    0    0    0  0.00000000000E+00  0.00000000000E+00  0.45593999997E+02  0.45594000000E+02  0.51100000000E-03 0.  1.
         11   -1    0    0    0    0 -0.00000000000E+00 -0.00000000000E+00 -0.45593999997E+02  0.45594000000E+02  0.51100000000E-03 0. -1.
    9900012    2    1    2    0    0  0.14914511391E+02  0.36856677644E+02  0.85034934865E+01  0.50528846806E+02  0.29999960351E+02 0.  0.
         12    1    1    2    0    0 -0.14914511391E+02 -0.36856677644E+02 -0.85034934865E+01  0.40659153194E+02  0.00000000000E+00 0. -1.
         11    1    3    3    0    0  0.11183397835E+02  0.15029595312E+01  0.37201089994E+01  0.11881350332E+02  0.51100000000E-03 0. -1.
        -11    1    3    3    0    0 -0.15120998022E+01  0.27585599420E+02 -0.98136970926E+00  0.27644435750E+02  0.51100000000E-03 0.  1.
        -12    1    3    3    0    0  0.52432133587E+01  0.77681186929E+01  0.57647541964E+01  0.11003060724E+02  0.00000000000E+00 0.  1.
</event>
<event>
 7    1  0.2900470E-011  0.5052886E+02  0.7816164E-02  0.1300439E+00
        -11   -1    0    0    0    0  0.00000000000E+00  0.00000000000E+00  0.45593999997E+02  0.45594000000E+02  0.51100000000E-03 0.  1.
         11   -1    0    0    0    0 -0.00000000000E+00 -0.00000000000E+00 -0.45593999997E+02  0.45594000000E+02  0.51100000000E-03 0. -1.
    9900012    2    1    2    0    0 -0.19922537344E+01 -0.88305825937E+01  0.39638580526E+02  0.50528864126E+02  0.30000012997E+02 0.  0.
         12    1    1    2    0    0  0.19922537344E+01  0.88305825937E+01 -0.39638580526E+02  0.40659135874E+02  0.00000000000E+00 0. -1.
         11    1    3    3    0    0 -0.19072940447E+01  0.33381776308E+01 -0.29366555496E+01  0.48378865784E+01  0.51100000000E-03 0. -1.
        -11    1    3    3    0    0 -0.49260399616E+01 -0.94070681318E+01  0.22911374682E+02  0.25252522461E+02  0.51100000000E-03 0.  1.
         12    1    3    3    0    0  0.48410802719E+01 -0.27616920927E+01  0.19663861394E+02  0.20438455087E+02  0.00000000000E+00 0. -1.
</event>
<event>
 7    1  0.2900470E-011  0.5052885E+02  0.7816164E-02  0.1300439E+00
        -11   -1    0    0    0    0  0.00000000000E+00  0.00000000000E+00  0.45593999997E+02  0.45594000000E+02  0.51100000000E-03 0. -1.
         11   -1    0    0    0    0 -0.00000000000E+00 -0.00000000000E+00 -0.45593999997E+02  0.45594000000E+02  0.51100000000E-03 0.  1.
    9900012    2    1    2    0    0  0.17105545073E+02 -0.34489151814E+02 -0.13079181766E+02  0.50528852680E+02  0.29999978207E+02 0.  0.
         12    1    1    2    0    0 -0.17105545073E+02  0.34489151814E+02  0.13079181766E+02  0.40659147320E+02  0.00000000000E+00 0. -1.
         11    1    3    3    0    0  0.14463045454E+02 -0.34260518667E+01 -0.45046677677E+01  0.15530922290E+02  0.51100000000E-03 0. -1.
        -11    1    3    3    0    0  0.22875317675E+01 -0.20607296718E+02 -0.12041141173E+02  0.23976708711E+02  0.51100000000E-03 0.  1.
         12    1    3    3    0    0  0.35496785117E+00 -0.10455803229E+02  0.34666271743E+01  0.11021221680E+02  0.00000000000E+00 0. -1.
</event>
<event>
 7    1  0.2900470E-011  0.5052886E+02  0.7816164E-02  0.1300439E+00
        -11   -1    0    0    0    0  0.00000000000E+00  0.00000000000E+00  0.45593999997E+02  0.45594000000E+02  0.51100000000E-03 0.  1.
         11   -1    0    0    0    0 -0.00000000000E+00 -0.00000000000E+00 -0.45593999997E+02  0.45594000000E+02  0.51100000000E-03 0. -1.
    9900012    2    1    2    0    0  0.21953445928E+02  0.15456241571E+02  0.30533857554E+02  0.50528860207E+02  0.30000001085E+02 0.  0.
         12    1    1    2    0    0 -0.21953445928E+02 -0.15456241571E+02 -0.30533857554E+02  0.40659139793E+02  0.00000000000E+00 0. -1.
         11    1    3    3    0    0  0.26819014525E+02  0.91425939971E+01  0.19589065569E+02  0.34446742302E+02  0.51100000000E-03 0. -1.
        -11    1    3    3    0    0 -0.17333294221E+01  0.79929351445E+01  0.69264959411E+01  0.10717639171E+02  0.51100000000E-03 0.  1.
         12    1    3    3    0    0 -0.31322391755E+01 -0.16792875703E+01  0.40182960437E+01  0.53644787344E+01  0.00000000000E+00 0. -1.
</event>
<event>
 7    1  0.2900470E-011  0.5052885E+02  0.7816164E-02  0.1300439E+00
        -11   -1    0    0    0    0  0.00000000000E+00  0.00000000000E+00  0.45593999997E+02  0.45594000000E+02  0.51100000000E-03 0.  1.
         11   -1    0    0    0    0 -0.00000000000E+00 -0.00000000000E+00 -0.45593999997E+02  0.45594000000E+02  0.51100000000E-03 0. -1.
    9900012    2    1    2    0    0 -0.25298302387E+02 -0.53022558011E+01  0.31385478276E+02  0.50528852606E+02  0.29999977980E+02 0.  0.
         12    1    1    2    0    0  0.25298302387E+02  0.53022558011E+01 -0.31385478276E+02  0.40659147394E+02  0.00000000000E+00 0. -1.
         11    1    3    3    0    0 -0.21330307209E+02 -0.30149222912E+01  0.79166685446E+01  0.22950934690E+02  0.51100000000E-03 0. -1.
        -11    1    3    3    0    0 -0.40537270316E+01  0.29075443562E+01  0.21419531158E+02  0.21992790463E+02  0.51100000000E-03 0.  1.
         12    1    3    3    0    0  0.85731853828E-01 -0.51948778661E+01  0.20492785728E+01  0.55851274527E+01  0.00000000000E+00 0. -1.
</event>
<event>
 7    1  0.2900470E-011  0.5052886E+02  0.7816164E-02  0.1300439E+00
        -11   -1    0    0    0    0  0.00000000000E+00  0.00000000000E+00  0.45593999997E+02  0.45594000000E+02  0.51100000000E-03 0.  1.
         11   -1    0    0    0    0 -0.00000000000E+00 -0.00000000000E+00 -0.45593999997E+02  0.45594000000E+02  0.51100000000E-03 0. -1.
    9900012    2    1    2    0    0  0.25223969311E+02 -0.12250181035E+02  0.29442323060E+02  0.50528856498E+02  0.29999989811E+02 0.  0.
         12    1    1    2    0    0 -0.25223969311E+02  0.12250181035E+02 -0.29442323060E+02  0.40659143502E+02  0.00000000000E+00 0. -1.
         11    1    3    3    0    0 -0.88895461939E+00  0.13991475549E+01 -0.35072670203E+01  0.38792752427E+01  0.51100000000E-03 0. -1.
        -11    1    3    3    0    0  0.24778140166E+02 -0.16540823319E+02  0.28999223082E+02  0.41575353345E+02  0.51100000000E-03 0.  1.
        -12    1    3    3    0    0  0.13347837643E+01  0.28914947291E+01  0.39503669982E+01  0.50742279104E+01  0.00000000000E+00 0.  1.
</event>
<event>
 7    1  0.2900470E-011  0.5052889E+02  0.7816164E-02  0.1300439E+00
        -11   -1    0    0    0    0  0.00000000000E+00  0.00000000000E+00  0.45593999997E+02  0.45594000000E+02  0.51100000000E-03 0.  1.
         11   -1    0    0    0    0 -0.00000000000E+00 -0.00000000000E+00 -0.45593999997E+02  0.45594000000E+02  0.51100000000E-03 0. -1.
    9900012    2    1    2    0    0 -0.20563828288E+02 -0.33440491640E+02 -0.10584234312E+02  0.50528886250E+02  0.30000080246E+02 0.  0.
         12    1    1    2    0    0  0.20563828288E+02  0.33440491640E+02  0.10584234312E+02  0.40659113750E+02  0.00000000000E+00 0. -1.
         11    1    3    3    0    0  0.36906036792E+01 -0.16748637844E-01 -0.33932553114E+00  0.37062080502E+01  0.51100000000E-03 0. -1.
        -11    1    3    3    0    0 -0.23708108807E+02 -0.35555351303E+02 -0.11545088803E+02  0.44266765245E+02  0.51100000000E-03 0.  1.
        -12    1    3    3    0    0 -0.54632315943E+00  0.21316083011E+01  0.13001800222E+01  0.25559129551E+01  0.00000000000E+00 0.  1.
</event>
<event>
 7    1  0.2900470E-011  0.5052886E+02  0.7816164E-02  0.1300439E+00
        -11   -1    0    0    0    0  0.00000000000E+00  0.00000000000E+00  0.45593999997E+02  0.45594000000E+02  0.51100000000E-03 0. -1.
         11   -1    0    0    0    0 -0.00000000000E+00 -0.00000000000E+00 -0.45593999997E+02  0.45594000000E+02  0.51100000000E-03 0.  1.
    9900012    2    1    2    0    0 -0.89502799839E+01  0.35878343363E+02 -0.16905705821E+02  0.50528856827E+02  0.29999990811E+02 0.  0.
         12    1    1    2    0    0  0.89502799839E+01 -0.35878343363E+02  0.16905705821E+02  0.40659143173E+02  0.00000000000E+00 0. -1.
         11    1    3    3    0    0 -0.41530176310E+01  0.61689564411E+01  0.61822510009E+01  0.96707707405E+01  0.51100000000E-03 0. -1.
        -11    1    3    3    0    0 -0.99079663107E+01  0.20062634938E+02 -0.18431342308E+02  0.28989506663E+02  0.51100000000E-03 0.  1.
         12    1    3    3    0    0  0.51107039578E+01  0.96467519840E+01 -0.46566145145E+01  0.11868579423E+02  0.00000000000E+00 0. -1.
</event>
<event>
 7    1  0.2900470E-011  0.5052886E+02  0.7816164E-02  0.1300439E+00
        -11   -1    0    0    0    0  0.00000000000E+00  0.00000000000E+00  0.45593999997E+02  0.45594000000E+02  0.51100000000E-03 0.  1.
         11   -1    0    0    0    0 -0.00000000000E+00 -0.00000000000E+00 -0.45593999997E+02  0.45594000000E+02  0.51100000000E-03 0. -1.
    9900012    2    1    2    0    0 -0.15813325665E+02 -0.30321833179E+02  0.21992970074E+02  0.50528861193E+02  0.30000004081E+02 0.  0.
         12    1    1    2    0    0  0.15813325665E+02  0.30321833179E+02 -0.21992970074E+02  0.40659138807E+02  0.00000000000E+00 0. -1.
         11    1    3    3    0    0 -0.10929724253E+02 -0.21419051575E+01 -0.25708658893E+01  0.11430484751E+02  0.51100000000E-03 0. -1.
        -11    1    3    3    0    0 -0.14094471658E+01 -0.23857945867E+02  0.15542005470E+02  0.28508631265E+02  0.51100000000E-03 0.  1.
         12    1    3    3    0    0 -0.34741542465E+01 -0.43219821537E+01  0.90218304927E+01  0.10589745177E+02  0.00000000000E+00 0. -1.
</event>
<event>
 7    1  0.2900470E-011  0.5052886E+02  0.7816164E-02  0.1300439E+00
        -11   -1    0    0    0    0  0.00000000000E+00  0.00000000000E+00  0.45593999997E+02  0.45594000000E+02  0.51100000000E-03 0.  1.
         11   -1    0    0    0    0 -0.00000000000E+00 -0.00000000000E+00 -0.45593999997E+02  0.45594000000E+02  0.51100000000E-03 0. -1.
    9900012    2    1    2    0    0  0.90273540831E+01  0.12265478466E+02  0.37699215320E+02  0.50528856877E+02  0.29999990964E+02 0.  0.
         12    1    1    2    0    0 -0.90273540831E+01 -0.12265478466E+02 -0.37699215320E+02  0.40659143123E+02  0.00000000000E+00 0. -1.
         11    1    3    3    0    0  0.29993319704E+01  0.49567955376E+01  0.26778372237E+01  0.63825251059E+01  0.51100000000E-03 0. -1.
        -11    1    3    3    0    0  0.25881140683E+01  0.13364784348E+01  0.36890515512E+02  0.37005332643E+02  0.51100000000E-03 0.  1.
        -12    1    3    3    0    0  0.34399080444E+01  0.59722044938E+01 -0.18691374157E+01  0.71409991282E+01  0.00000000000E+00 0.  1.
</event>
<event>
 7    1  0.2900470E-011  0.5052883E+02  0.7816164E-02  0.1300439E+00
        -11   -1    0    0    0    0  0.00000000000E+00  0.00000000000E+00  0.45593999997E+02  0.45594000000E+02  0.51100000000E-03 0.  1.
         11   -1    0    0    0    0 -0.00000000000E+00 -0.00000000000E+00 -0.45593999997E+02  0.45594000000E+02  0.51100000000E-03 0. -1.
    9900012    2    1    2    0    0  0.36927948830E+02 -0.14402186800E+02 -0.90593548909E+01  0.50528827598E+02  0.29999901967E+02 0.  0.
         12    1    1    2    0    0 -0.36927948830E+02  0.14402186800E+02  0.90593548909E+01  0.40659172402E+02  0.00000000000E+00 0. -1.
         11    1    3    3    0    0  0.22549619120E+02 -0.81581877184E+01 -0.18843509569E+02  0.30497855703E+02  0.51100000000E-03 0. -1.
        -11    1    3    3    0    0  0.11798543696E+02 -0.15594395538E+01  0.52015979845E+01  0.12988229553E+02  0.51100000000E-03 0.  1.
         12    1    3    3    0    0  0.25797860137E+01 -0.46845595278E+01  0.45825566941E+01  0.70427423423E+01  0.00000000000E+00 0. -1.
</event>
<event>
 7    1  0.2900470E-011  0.5052886E+02  0.7816164E-02  0.1300439E+00
        -11   -1    0    0    0    0  0.00000000000E+00  0.00000000000E+00  0.45593999997E+02  0.45594000000E+02  0.51100000000E-03 0. -1.
         11   -1    0    0    0    0 -0.00000000000E+00 -0.00000000000E+00 -0.45593999997E+02  0.45594000000E+02  0.51100000000E-03 0.  1.
    9900012    2    1    2    0    0 -0.28185612898E+02  0.29012613593E+02 -0.41237529281E+01  0.50528857607E+02  0.29999993183E+02 0.  0.
         12    1    1    2    0    0  0.28185612898E+02 -0.29012613593E+02  0.41237529281E+01  0.40659142393E+02  0.00000000000E+00 0. -1.
         11    1    3    3    0    0 -0.11711850159E+02  0.18960155860E+01  0.66459700643E+00  0.11882928877E+02  0.51100000000E-03 0. -1.
        -11    1    3    3    0    0 -0.37669081701E+01  0.12255345982E+02 -0.12235606476E+02  0.17722673851E+02  0.51100000000E-03 0.  1.
        -12    1    3    3    0    0 -0.12706854568E+02  0.14861252025E+02  0.74472565419E+01  0.20923254880E+02  0.00000000000E+00 0.  1.
</event>
<event>
 7    1  0.2900470E-011  0.5052886E+02  0.7816164E-02  0.1300439E+00
        -11   -1    0    0    0    0  0.00000000000E+00  0.00000000000E+00  0.45593999997E+02  0.45594000000E+02  0.51100000000E-03 0.  1.
         11   -1    0    0    0    0 -0.00000000000E+00 -0.00000000000E+00 -0.45593999997E+02  0.45594000000E+02  0.51100000000E-03 0. -1.
    9900012    2    1    2    0    0 -0.18502157596E+02 -0.15793309824E+02  0.32579242761E+02  0.50528861669E+02  0.30000005530E+02 0.  0.
         12    1    1    2    0    0  0.18502157596E+02  0.15793309824E+02 -0.32579242761E+02  0.40659138331E+02  0.00000000000E+00 0. -1.
         11    1    3    3    0    0 -0.30750794619E+01  0.23624572119E+01  0.10757709755E+02  0.11435280373E+02  0.51100000000E-03 0.  1.
        -11    1    3    3    0    0 -0.13725076000E+02 -0.23008834387E+02  0.20631481761E+02  0.33814822356E+02  0.51100000000E-03 0. -1.
         12    1    3    3    0    0 -0.17020021343E+01  0.48530673512E+01  0.11900512443E+01  0.52787589398E+01  0.00000000000E+00 0. -1.
</event>
<event>
 7    1  0.2900470E-011  0.5052885E+02  0.7816164E-02  0.1300439E+00
        -11   -1    0    0    0    0  0.00000000000E+00  0.00000000000E+00  0.45593999997E+02  0.45594000000E+02  0.51100000000E-03 0.  1.
         11   -1    0    0    0    0 -0.00000000000E+00 -0.00000000000E+00 -0.45593999997E+02  0.45594000000E+02  0.51100000000E-03 0. -1.
    9900012    2    1    2    0    0 -0.37674429668E+01 -0.19036050915E+02  0.35729557942E+02  0.50528853776E+02  0.29999981537E+02 0.  0.
         12    1    1    2    0    0  0.37674429668E+01  0.19036050915E+02 -0.35729557942E+02  0.40659146224E+02  0.00000000000E+00 0. -1.
         11    1    3    3    0    0  0.28504995812E+01  0.63502358533E+01  0.80467470313E+01  0.10639594978E+02  0.51100000000E-03 0. -1.
        -11    1    3    3    0    0 -0.99787697858E+01 -0.20346018625E+02  0.21910364396E+02  0.31521427451E+02  0.51100000000E-03 0.  1.
         12    1    3    3    0    0  0.33608272378E+01 -0.50402681432E+01  0.57724465148E+01  0.83678313466E+01  0.00000000000E+00 0. -1.
</event>
<event>
 7    1  0.2900470E-011  0.5052886E+02  0.7816164E-02  0.1300439E+00
        -11   -1    0    0    0    0  0.00000000000E+00  0.00000000000E+00  0.45593999997E+02  0.45594000000E+02  0.51100000000E-03 0. -1.
         11   -1    0    0    0    0 -0.00000000000E+00 -0.00000000000E+00 -0.45593999997E+02  0.45594000000E+02  0.51100000000E-03 0.  1.
    9900012    2    1    2    0    0  0.37241887561E+02 -0.21541401675E+01 -0.16173034742E+02  0.50528861276E+02  0.30000004335E+02 0.  0.
         12    1    1    2    0    0 -0.37241887561E+02  0.21541401675E+01  0.16173034742E+02  0.40659138724E+02  0.00000000000E+00 0. -1.
         11    1    3    3    0    0  0.30831175732E+01 -0.54247534303E+01  0.50601352381E+01  0.80335877812E+01  0.51100000000E-03 0. -1.
        -11    1    3    3    0    0  0.35155303915E+02  0.42002386461E+01 -0.20036771948E+02  0.40681809552E+02  0.51100000000E-03 0.  1.
        -12    1    3    3    0    0 -0.99653392724E+00 -0.92962538324E+00 -0.11963980322E+01  0.18134639431E+01  0.00000000000E+00 0.  1.
</event>
<event>
 7    1  0.2900470E-011  0.5052887E+02  0.7816164E-02  0.1300439E+00
        -11   -1    0    0    0    0  0.00000000000E+00  0.00000000000E+00  0.45593999997E+02  0.45594000000E+02  0.51100000000E-03 0.  1.
         11   -1    0    0    0    0 -0.00000000000E+00 -0.00000000000E+00 -0.45593999997E+02  0.45594000000E+02  0.51100000000E-03 0. -1.
    9900012    2    1    2    0    0  0.11836223971E+01 -0.19715755743E+02  0.35539455592E+02  0.50528869534E+02  0.30000029436E+02 0.  0.
         12    1    1    2    0    0 -0.11836223971E+01  0.19715755743E+02 -0.35539455592E+02  0.40659130466E+02  0.00000000000E+00 0. -1.
         11    1    3    3    0    0 -0.85322155764E+00 -0.10889199727E+02  0.11373644072E+01  0.10981632655E+02  0.51100000000E-03 0. -1.
        -11    1    3    3    0    0  0.74281307183E+01 -0.99779894153E+01  0.30052022667E+02  0.32524782326E+02  0.51100000000E-03 0.  1.
        -12    1    3    3    0    0 -0.53912867636E+01  0.11514333995E+01  0.43500685179E+01  0.70224545532E+01  0.00000000000E+00 0.  1.
</event>
<event>
 7    1  0.2900470E-011  0.5052880E+02  0.7816164E-02  0.1300439E+00
        -11   -1    0    0    0    0  0.00000000000E+00  0.00000000000E+00  0.45593999997E+02  0.45594000000E+02  0.51100000000E-03 0.  1.
         11   -1    0    0    0    0 -0.00000000000E+00 -0.00000000000E+00 -0.45593999997E+02  0.45594000000E+02  0.51100000000E-03 0. -1.
    9900012    2    1    2    0    0  0.63350772154E+01 -0.15236932406E+02  0.37160105777E+02  0.50528797181E+02  0.29999809512E+02 0.  0.
         12    1    1    2    0    0 -0.63350772154E+01  0.15236932406E+02 -0.37160105777E+02  0.40659202819E+02  0.00000000000E+00 0. -1.
         11    1    3    3    0    0  0.10512268175E+02  0.19156055295E+01  0.21602473108E+02  0.24100708939E+02  0.51100000000E-03 0.  1.
        -11    1    3    3    0    0 -0.59672495397E+01 -0.26169210879E+01  0.65245860571E+01  0.92209851169E+01  0.51100000000E-03 0. -1.
         12    1    3    3    0    0  0.17900585805E+01 -0.14535616848E+02  0.90330466125E+01  0.17207103126E+02  0.00000000000E+00 0. -1.
</event>
<event>
 7    1  0.2900470E-011  0.5052882E+02  0.7816164E-02  0.1300439E+00
        -11   -1    0    0    0    0  0.00000000000E+00  0.00000000000E+00  0.45593999997E+02  0.45594000000E+02  0.51100000000E-03 0.  1.
         11   -1    0    0    0    0 -0.00000000000E+00 -0.00000000000E+00 -0.45593999997E+02  0.45594000000E+02  0.51100000000E-03 0. -1.
    9900012    2    1    2    0    0  0.15352702612E+02 -0.34798984633E+02  0.14369904664E+02  0.50528819376E+02  0.29999876976E+02 0.  0.
         12    1    1    2    0    0 -0.15352702612E+02  0.34798984633E+02 -0.14369904664E+02  0.40659180624E+02  0.00000000000E+00 0. -1.
         11    1    3    3    0    0 -0.58168396797E+00 -0.10900466635E+02  0.18641835745E+01  0.11074010554E+02  0.51100000000E-03 0. -1.
        -11    1    3    3    0    0  0.26261092901E+01 -0.20398100047E+01  0.13441228959E+02  0.13846440375E+02  0.51100000000E-03 0.  1.
        -12    1    3    3    0    0  0.13308277289E+02 -0.21858707993E+02 -0.93550787023E+00  0.25608368447E+02  0.00000000000E+00 0.  1.
</event>
<event>
 7    1  0.2900470E-011  0.5052886E+02  0.7816164E-02  0.1300439E+00
        -11   -1    0    0    0    0  0.00000000000E+00  0.00000000000E+00  0.45593999997E+02  0.45594000000E+02  0.51100000000E-03 0. -1.
         11   -1    0    0    0    0 -0.00000000000E+00 -0.00000000000E+00 -0.45593999997E+02  0.45594000000E+02  0.51100000000E-03 0.  1.
    9900012    2    1    2    0    0  0.10735350696E+02  0.27843291466E+01 -0.39117328910E+02  0.50528860014E+02  0.30000000499E+02 0.  0.
         12    1    1    2    0    0 -0.10735350696E+02 -0.27843291466E+01  0.39117328910E+02  0.40659139986E+02  0.00000000000E+00 0. -1.
         11    1    3    3    0    0  0.14117283086E+02  0.11423871233E+02 -0.21015298697E+02  0.27774904055E+02  0.51100000000E-03 0. -1.
        -11    1    3    3    0    0  0.15986011749E+01  0.12386848499E+01 -0.61217301644E+01  0.64471269835E+01  0.51100000000E-03 0.  1.
         12    1    3    3    0    0 -0.49805335644E+01 -0.98782269365E+01 -0.11980300049E+02  0.16306828976E+02  0.00000000000E+00 0. -1.
</event>
<event>
 7    1  0.2900470E-011  0.5052887E+02  0.7816164E-02  0.1300439E+00
        -11   -1    0    0    0    0  0.00000000000E+00  0.00000000000E+00  0.45593999997E+02  0.45594000000E+02  0.51100000000E-03 0. -1.
         11   -1    0    0    0    0 -0.00000000000E+00 -0.00000000000E+00 -0.45593999997E+02  0.45594000000E+02  0.51100000000E-03 0.  1.
    9900012    2    1    2    0    0  0.32379768558E+02 -0.15984644551E+02 -0.18687078602E+02  0.50528865971E+02  0.30000018606E+02 0.  0.
         12    1    1    2    0    0 -0.32379768558E+02  0.15984644551E+02  0.18687078602E+02  0.40659134029E+02  0.00000000000E+00 0. -1.
         11    1    3    3    0    0 -0.42910310826E+00  0.10780065043E+01  0.12720731217E+01  0.17217426605E+01  0.51100000000E-03 0. -1.
        -11    1    3    3    0    0  0.33285728034E+02 -0.18249523160E+02 -0.10671468206E+02  0.39431776783E+02  0.51100000000E-03 0.  1.
        -12    1    3    3    0    0 -0.47685636773E+00  0.11868721049E+01 -0.92876835178E+01  0.93753465278E+01  0.00000000000E+00 0.  1.
</event>
<event>
 7    1  0.2900470E-011  0.5052887E+02  0.7816164E-02  0.1300439E+00
        -11   -1    0    0    0    0  0.00000000000E+00  0.00000000000E+00  0.45593999997E+02  0.45594000000E+02  0.51100000000E-03 0.  1.
         11   -1    0    0    0    0 -0.00000000000E+00 -0.00000000000E+00 -0.45593999997E+02  0.45594000000E+02  0.51100000000E-03 0. -1.
    9900012    2    1    2    0    0  0.26100683120E+01 -0.23936908032E+02  0.32762434295E+02  0.50528866664E+02  0.30000020710E+02 0.  0.
         12    1    1    2    0    0 -0.26100683120E+01  0.23936908032E+02 -0.32762434295E+02  0.40659133336E+02  0.00000000000E+00 0. -1.
         11    1    3    3    0    0 -0.71898990392E+01 -0.65648062046E+00  0.30692975405E+01  0.78451387911E+01  0.51100000000E-03 0. -1.
        -11    1    3    3    0    0  0.89798374990E+01 -0.11935747546E+02  0.54407977637E+01  0.15896598113E+02  0.51100000000E-03 0.  1.
        -12    1    3    3    0    0  0.82012985214E+00 -0.11344679866E+02  0.24252338991E+02  0.26787129760E+02  0.00000000000E+00 0.  1.
</event>
<event>
 7    1  0.2900470E-011  0.5052886E+02  0.7816164E-02  0.1300439E+00
        -11   -1    0    0    0    0  0.00000000000E+00  0.00000000000E+00  0.45593999997E+02  0.45594000000E+02  0.51100000000E-03 0.  1.
         11   -1    0    0    0    0 -0.00000000000E+00 -0.00000000000E+00 -0.45593999997E+02  0.45594000000E+02  0.51100000000E-03 0. -1.
    9900012    2    1    2    0    0  0.21336495296E+02  0.26066477060E+02  0.22769676774E+02  0.50528862795E+02  0.30000008953E+02 0.  0.
         12    1    1    2    0    0 -0.21336495296E+02 -0.26066477060E+02 -0.22769676774E+02  0.40659137205E+02  0.00000000000E+00 0. -1.
         11    1    3    3    0    0  0.13088731705E+02  0.39152103522E+01 -0.27410292067E+01  0.13934023508E+02  0.51100000000E-03 0. -1.
        -11    1    3    3    0    0  0.10984046309E+02  0.19555425136E+02  0.22490053086E+02  0.31762657534E+02  0.51100000000E-03 0.  1.
        -12    1    3    3    0    0 -0.27362827185E+01  0.25958415721E+01  0.30206528950E+01  0.48321817531E+01  0.00000000000E+00 0.  1.
</event>
<event>
 7    1  0.2900470E-011  0.5052885E+02  0.7816164E-02  0.1300439E+00
        -11   -1    0    0    0    0  0.00000000000E+00  0.00000000000E+00  0.45593999997E+02  0.45594000000E+02  0.51100000000E-03 0. -1.
         11   -1    0    0    0    0 -0.00000000000E+00 -0.00000000000E+00 -0.45593999997E+02  0.45594000000E+02  0.51100000000E-03 0.  1.
    9900012    2    1    2    0    0  0.21053316749E+01 -0.31525314805E+02 -0.25590792014E+02  0.50528849358E+02  0.29999968110E+02 0.  0.
         12    1    1    2    0    0 -0.21053316749E+01  0.31525314805E+02  0.25590792014E+02  0.40659150642E+02  0.00000000000E+00 0. -1.
         11    1    3    3    0    0  0.13506185496E+02 -0.24497735433E+02 -0.94311156883E+01  0.29521213244E+02  0.51100000000E-03 0. -1.
        -11    1    3    3    0    0 -0.76428334697E+01 -0.46967733936E+01 -0.11477580550E+02  0.14567341532E+02  0.51100000000E-03 0.  1.
         12    1    3    3    0    0 -0.37580203513E+01 -0.23308059785E+01 -0.46820957751E+01  0.64402945832E+01  0.00000000000E+00 0. -1.
</event>
<event>
 7    1  0.2900470E-011  0.5052891E+02  0.7816164E-02  0.1300439E+00
        -11   -1    0    0    0    0  0.00000000000E+00  0.00000000000E+00  0.45593999997E+02  0.45594000000E+02  0.51100000000E-03 0. -1.
         11   -1    0    0    0    0 -0.00000000000E+00 -0.00000000000E+00 -0.45593999997E+02  0.45594000000E+02  0.51100000000E-03 0.  1.
    9900012    2    1    2    0    0  0.12448961344E+01  0.14230537029E+02 -0.38067094899E+02  0.50528909202E+02  0.30000150009E+02 0.  0.
         12    1    1    2    0    0 -0.12448961344E+01 -0.14230537029E+02  0.38067094899E+02  0.40659090798E+02  0.00000000000E+00 0. -1.
         11    1    3    3    0    0 -0.41200109457E+01  0.47489990246E+01  0.31971450108E+01  0.70533125842E+01  0.51100000000E-03 0. -1.
        -11    1    3    3    0    0  0.27090814298E+01  0.62730568836E+01 -0.36557481667E+02  0.37190587935E+02  0.51100000000E-03 0.  1.
         12    1    3    3    0    0  0.26558256503E+01  0.32084811207E+01 -0.47067582422E+01  0.62850086824E+01  0.00000000000E+00 0. -1.
</event>
<event>
 7    1  0.2900470E-011  0.5052886E+02  0.7816164E-02  0.1300439E+00
        -11   -1    0    0    0    0  0.00000000000E+00  0.00000000000E+00  0.45593999997E+02  0.45594000000E+02  0.51100000000E-03 0. -1.
         11   -1    0    0    0    0 -0.00000000000E+00 -0.00000000000E+00 -0.45593999997E+02  0.45594000000E+02  0.51100000000E-03 0.  1.
    9900012    2    1    2    0    0 -0.17261249706E+02 -0.36679253971E+02 -0.31380692311E+01  0.50528857218E+02  0.29999991999E+02 0.  0.
         12    1    1    2    0    0  0.17261249706E+02  0.36679253971E+02  0.31380692311E+01  0.40659142782E+02  0.00000000000E+00 0. -1.
         11    1    3    3    0    0 -0.91298067825E+01 -0.31801533689E+02  0.46040783308E+01  0.33404916620E+02  0.51100000000E-03 0. -1.
        -11    1    3    3    0    0 -0.99234915780E+01 -0.50288893771E+01 -0.94850371988E+01  0.14619553495E+02  0.51100000000E-03 0.  1.
         12    1    3    3    0    0  0.17920486543E+01  0.15116909471E+00  0.17428896369E+01  0.25043871029E+01  0.00000000000E+00 0. -1.
</event>
<event>
 7    1  0.2900470E-011  0.5052886E+02  0.7816164E-02  0.1300439E+00
        -11   -1    0    0    0    0  0.00000000000E+00  0.00000000000E+00  0.45593999997E+02  0.45594000000E+02  0.51100000000E-03 0.  1.
         11   -1    0    0    0    0 -0.00000000000E+00 -0.00000000000E+00 -0.45593999997E+02  0.45594000000E+02  0.51100000000E-03 0. -1.
    9900012    2    1    2    0    0 -0.26919207416E+01  0.16503074361E+02  0.37061676609E+02  0.50528858670E+02  0.29999996412E+02 0.  0.
         12    1    1    2    0    0  0.26919207416E+01 -0.16503074361E+02 -0.37061676609E+02  0.40659141330E+02  0.00000000000E+00 0. -1.
         11    1    3    3    0    0 -0.96351241979E+01 -0.42908541682E+00  0.46863657246E+01  0.10722954657E+02  0.51100000000E-03 0. -1.
        -11    1    3    3    0    0  0.67829128119E+01  0.13069938322E+02  0.32763967869E+02  0.35920868374E+02  0.51100000000E-03 0.  1.
        -12    1    3    3    0    0  0.16029064440E+00  0.38622214563E+01 -0.38865698431E+00  0.38850356395E+01  0.00000000000E+00 0.  1.
</event>
<event>
 7    1  0.2900470E-011  0.5052881E+02  0.7816164E-02  0.1300439E+00
        -11   -1    0    0    0    0  0.00000000000E+00  0.00000000000E+00  0.45593999997E+02  0.45594000000E+02  0.51100000000E-03 0.  1.
         11   -1    0    0    0    0 -0.00000000000E+00 -0.00000000000E+00 -0.45593999997E+02  0.45594000000E+02  0.51100000000E-03 0. -1.
    9900012    2    1    2    0    0  0.32114438724E+02 -0.14287955398E+02  0.20437397596E+02  0.50528805904E+02  0.29999836026E+02 0.  0.
         12    1    1    2    0    0 -0.32114438724E+02  0.14287955398E+02 -0.20437397596E+02  0.40659194096E+02  0.00000000000E+00 0. -1.
         11    1    3    3    0    0  0.10557982708E+02 -0.15128842783E+02  0.16486972933E+01  0.18522178216E+02  0.51100000000E-03 0. -1.
        -11    1    3    3    0    0  0.16681700996E+02 -0.80220758677E+00  0.52235157560E+01  0.17498794309E+02  0.51100000000E-03 0.  1.
         12    1    3    3    0    0  0.48747550196E+01  0.16430949725E+01  0.13565184546E+02  0.14507833380E+02  0.00000000000E+00 0. -1.
</event>
<event>
 7    1  0.2900470E-011  0.5052886E+02  0.7816164E-02  0.1300439E+00
        -11   -1    0    0    0    0  0.00000000000E+00  0.00000000000E+00  0.45593999997E+02  0.45594000000E+02  0.51100000000E-03 0. -1.
         11   -1    0    0    0    0 -0.00000000000E+00 -0.00000000000E+00 -0.45593999997E+02  0.45594000000E+02  0.51100000000E-03 0.  1.
    9900012    2    1    2    0    0 -0.23848587755E+02 -0.30654508929E+02  0.12029616989E+02  0.50528859079E+02  0.29999997656E+02 0.  0.
         12    1    1    2    0    0  0.23848587755E+02  0.30654508929E+02 -0.12029616989E+02  0.40659140921E+02  0.00000000000E+00 0. -1.
         11    1    3    3    0    0  0.32420896880E+01 -0.15183435955E+01  0.41630307983E+01  0.54906592052E+01  0.51100000000E-03 0. -1.
        -11    1    3    3    0    0 -0.21480002509E+02 -0.29189077716E+02  0.11881553845E+02  0.38138747852E+02  0.51100000000E-03 0.  1.
        -12    1    3    3    0    0 -0.56106749332E+01  0.52912382784E-01 -0.40149676542E+01  0.68994520210E+01  0.00000000000E+00 0.  1.
</event>
<event>
 7    1  0.2900470E-011  0.5052886E+02  0.7816164E-02  0.1300439E+00
        -11   -1    0    0    0    0  0.00000000000E+00  0.00000000000E+00  0.45593999997E+02  0.45594000000E+02  0.51100000000E-03 0. -1.
         11   -1    0    0    0    0 -0.00000000000E+00 -0.00000000000E+00 -0.45593999997E+02  0.45594000000E+02  0.51100000000E-03 0.  1.
    9900012    2    1    2    0    0  0.24643266976E+02 -0.20465721194E+02 -0.25040551512E+02  0.50528861160E+02  0.30000003982E+02 0.  0.
         12    1    1    2    0    0 -0.24643266976E+02  0.20465721194E+02  0.25040551512E+02  0.40659138840E+02  0.00000000000E+00 0. -1.
         11    1    3    3    0    0  0.26012569094E+02 -0.10547614211E+02 -0.28024574650E+02  0.39664627832E+02  0.51100000000E-03 0. -1.
        -11    1    3    3    0    0 -0.11700960945E+01 -0.79574040070E+01  0.10644782223E+01  0.81131077614E+01  0.51100000000E-03 0.  1.
         12    1    3    3    0    0 -0.19920602369E+00 -0.19607029755E+01  0.19195449166E+01  0.27511255669E+01  0.00000000000E+00 0. -1.
</event>
<event>
 7    1  0.2900470E-011  0.5052885E+02  0.7816164E-02  0.1300439E+00
        -11   -1    0    0    0    0  0.00000000000E+00  0.00000000000E+00  0.45593999997E+02  0.45594000000E+02  0.51100000000E-03 0.  1.
         11   -1    0    0    0    0 -0.00000000000E+00 -0.00000000000E+00 -0.45593999997E+02  0.45594000000E+02  0.51100000000E-03 0. -1.
    9900012    2    1    2    0    0  0.94283170859E+01 -0.18247408022E+02 -0.35089967123E+02  0.50528845369E+02  0.29999955985E+02 0.  0.
         12    1    1    2    0    0 -0.94283170859E+01  0.18247408022E+02  0.35089967123E+02  0.40659154631E+02  0.00000000000E+00 0. -1.
         11    1    3    3    0    0 -0.65550970333E+01  0.34982556309E+01 -0.51816412444E+01  0.90585040609E+01  0.51100000000E-03 0. -1.
        -11    1    3    3    0    0  0.11675139529E+02 -0.77199755997E+01 -0.13280058579E+02  0.19294218368E+02  0.51100000000E-03 0.  1.
        -12    1    3    3    0    0  0.43082745898E+01 -0.14025688053E+02 -0.16628267299E+02  0.22176122941E+02  0.00000000000E+00 0.  1.
</event>
<event>
 7    1  0.2900470E-011  0.5052885E+02  0.7816164E-02  0.1300439E+00
        -11   -1    0    0    0    0  0.00000000000E+00  0.00000000000E+00  0.45593999997E+02  0.45594000000E+02  0.51100000000E-03 0.  1.
         11   -1    0    0    0    0 -0.00000000000E+00 -0.00000000000E+00 -0.45593999997E+02  0.45594000000E+02  0.51100000000E-03 0. -1.
    9900012    2    1    2    0    0  0.35077610921E+02 -0.79824713348E+01 -0.18947495786E+02  0.50528853021E+02  0.29999979242E+02 0.  0.
         12    1    1    2    0    0 -0.35077610921E+02  0.79824713348E+01  0.18947495786E+02  0.40659146979E+02  0.00000000000E+00 0. -1.
         11    1    3    3    0    0 -0.28568734435E+01 -0.15915596238E+01  0.24875976538E+00  0.32797362075E+01  0.51100000000E-03 0. -1.
        -11    1    3    3    0    0  0.27290646948E+02 -0.12236131848E+02 -0.85670736952E+01  0.31111044428E+02  0.51100000000E-03 0.  1.
        -12    1    3    3    0    0  0.10643837416E+02  0.58452201366E+01 -0.10629181856E+02  0.16138072386E+02  0.00000000000E+00 0.  1.
</event>
<event>
 7    1  0.2900470E-011  0.5052886E+02  0.7816164E-02  0.1300439E+00
        -11   -1    0    0    0    0  0.00000000000E+00  0.00000000000E+00  0.45593999997E+02  0.45594000000E+02  0.51100000000E-03 0.  1.
         11   -1    0    0    0    0 -0.00000000000E+00 -0.00000000000E+00 -0.45593999997E+02  0.45594000000E+02  0.51100000000E-03 0. -1.
    9900012    2    1    2    0    0  0.32121030441E+02  0.18278416421E+02 -0.16950067174E+02  0.50528857354E+02  0.29999992415E+02 0.  0.
         12    1    1    2    0    0 -0.32121030441E+02 -0.18278416421E+02  0.16950067174E+02  0.40659142646E+02  0.00000000000E+00 0. -1.
         11    1    3    3    0    0  0.17630440603E-01  0.13494893183E+02 -0.11985374467E+01  0.13548023661E+02  0.51100000000E-03 0. -1.
        -11    1    3    3    0    0  0.12680676704E+02 -0.34439680270E-01 -0.10029062022E+02  0.16167338466E+02  0.51100000000E-03 0.  1.
         12    1    3    3    0    0  0.19422723297E+02  0.48179629185E+01 -0.57224677048E+01  0.20813495227E+02  0.00000000000E+00 0. -1.
</event>
<event>
 7    1  0.2900470E-011  0.5052886E+02  0.7816164E-02  0.1300439E+00
        -11   -1    0    0    0    0  0.00000000000E+00  0.00000000000E+00  0.45593999997E+02  0.45594000000E+02  0.51100000000E-03 0.  1.
         11   -1    0    0    0    0 -0.00000000000E+00 -0.00000000000E+00 -0.45593999997E+02  0.45594000000E+02  0.51100000000E-03 0. -1.
    9900012    2    1    2    0    0 -0.87208690804E+01 -0.13708527536E+02  0.37271818652E+02  0.50528858957E+02  0.29999997286E+02 0.  0.
         12    1    1    2    0    0  0.87208690804E+01  0.13708527536E+02 -0.37271818652E+02  0.40659141043E+02  0.00000000000E+00 0. -1.
         11    1    3    3    0    0  0.35685433467E+01 -0.11504417693E+02  0.28447731718E+02  0.30892710600E+02  0.51100000000E-03 0. -1.
        -11    1    3    3    0    0 -0.92496614818E+01 -0.54574710746E+01  0.11991181882E+01  0.10806392217E+02  0.51100000000E-03 0.  1.
        -12    1    3    3    0    0 -0.30397509453E+01  0.32533612320E+01  0.76249687459E+01  0.88297561400E+01  0.00000000000E+00 0.  1.
</event>
<event>
 7    1  0.2900470E-011  0.5052886E+02  0.7816164E-02  0.1300439E+00
        -11   -1    0    0    0    0  0.00000000000E+00  0.00000000000E+00  0.45593999997E+02  0.45594000000E+02  0.51100000000E-03 0.  1.
         11   -1    0    0    0    0 -0.00000000000E+00 -0.00000000000E+00 -0.45593999997E+02  0.45594000000E+02  0.51100000000E-03 0. -1.
    9900012    2    1    2    0    0 -0.10077220806E+01 -0.63679215434E+01  0.40144736428E+02  0.50528858451E+02  0.29999995749E+02 0.  0.
         12    1    1    2    0    0  0.10077220806E+01  0.63679215434E+01 -0.40144736428E+02  0.40659141549E+02  0.00000000000E+00 0. -1.
         11    1    3    3    0    0 -0.70083472291E+00  0.10396525576E+02  0.16700401191E+02  0.19684570444E+02  0.51100000000E-03 0. -1.
        -11    1    3    3    0    0  0.24512048983E+01 -0.83862342847E+01  0.42408511225E+01  0.97119590936E+01  0.51100000000E-03 0.  1.
         12    1    3    3    0    0 -0.27580922560E+01 -0.83782128344E+01  0.19203484114E+02  0.21132328914E+02  0.00000000000E+00 0. -1.
</event>
<event>
 7    1  0.2900470E-011  0.5052886E+02  0.7816164E-02  0.1300439E+00
        -11   -1    0    0    0    0  0.00000000000E+00  0.00000000000E+00  0.45593999997E+02  0.45594000000E+02  0.51100000000E-03 0. -1.
         11   -1    0    0    0    0 -0.00000000000E+00 -0.00000000000E+00 -0.45593999997E+02  0.45594000000E+02  0.51100000000E-03 0.  1.
    9900012    2    1    2    0    0 -0.10700543233E+02 -0.20777373249E+01 -0.39170737853E+02  0.50528864226E+02  0.30000013303E+02 0.  0.
         12    1    1    2    0    0  0.10700543233E+02  0.20777373249E+01  0.39170737853E+02  0.40659135774E+02  0.00000000000E+00 0. -1.
         11    1    3    3    0    0 -0.46866168506E+01 -0.24683370701E+01 -0.41249333844E+01  0.67135788581E+01  0.51100000000E-03 0. -1.
        -11    1    3    3    0    0  0.58813871323E+01  0.87743521731E+01 -0.85656108473E+01  0.13599619852E+02  0.51100000000E-03 0.  1.
        -12    1    3    3    0    0 -0.11895313515E+02 -0.83837524278E+01 -0.26480193622E+02  0.30215665517E+02  0.00000000000E+00 0.  1.
</event>
<event>
 7    1  0.2900470E-011  0.5052887E+02  0.7816164E-02  0.1300439E+00
        -11   -1    0    0    0    0  0.00000000000E+00  0.00000000000E+00  0.45593999997E+02  0.45594000000E+02  0.51100000000E-03 0.  1.
         11   -1    0    0    0    0 -0.00000000000E+00 -0.00000000000E+00 -0.45593999997E+02  0.45594000000E+02  0.51100000000E-03 0. -1.
    9900012    2    1    2    0    0 -0.19554303475E+02 -0.20853435237E+02  0.28912426859E+02  0.50528868523E+02  0.30000026362E+02 0.  0.
         12    1    1    2    0    0  0.19554303475E+02  0.20853435237E+02 -0.28912426859E+02  0.40659131477E+02  0.00000000000E+00 0. -1.
         11    1    3    3    0    0 -0.12101117656E+02  0.35127080844E+01  0.10781029999E+02  0.16583328216E+02  0.51100000000E-03 0. -1.
        -11    1    3    3    0    0 -0.83445049106E+01 -0.24236698858E+02  0.13010060670E+02  0.28745608580E+02  0.51100000000E-03 0.  1.
        -12    1    3    3    0    0  0.89131909127E+00 -0.12944446341E+00  0.51213361904E+01  0.51999317271E+01  0.00000000000E+00 0.  1.
</event>
<event>
 7    1  0.2900470E-011  0.5052889E+02  0.7816164E-02  0.1300439E+00
        -11   -1    0    0    0    0  0.00000000000E+00  0.00000000000E+00  0.45593999997E+02  0.45594000000E+02  0.51100000000E-03 0. -1.
         11   -1    0    0    0    0 -0.00000000000E+00 -0.00000000000E+00 -0.45593999997E+02  0.45594000000E+02  0.51100000000E-03 0.  1.
    9900012    2    1    2    0    0  0.25710267904E+02 -0.28498921773E+02 -0.13414786020E+02  0.50528893985E+02  0.30000103757E+02 0.  0.
         12    1    1    2    0    0 -0.25710267904E+02  0.28498921773E+02  0.13414786020E+02  0.40659106015E+02  0.00000000000E+00 0. -1.
         11    1    3    3    0    0 -0.22328217837E+01 -0.24645213099E+01  0.20398971127E+01  0.39013509066E+01  0.51100000000E-03 0. -1.
        -11    1    3    3    0    0  0.25612835234E+02 -0.29898232395E+02 -0.12826542834E+02  0.41405818799E+02  0.51100000000E-03 0.  1.
        -12    1    3    3    0    0  0.23302544543E+01  0.38638319317E+01 -0.26281402989E+01  0.52217242793E+01  0.00000000000E+00 0.  1.
</event>
<event>
 7    1  0.2900470E-011  0.5052877E+02  0.7816164E-02  0.1300439E+00
        -11   -1    0    0    0    0  0.00000000000E+00  0.00000000000E+00  0.45593999997E+02  0.45594000000E+02  0.51100000000E-03 0.  1.
         11   -1    0    0    0    0 -0.00000000000E+00 -0.00000000000E+00 -0.45593999997E+02  0.45594000000E+02  0.51100000000E-03 0. -1.
    9900012    2    1    2    0    0  0.16614181839E+02  0.32211842158E+02  0.18426579717E+02  0.50528774067E+02  0.29999739253E+02 0.  0.
         12    1    1    2    0    0 -0.16614181839E+02 -0.32211842158E+02 -0.18426579717E+02  0.40659225933E+02  0.00000000000E+00 0. -1.
         11    1    3    3    0    0 -0.59461991642E+01  0.63102595004E+01 -0.36425536693E+01  0.94045125848E+01  0.51100000000E-03 0. -1.
        -11    1    3    3    0    0  0.17820532907E+02  0.22027729316E+02  0.19925031756E+02  0.34638116904E+02  0.51100000000E-03 0.  1.
         12    1    3    3    0    0  0.47398480963E+01  0.38738533412E+01  0.21441016310E+01  0.64861445782E+01  0.00000000000E+00 0. -1.
</event>
<event>
 7    1  0.2900470E-011  0.5052886E+02  0.7816164E-02  0.1300439E+00
        -11   -1    0    0    0    0  0.00000000000E+00  0.00000000000E+00  0.45593999997E+02  0.45594000000E+02  0.51100000000E-03 0.  1.
         11   -1    0    0    0    0 -0.00000000000E+00 -0.00000000000E+00 -0.45593999997E+02  0.45594000000E+02  0.51100000000E-03 0. -1.
    9900012    2    1    2    0    0  0.19893526799E+02 -0.34679973191E+02  0.73967945074E+01  0.50528861814E+02  0.30000005970E+02 0.  0.
         12    1    1    2    0    0 -0.19893526799E+02  0.34679973191E+02 -0.73967945074E+01  0.40659138186E+02  0.00000000000E+00 0. -1.
         11    1    3    3    0    0 -0.32305572174E+01 -0.32434551164E+00 -0.13889853724E+01  0.35314275543E+01  0.51100000000E-03 0. -1.
        -11    1    3    3    0    0  0.47791061787E+01 -0.24578667333E+02  0.76382644079E+01  0.26178117335E+02  0.51100000000E-03 0.  1.
        -12    1    3    3    0    0  0.18344977838E+02 -0.97769603460E+01  0.11475154719E+01  0.20819316925E+02  0.00000000000E+00 0.  1.
</event>
<event>
 7    1  0.2900470E-011  0.5052886E+02  0.7816164E-02  0.1300439E+00
        -11   -1    0    0    0    0  0.00000000000E+00  0.00000000000E+00  0.45593999997E+02  0.45594000000E+02  0.51100000000E-03 0.  1.
         11   -1    0    0    0    0 -0.00000000000E+00 -0.00000000000E+00 -0.45593999997E+02  0.45594000000E+02  0.51100000000E-03 0. -1.
    9900012    2    1    2    0    0 -0.35691862230E+01  0.39546198698E+02 -0.87478552047E+01  0.50528857209E+02  0.29999991973E+02 0.  0.
         12    1    1    2    0    0  0.35691862230E+01 -0.39546198698E+02  0.87478552047E+01  0.40659142791E+02  0.00000000000E+00 0. -1.
         11    1    3    3    0    0  0.13926181525E+01 -0.61987605275E-02 -0.10748780510E+01  0.17592006221E+01  0.51100000000E-03 0. -1.
        -11    1    3    3    0    0 -0.80347538558E+01  0.38126257153E+02  0.14985054252E+01  0.38992489954E+02  0.51100000000E-03 0.  1.
        -12    1    3    3    0    0  0.30729494803E+01  0.14261403059E+01 -0.91714825789E+01  0.97771666333E+01  0.00000000000E+00 0.  1.
</event>
<event>
 7    1  0.2900470E-011  0.5052886E+02  0.7816164E-02  0.1300439E+00
        -11   -1    0    0    0    0  0.00000000000E+00  0.00000000000E+00  0.45593999997E+02  0.45594000000E+02  0.51100000000E-03 0. -1.
         11   -1    0    0    0    0 -0.00000000000E+00 -0.00000000000E+00 -0.45593999997E+02  0.45594000000E+02  0.51100000000E-03 0.  1.
    9900012    2    1    2    0    0  0.27954088233E+02  0.88739091939E+01 -0.28160050501E+02  0.50528858869E+02  0.29999997017E+02 0.  0.
         12    1    1    2    0    0 -0.27954088233E+02 -0.88739091939E+01  0.28160050501E+02  0.40659141131E+02  0.00000000000E+00 0. -1.
         11    1    3    3    0    0  0.25436618852E+02  0.16067687216E+02 -0.19452761589E+02  0.35827392939E+02  0.51100000000E-03 0. -1.
        -11    1    3    3    0    0  0.42559555856E+01 -0.24440896656E+01 -0.82804669881E+01  0.96256358773E+01  0.51100000000E-03 0.  1.
         12    1    3    3    0    0 -0.17384862042E+01 -0.47496883569E+01 -0.42682192389E+00  0.50758300528E+01  0.00000000000E+00 0. -1.
</event>
<event>
 7    1  0.2900470E-011  0.5052882E+02  0.7816164E-02  0.1300439E+00
        -11   -1    0    0    0    0  0.00000000000E+00  0.00000000000E+00  0.45593999997E+02  0.45594000000E+02  0.51100000000E-03 0.  1.
         11   -1    0    0    0    0 -0.00000000000E+00 -0.00000000000E+00 -0.45593999997E+02  0.45594000000E+02  0.51100000000E-03 0. -1.
    9900012    2    1    2    0    0 -0.15717154024E+02  0.20569767680E+02  0.31353219937E+02  0.50528823011E+02  0.29999888023E+02 0.  0.
         12    1    1    2    0    0  0.15717154024E+02 -0.20569767680E+02 -0.31353219937E+02  0.40659176989E+02  0.00000000000E+00 0. -1.
         11    1    3    3    0    0 -0.11747169013E+02 -0.19940565513E+01  0.41886755711E+01  0.12630013644E+02  0.51100000000E-03 0. -1.
        -11    1    3    3    0    0 -0.73213717412E+01  0.21302041921E+02  0.25254026439E+02  0.33839995949E+02  0.51100000000E-03 0.  1.
        -12    1    3    3    0    0  0.33513867299E+01  0.12617823107E+01  0.19105179268E+01  0.40588134179E+01  0.00000000000E+00 0.  1.
</event>
<event>
 7    1  0.2900470E-011  0.5052885E+02  0.7816164E-02  0.1300439E+00
        -11   -1    0    0    0    0  0.00000000000E+00  0.00000000000E+00  0.45593999997E+02  0.45594000000E+02  0.51100000000E-03 0. -1.
         11   -1    0    0    0    0 -0.00000000000E+00 -0.00000000000E+00 -0.45593999997E+02  0.45594000000E+02  0.51100000000E-03 0.  1.
    9900012    2    1    2    0    0  0.87510805021E+01 -0.11442672003E+02 -0.38021704733E+02  0.50528853632E+02  0.29999981101E+02 0.  0.
         12    1    1    2    0    0 -0.87510805021E+01  0.11442672003E+02  0.38021704733E+02  0.40659146368E+02  0.00000000000E+00 0. -1.
         11    1    3    3    0    0 -0.93216707114E+01 -0.81169200238E+01 -0.11609534775E+02  0.16957571568E+02  0.51100000000E-03 0. -1.
        -11    1    3    3    0    0  0.65650166762E+01 -0.35938099049E+01 -0.17435621548E+02  0.18974082655E+02  0.51100000000E-03 0.  1.
         12    1    3    3    0    0  0.11507734537E+02  0.26805792540E+00 -0.89765484106E+01  0.14597199410E+02  0.00000000000E+00 0. -1.
</event>
<event>
 7    1  0.2900470E-011  0.5052885E+02  0.7816164E-02  0.1300439E+00
        -11   -1    0    0    0    0  0.00000000000E+00  0.00000000000E+00  0.45593999997E+02  0.45594000000E+02  0.51100000000E-03 0. -1.
         11   -1    0    0    0    0 -0.00000000000E+00 -0.00000000000E+00 -0.45593999997E+02  0.45594000000E+02  0.51100000000E-03 0.  1.
    9900012    2    1    2    0    0 -0.12134229139E+02  0.37384758674E+02 -0.10407065855E+02  0.50528847062E+02  0.29999961129E+02 0.  0.
         12    1    1    2    0    0  0.12134229139E+02 -0.37384758674E+02  0.10407065855E+02  0.40659152938E+02  0.00000000000E+00 0. -1.
         11    1    3    3    0    0  0.17529963681E+01  0.32779964117E+01  0.27910169649E+01  0.46484441161E+01  0.51100000000E-03 0. -1.
        -11    1    3    3    0    0  0.46206456832E+00  0.16575821892E+02 -0.16012553266E+02  0.23051534383E+02  0.51100000000E-03 0.  1.
        -12    1    3    3    0    0 -0.14349290076E+02  0.17530940371E+02  0.28144704460E+01  0.22828868563E+02  0.00000000000E+00 0.  1.
</event>
<event>
 7    1  0.2900470E-011  0.5052885E+02  0.7816164E-02  0.1300439E+00
        -11   -1    0    0    0    0  0.00000000000E+00  0.00000000000E+00  0.45593999997E+02  0.45594000000E+02  0.51100000000E-03 0. -1.
         11   -1    0    0    0    0 -0.00000000000E+00 -0.00000000000E+00 -0.45593999997E+02  0.45594000000E+02  0.51100000000E-03 0.  1.
    9900012    2    1    2    0    0  0.38816369882E+02  0.29149131611E+01 -0.11745587513E+02  0.50528854465E+02  0.29999983633E+02 0.  0.
         12    1    1    2    0    0 -0.38816369882E+02 -0.29149131611E+01  0.11745587513E+02  0.40659145535E+02  0.00000000000E+00 0. -1.
         11    1    3    3    0    0 -0.29219237292E+01 -0.23993076703E+00 -0.73221655008E+01  0.78872880595E+01  0.51100000000E-03 0. -1.
        -11    1    3    3    0    0  0.21079462728E+02  0.49921976215E+01 -0.18306634483E+01  0.21739758851E+02  0.51100000000E-03 0.  1.
         12    1    3    3    0    0  0.20658830884E+02 -0.18373536934E+01 -0.25927585636E+01  0.20901807555E+02  0.00000000000E+00 0. -1.
</event>
<event>
 7    1  0.2900470E-011  0.5052885E+02  0.7816164E-02  0.1300439E+00
        -11   -1    0    0    0    0  0.00000000000E+00  0.00000000000E+00  0.45593999997E+02  0.45594000000E+02  0.51100000000E-03 0. -1.
         11   -1    0    0    0    0 -0.00000000000E+00 -0.00000000000E+00 -0.45593999997E+02  0.45594000000E+02  0.51100000000E-03 0.  1.
    9900012    2    1    2    0    0 -0.21598543480E+02  0.34082576257E+02 -0.50047602711E+01  0.50528847154E+02  0.29999961409E+02 0.  0.
         12    1    1    2    0    0  0.21598543480E+02 -0.34082576257E+02  0.50047602711E+01  0.40659152846E+02  0.00000000000E+00 0. -1.
         11    1    3    3    0    0 -0.20783092722E+02  0.22929027370E+02  0.55545055445E+01  0.31440893297E+02  0.51100000000E-03 0. -1.
        -11    1    3    3    0    0  0.26353567396E+01  0.12019023850E+02 -0.76182291572E+01  0.14472023190E+02  0.51100000000E-03 0.  1.
        -12    1    3    3    0    0 -0.34508074975E+01 -0.86547496269E+00 -0.29410366583E+01  0.46159306668E+01  0.00000000000E+00 0.  1.
</event>
<event>
 7    1  0.2900470E-011  0.5052886E+02  0.7816164E-02  0.1300439E+00
        -11   -1    0    0    0    0  0.00000000000E+00  0.00000000000E+00  0.45593999997E+02  0.45594000000E+02  0.51100000000E-03 0. -1.
         11   -1    0    0    0    0 -0.00000000000E+00 -0.00000000000E+00 -0.45593999997E+02  0.45594000000E+02  0.51100000000E-03 0.  1.
    9900012    2    1    2    0    0  0.14470706845E+01 -0.40057354234E+02  0.68176348395E+01  0.50528858511E+02  0.29999995931E+02 0.  0.
         12    1    1    2    0    0 -0.14470706845E+01  0.40057354234E+02 -0.68176348395E+01  0.40659141489E+02  0.00000000000E+00 0. -1.
         11    1    3    3    0    0  0.72414621405E+01 -0.10987985777E+02  0.11498706188E+02  0.17475550052E+02  0.51100000000E-03 0. -1.
        -11    1    3    3    0    0 -0.32637062220E+01 -0.29429028410E+02 -0.25386334535E+01  0.29718077857E+02  0.51100000000E-03 0.  1.
         12    1    3    3    0    0 -0.25306852340E+01  0.35965995255E+00 -0.21424378951E+01  0.33352306021E+01  0.00000000000E+00 0. -1.
</event>
<event>
 7    1  0.2900470E-011  0.5052886E+02  0.7816164E-02  0.1300439E+00
        -11   -1    0    0    0    0  0.00000000000E+00  0.00000000000E+00  0.45593999997E+02  0.45594000000E+02  0.51100000000E-03 0.  1.
         11   -1    0    0    0    0 -0.00000000000E+00 -0.00000000000E+00 -0.45593999997E+02  0.45594000000E+02  0.51100000000E-03 0. -1.
    9900012    2    1    2    0    0  0.17121927720E+02 -0.85772483294E+00  0.36868270962E+02  0.50528861981E+02  0.30000006477E+02 0.  0.
         12    1    1    2    0    0 -0.17121927720E+02  0.85772483294E+00 -0.36868270962E+02  0.40659138019E+02  0.00000000000E+00 0. -1.
         11    1    3    3    0    0  0.58612188214E+01 -0.94295967051E+01  0.12231748279E+02  0.16519287101E+02  0.51100000000E-03 0. -1.
        -11    1    3    3    0    0  0.14157665195E+02  0.98679902865E+01  0.25435095694E+02  0.30736961614E+02  0.51100000000E-03 0.  1.
        -12    1    3    3    0    0 -0.28969562970E+01 -0.12961184144E+01 -0.79857301100E+00  0.32726132654E+01  0.00000000000E+00 0.  1.
</event>
<event>
 7    1  0.2900470E-011  0.5052886E+02  0.7816164E-02  0.1300439E+00
        -11   -1    0    0    0    0  0.00000000000E+00  0.00000000000E+00  0.45593999997E+02  0.45594000000E+02  0.51100000000E-03 0.  1.
         11   -1    0    0    0    0 -0.00000000000E+00 -0.00000000000E+00 -0.45593999997E+02  0.45594000000E+02  0.51100000000E-03 0. -1.
    9900012    2    1    2    0    0  0.27244476100E+02  0.10519475213E+02  0.28288601021E+02  0.50528858538E+02  0.29999996012E+02 0.  0.
         12    1    1    2    0    0 -0.27244476100E+02 -0.10519475213E+02 -0.28288601021E+02  0.40659141462E+02  0.00000000000E+00 0. -1.
         11    1    3    3    0    0 -0.11378404052E+01  0.24966024496E+01 -0.80370123584E+00  0.28589579424E+01  0.51100000000E-03 0. -1.
        -11    1    3    3    0    0  0.98227829843E+01 -0.79319536712E+01  0.14283976608E+02  0.19063969749E+02  0.51100000000E-03 0.  1.
        -12    1    3    3    0    0  0.18559533521E+02  0.15954826435E+02  0.14808325649E+02  0.28605930846E+02  0.00000000000E+00 0.  1.
</event>
<event>
 7    1  0.2900470E-011  0.5052886E+02  0.7816164E-02  0.1300439E+00
        -11   -1    0    0    0    0  0.00000000000E+00  0.00000000000E+00  0.45593999997E+02  0.45594000000E+02  0.51100000000E-03 0.  1.
         11   -1    0    0    0    0 -0.00000000000E+00 -0.00000000000E+00 -0.45593999997E+02  0.45594000000E+02  0.51100000000E-03 0. -1.
    9900012    2    1    2    0    0  0.35066202862E+02  0.93395808856E+01  0.18338466204E+02  0.50528859613E+02  0.29999999280E+02 0.  0.
         12    1    1    2    0    0 -0.35066202862E+02 -0.93395808856E+01 -0.18338466204E+02  0.40659140387E+02  0.00000000000E+00 0. -1.
         11    1    3    3    0    0  0.27165681374E+02  0.16018528193E+02  0.15904790027E+02  0.35320388391E+02  0.51100000000E-03 0. -1.
        -11    1    3    3    0    0  0.22122445690E+01 -0.37520277861E+01  0.63555423339E+01  0.77048463424E+01  0.51100000000E-03 0.  1.
         12    1    3    3    0    0  0.56882769189E+01 -0.29269195214E+01 -0.39218661570E+01  0.75036248803E+01  0.00000000000E+00 0. -1.
</event>
<event>
 7    1  0.2900470E-011  0.5052886E+02  0.7816164E-02  0.1300439E+00
        -11   -1    0    0    0    0  0.00000000000E+00  0.00000000000E+00  0.45593999997E+02  0.45594000000E+02  0.51100000000E-03 0.  1.
         11   -1    0    0    0    0 -0.00000000000E+00 -0.00000000000E+00 -0.45593999997E+02  0.45594000000E+02  0.51100000000E-03 0. -1.
    9900012    2    1    2    0    0  0.31272663544E+02  0.20863114878E+02  0.15489247773E+02  0.50528857804E+02  0.29999993780E+02 0.  0.
         12    1    1    2    0    0 -0.31272663544E+02 -0.20863114878E+02 -0.15489247773E+02  0.40659142196E+02  0.00000000000E+00 0. -1.
         11    1    3    3    0    0 -0.19552503642E+01 -0.38044106539E+01  0.64465531178E+01  0.77365749380E+01  0.51100000000E-03 0. -1.
        -11    1    3    3    0    0  0.18765119693E+02  0.15360914549E+02  0.81020822992E+01  0.25568166745E+02  0.51100000000E-03 0.  1.
         12    1    3    3    0    0  0.14462794215E+02  0.93066109833E+01  0.94061235586E+00  0.17224116120E+02  0.00000000000E+00 0. -1.
</event>
<event>
 7    1  0.2900470E-011  0.5052886E+02  0.7816164E-02  0.1300439E+00
        -11   -1    0    0    0    0  0.00000000000E+00  0.00000000000E+00  0.45593999997E+02  0.45594000000E+02  0.51100000000E-03 0.  1.
         11   -1    0    0    0    0 -0.00000000000E+00 -0.00000000000E+00 -0.45593999997E+02  0.45594000000E+02  0.51100000000E-03 0. -1.
    9900012    2    1    2    0    0 -0.29832072199E+02 -0.12356157254E+02  0.24709073834E+02  0.50528862238E+02  0.30000007260E+02 0.  0.
         12    1    1    2    0    0  0.29832072199E+02  0.12356157254E+02 -0.24709073834E+02  0.40659137762E+02  0.00000000000E+00 0. -1.
         11    1    3    3    0    0 -0.22453972978E+02 -0.87331736705E+01 -0.37876447608E+00  0.24095491023E+02  0.51100000000E-03 0. -1.
        -11    1    3    3    0    0 -0.27046219319E+01 -0.17444412069E+01  0.11505698852E+02  0.11947349549E+02  0.51100000000E-03 0.  1.
         12    1    3    3    0    0 -0.46734772887E+01 -0.18785423769E+01  0.13582139459E+02  0.14486021666E+02  0.00000000000E+00 0. -1.
</event>
<event>
 7    1  0.2900470E-011  0.5052888E+02  0.7816164E-02  0.1300439E+00
        -11   -1    0    0    0    0  0.00000000000E+00  0.00000000000E+00  0.45593999997E+02  0.45594000000E+02  0.51100000000E-03 0.  1.
         11   -1    0    0    0    0 -0.00000000000E+00 -0.00000000000E+00 -0.45593999997E+02  0.45594000000E+02  0.51100000000E-03 0. -1.
    9900012    2    1    2    0    0 -0.40420308172E+02  0.16187910997E+01  0.40917185290E+01  0.50528881000E+02  0.30000064287E+02 0.  0.
         12    1    1    2    0    0  0.40420308172E+02 -0.16187910997E+01 -0.40917185290E+01  0.40659119000E+02  0.00000000000E+00 0. -1.
         11    1    3    3    0    0 -0.34267570549E+02 -0.10035363960E+02 -0.62929809690E+00  0.35712335929E+02  0.51100000000E-03 0. -1.
        -11    1    3    3    0    0 -0.38473409997E+01  0.10966465520E+02  0.41805445563E+01  0.12350803691E+02  0.51100000000E-03 0.  1.
        -12    1    3    3    0    0 -0.23053966234E+01  0.68768953974E+00  0.54047206954E+00  0.24657413798E+01  0.00000000000E+00 0.  1.
</event>
<event>
 7    1  0.2900470E-011  0.5052886E+02  0.7816164E-02  0.1300439E+00
        -11   -1    0    0    0    0  0.00000000000E+00  0.00000000000E+00  0.45593999997E+02  0.45594000000E+02  0.51100000000E-03 0.  1.
         11   -1    0    0    0    0 -0.00000000000E+00 -0.00000000000E+00 -0.45593999997E+02  0.45594000000E+02  0.51100000000E-03 0. -1.
    9900012    2    1    2    0    0  0.84291144416E+01  0.12051353949E+02  0.37906204985E+02  0.50528862299E+02  0.30000007443E+02 0.  0.
         12    1    1    2    0    0 -0.84291144416E+01 -0.12051353949E+02 -0.37906204985E+02  0.40659137701E+02  0.00000000000E+00 0. -1.
         11    1    3    3    0    0 -0.21172499853E+01  0.11094151812E+02  0.19214205903E+02  0.22287859042E+02  0.51100000000E-03 0.  1.
        -11    1    3    3    0    0  0.79464611088E+01 -0.82491733426E+01  0.11841300769E+02  0.16474571592E+02  0.51100000000E-03 0. -1.
         12    1    3    3    0    0  0.25999033182E+01  0.92063754795E+01  0.68506983126E+01  0.11766431664E+02  0.00000000000E+00 0. -1.
</event>
<event>
 7    1  0.2900470E-011  0.5052888E+02  0.7816164E-02  0.1300439E+00
        -11   -1    0    0    0    0  0.00000000000E+00  0.00000000000E+00  0.45593999997E+02  0.45594000000E+02  0.51100000000E-03 0.  1.
         11   -1    0    0    0    0 -0.00000000000E+00 -0.00000000000E+00 -0.45593999997E+02  0.45594000000E+02  0.51100000000E-03 0. -1.
    9900012    2    1    2    0    0 -0.42836877106E+01 -0.26024090130E+02  0.30944476172E+02  0.50528882289E+02  0.30000068205E+02 0.  0.
         12    1    1    2    0    0  0.42836877106E+01  0.26024090130E+02 -0.30944476172E+02  0.40659117711E+02  0.00000000000E+00 0. -1.
         11    1    3    3    0    0 -0.13486513387E+02 -0.12364524256E+02  0.26862322648E+02  0.32501567374E+02  0.51100000000E-03 0. -1.
        -11    1    3    3    0    0  0.21680354272E+01 -0.78468781733E+01  0.29239334243E+00  0.81461260000E+01  0.51100000000E-03 0.  1.
         12    1    3    3    0    0  0.70347902491E+01 -0.58126876999E+01  0.37897601815E+01  0.98811889153E+01  0.00000000000E+00 0. -1.
</event>
<event>
 7    1  0.2900470E-011  0.5052886E+02  0.7816164E-02  0.1300439E+00
        -11   -1    0    0    0    0  0.00000000000E+00  0.00000000000E+00  0.45593999997E+02  0.45594000000E+02  0.51100000000E-03 0.  1.
         11   -1    0    0    0    0 -0.00000000000E+00 -0.00000000000E+00 -0.45593999997E+02  0.45594000000E+02  0.51100000000E-03 0. -1.
    9900012    2    1    2    0    0 -0.36992315618E+02  0.16496480873E+02 -0.35497025356E+01  0.50528859772E+02  0.29999999763E+02 0.  0.
         12    1    1    2    0    0  0.36992315618E+02 -0.16496480873E+02  0.35497025356E+01  0.40659140228E+02  0.00000000000E+00 0. -1.
         11    1    3    3    0    0 -0.57352506299E+01  0.15717002206E+01  0.10415829058E+02  0.11993866624E+02  0.51100000000E-03 0. -1.
        -11    1    3    3    0    0 -0.23911055053E+02  0.14252251677E+02 -0.77668195174E+01  0.28899631785E+02  0.51100000000E-03 0.  1.
        -12    1    3    3    0    0 -0.73460099355E+01  0.67252897465E+00 -0.61987120760E+01  0.96353613630E+01  0.00000000000E+00 0.  1.
</event>
<event>
 7    1  0.2900470E-011  0.5052886E+02  0.7816164E-02  0.1300439E+00
        -11   -1    0    0    0    0  0.00000000000E+00  0.00000000000E+00  0.45593999997E+02  0.45594000000E+02  0.51100000000E-03 0.  1.
         11   -1    0    0    0    0 -0.00000000000E+00 -0.00000000000E+00 -0.45593999997E+02  0.45594000000E+02  0.51100000000E-03 0. -1.
    9900012    2    1    2    0    0 -0.35831158574E+01 -0.62430421978E+01  0.40016889495E+02  0.50528859085E+02  0.29999997673E+02 0.  0.
         12    1    1    2    0    0  0.35831158574E+01  0.62430421978E+01 -0.40016889495E+02  0.40659140915E+02  0.00000000000E+00 0. -1.
         11    1    3    3    0    0 -0.77009011298E+01 -0.63992678591E+01  0.28043396001E+02  0.29777282731E+02  0.51100000000E-03 0. -1.
        -11    1    3    3    0    0  0.37846004359E+01  0.49921363030E+01  0.14122203730E+02  0.15449312729E+02  0.51100000000E-03 0.  1.
        -12    1    3    3    0    0  0.33318483648E+00 -0.48359106417E+01 -0.21487102358E+01  0.53022636248E+01  0.00000000000E+00 0.  1.
</event>
<event>
 7    1  0.2900470E-011  0.5052886E+02  0.7816164E-02  0.1300439E+00
        -11   -1    0    0    0    0  0.00000000000E+00  0.00000000000E+00  0.45593999997E+02  0.45594000000E+02  0.51100000000E-03 0.  1.
         11   -1    0    0    0    0 -0.00000000000E+00 -0.00000000000E+00 -0.45593999997E+02  0.45594000000E+02  0.51100000000E-03 0. -1.
    9900012    2    1    2    0    0  0.43242885704E+01 -0.28614732487E+02  0.28559823027E+02  0.50528857384E+02  0.29999992504E+02 0.  0.
         12    1    1    2    0    0 -0.43242885704E+01  0.28614732487E+02 -0.28559823027E+02  0.40659142616E+02  0.00000000000E+00 0. -1.
         11    1    3    3    0    0 -0.35429931713E+01 -0.11424361658E+02  0.15195713804E+01  0.12057277360E+02  0.51100000000E-03 0. -1.
        -11    1    3    3    0    0  0.13582414975E+02 -0.15190216825E+02  0.24599642328E+02  0.31943185294E+02  0.51100000000E-03 0.  1.
        -12    1    3    3    0    0 -0.57151332329E+01 -0.20001540038E+01  0.24406093180E+01  0.65283947301E+01  0.00000000000E+00 0.  1.
</event>
<event>
 7    1  0.2900470E-011  0.5052885E+02  0.7816164E-02  0.1300439E+00
        -11   -1    0    0    0    0  0.00000000000E+00  0.00000000000E+00  0.45593999997E+02  0.45594000000E+02  0.51100000000E-03 0.  1.
         11   -1    0    0    0    0 -0.00000000000E+00 -0.00000000000E+00 -0.45593999997E+02  0.45594000000E+02  0.51100000000E-03 0. -1.
    9900012    2    1    2    0    0 -0.26335185436E+02  0.16153389170E+02 -0.26432788958E+02  0.50528852128E+02  0.29999976528E+02 0.  0.
         12    1    1    2    0    0  0.26335185436E+02 -0.16153389170E+02  0.26432788958E+02  0.40659147872E+02  0.00000000000E+00 0. -1.
         11    1    3    3    0    0 -0.14442389864E+02  0.18602230174E+02 -0.23834000105E+02  0.33506494202E+02  0.51100000000E-03 0. -1.
        -11    1    3    3    0    0 -0.74756998580E+00 -0.22347221379E+01  0.35733719914E+01  0.42804008653E+01  0.51100000000E-03 0.  1.
        -12    1    3    3    0    0 -0.11145225586E+02 -0.21411886653E+00 -0.61721608445E+01  0.12741957061E+02  0.00000000000E+00 0.  1.
</event>
<event>
 7    1  0.2900470E-011  0.5052886E+02  0.7816164E-02  0.1300439E+00
        -11   -1    0    0    0    0  0.00000000000E+00  0.00000000000E+00  0.45593999997E+02  0.45594000000E+02  0.51100000000E-03 0.  1.
         11   -1    0    0    0    0 -0.00000000000E+00 -0.00000000000E+00 -0.45593999997E+02  0.45594000000E+02  0.51100000000E-03 0. -1.
    9900012    2    1    2    0    0  0.87955556849E+01 -0.27318798635E+02  0.28800819937E+02  0.50528858498E+02  0.29999995891E+02 0.  0.
         12    1    1    2    0    0 -0.87955556849E+01  0.27318798635E+02 -0.28800819937E+02  0.40659141502E+02  0.00000000000E+00 0. -1.
         11    1    3    3    0    0  0.10200341827E+02 -0.41286951540E+01  0.19390124284E+02  0.22295067102E+02  0.51100000000E-03 0. -1.
        -11    1    3    3    0    0  0.30444064352E+01 -0.21414454296E+02  0.63250946361E+01  0.22535618158E+02  0.51100000000E-03 0.  1.
        -12    1    3    3    0    0 -0.44491925774E+01 -0.17756491844E+01  0.30856010165E+01  0.56981732380E+01  0.00000000000E+00 0.  1.
</event>
<event>
 7    1  0.2900470E-011  0.5052886E+02  0.7816164E-02  0.1300439E+00
        -11   -1    0    0    0    0  0.00000000000E+00  0.00000000000E+00  0.45593999997E+02  0.45594000000E+02  0.51100000000E-03 0. -1.
         11   -1    0    0    0    0 -0.00000000000E+00 -0.00000000000E+00 -0.45593999997E+02  0.45594000000E+02  0.51100000000E-03 0.  1.
    9900012    2    1    2    0    0 -0.31057758073E+02  0.99047614668E+01 -0.24299736466E+02  0.50528857995E+02  0.29999994361E+02 0.  0.
         12    1    1    2    0    0  0.31057758073E+02 -0.99047614668E+01  0.24299736466E+02  0.40659142005E+02  0.00000000000E+00 0. -1.
         11    1    3    3    0    0 -0.18225783788E+02  0.30527388449E+01 -0.67038329098E+01  0.19658071754E+02  0.51100000000E-03 0. -1.
        -11    1    3    3    0    0 -0.51722674971E+00 -0.63148060678E+01 -0.87123755926E+01  0.10772640712E+02  0.51100000000E-03 0.  1.
        -12    1    3    3    0    0 -0.12314747536E+02  0.13166828690E+02 -0.88835279637E+01  0.20098145529E+02  0.00000000000E+00 0.  1.
</event>
<event>
 7    1  0.2900470E-011  0.5052887E+02  0.7816164E-02  0.1300439E+00
        -11   -1    0    0    0    0  0.00000000000E+00  0.00000000000E+00  0.45593999997E+02  0.45594000000E+02  0.51100000000E-03 0. -1.
         11   -1    0    0    0    0 -0.00000000000E+00 -0.00000000000E+00 -0.45593999997E+02  0.45594000000E+02  0.51100000000E-03 0.  1.
    9900012    2    1    2    0    0  0.67540303186E+01 -0.53175828213E+01 -0.39740041533E+02  0.50528874165E+02  0.30000043513E+02 0.  0.
         12    1    1    2    0    0 -0.67540303186E+01  0.53175828213E+01  0.39740041533E+02  0.40659125835E+02  0.00000000000E+00 0. -1.
         11    1    3    3    0    0  0.13815671061E+02 -0.95082615047E+00 -0.11981949479E+02  0.18312398828E+02  0.51100000000E-03 0. -1.
        -11    1    3    3    0    0 -0.80737854960E+01  0.12528324860E+01 -0.72332530087E+01  0.10912174431E+02  0.51100000000E-03 0.  1.
         12    1    3    3    0    0  0.10121447538E+01 -0.56195891569E+01 -0.20524839045E+02  0.21304300906E+02  0.00000000000E+00 0. -1.
</event>
<event>
 7    1  0.2900470E-011  0.5052886E+02  0.7816164E-02  0.1300439E+00
        -11   -1    0    0    0    0  0.00000000000E+00  0.00000000000E+00  0.45593999997E+02  0.45594000000E+02  0.51100000000E-03 0.  1.
         11   -1    0    0    0    0 -0.00000000000E+00 -0.00000000000E+00 -0.45593999997E+02  0.45594000000E+02  0.51100000000E-03 0. -1.
    9900012    2    1    2    0    0  0.20041751071E+02  0.24391590471E+02  0.25623110417E+02  0.50528864998E+02  0.30000015647E+02 0.  0.
         12    1    1    2    0    0 -0.20041751071E+02 -0.24391590471E+02 -0.25623110417E+02  0.40659135002E+02  0.00000000000E+00 0. -1.
         11    1    3    3    0    0  0.15848904484E+02  0.64733020470E+00  0.11269087972E+02  0.19457624565E+02  0.51100000000E-03 0.  1.
        -11    1    3    3    0    0  0.57211517637E+01  0.21623811115E+02  0.72688208192E+01  0.23519280198E+02  0.51100000000E-03 0. -1.
        -12    1    3    3    0    0 -0.15283051766E+01  0.21204491510E+01  0.70852016252E+01  0.75519602345E+01  0.00000000000E+00 0.  1.
</event>
<event>
 7    1  0.2900470E-011  0.5052887E+02  0.7816164E-02  0.1300439E+00
        -11   -1    0    0    0    0  0.00000000000E+00  0.00000000000E+00  0.45593999997E+02  0.45594000000E+02  0.51100000000E-03 0.  1.
         11   -1    0    0    0    0 -0.00000000000E+00 -0.00000000000E+00 -0.45593999997E+02  0.45594000000E+02  0.51100000000E-03 0. -1.
    9900012    2    1    2    0    0 -0.27151474188E+02 -0.28057690846E+02  0.11345861648E+02  0.50528866429E+02  0.30000019998E+02 0.  0.
         12    1    1    2    0    0  0.27151474188E+02  0.28057690846E+02 -0.11345861648E+02  0.40659133571E+02  0.00000000000E+00 0. -1.
         11    1    3    3    0    0  0.11645126854E+01 -0.11786208918E+02  0.11384739036E+02  0.16428118993E+02  0.51100000000E-03 0. -1.
        -11    1    3    3    0    0 -0.11297111827E+02 -0.11884405086E+01  0.78870743245E-01  0.11359724791E+02  0.51100000000E-03 0.  1.
        -12    1    3    3    0    0 -0.17018875047E+02 -0.15083041420E+02 -0.11774813196E+00  0.22741022645E+02  0.00000000000E+00 0.  1.
</event>
<event>
 7    1  0.2900470E-011  0.5052887E+02  0.7816164E-02  0.1300439E+00
        -11   -1    0    0    0    0  0.00000000000E+00  0.00000000000E+00  0.45593999997E+02  0.45594000000E+02  0.51100000000E-03 0.  1.
         11   -1    0    0    0    0 -0.00000000000E+00 -0.00000000000E+00 -0.45593999997E+02  0.45594000000E+02  0.51100000000E-03 0. -1.
    9900012    2    1    2    0    0 -0.22132241593E+02  0.81728073824E+01  0.33113954138E+02  0.50528869942E+02  0.30000030675E+02 0.  0.
         12    1    1    2    0    0  0.22132241593E+02 -0.81728073824E+01 -0.33113954138E+02  0.40659130058E+02  0.00000000000E+00 0. -1.
         11    1    3    3    0    0  0.29990848917E+01 -0.18588531814E+01  0.91916757552E+00  0.36461917984E+01  0.51100000000E-03 0. -1.
        -11    1    3    3    0    0 -0.23853806255E+02  0.12674633298E+02  0.18171410208E+02  0.32555345971E+02  0.51100000000E-03 0.  1.
        -12    1    3    3    0    0 -0.12775202303E+01 -0.26429727339E+01  0.14023376354E+02  0.14327332172E+02  0.00000000000E+00 0.  1.
</event>
<event>
 7    1  0.2900470E-011  0.5052889E+02  0.7816164E-02  0.1300439E+00
        -11   -1    0    0    0    0  0.00000000000E+00  0.00000000000E+00  0.45593999997E+02  0.45594000000E+02  0.51100000000E-03 0.  1.
         11   -1    0    0    0    0 -0.00000000000E+00 -0.00000000000E+00 -0.45593999997E+02  0.45594000000E+02  0.51100000000E-03 0. -1.
    9900012    2    1    2    0    0  0.35699980191E+00  0.38624604480E+02  0.12695491645E+02  0.50528892432E+02  0.30000099036E+02 0.  0.
         12    1    1    2    0    0 -0.35699980191E+00 -0.38624604480E+02 -0.12695491645E+02  0.40659107568E+02  0.00000000000E+00 0. -1.
         11    1    3    3    0    0  0.39762333452E+01  0.17668822640E+02  0.19812609773E+02  0.26842824580E+02  0.51100000000E-03 0. -1.
        -11    1    3    3    0    0  0.18242168980E+01  0.43698629434E+01  0.24292025347E+00  0.47415693547E+01  0.51100000000E-03 0.  1.
         12    1    3    3    0    0 -0.54434504413E+01  0.16585918897E+02 -0.73600383818E+01  0.18944498498E+02  0.00000000000E+00 0. -1.
</event>
<event>
 7    1  0.2900470E-011  0.5052888E+02  0.7816164E-02  0.1300439E+00
        -11   -1    0    0    0    0  0.00000000000E+00  0.00000000000E+00  0.45593999997E+02  0.45594000000E+02  0.51100000000E-03 0. -1.
         11   -1    0    0    0    0 -0.00000000000E+00 -0.00000000000E+00 -0.45593999997E+02  0.45594000000E+02  0.51100000000E-03 0.  1.
    9900012    2    1    2    0    0 -0.13267604932E+01  0.35853449856E+02 -0.19129394812E+02  0.50528881639E+02  0.30000066231E+02 0.  0.
         12    1    1    2    0    0  0.13267604932E+01 -0.35853449856E+02  0.19129394812E+02  0.40659118361E+02  0.00000000000E+00 0. -1.
         11    1    3    3    0    0  0.42089296401E+01  0.26308398259E+02 -0.47634567097E+01  0.27065428645E+02  0.51100000000E-03 0.  1.
        -11    1    3    3    0    0 -0.30450256108E+01 -0.37961882876E+01 -0.26907352905E+01  0.55608707187E+01  0.51100000000E-03 0. -1.
        -12    1    3    3    0    0 -0.24906645225E+01  0.13341239885E+02 -0.11675202812E+02  0.17902582275E+02  0.00000000000E+00 0.  1.
</event>
<event>
 7    1  0.2900470E-011  0.5052886E+02  0.7816164E-02  0.1300439E+00
        -11   -1    0    0    0    0  0.00000000000E+00  0.00000000000E+00  0.45593999997E+02  0.45594000000E+02  0.51100000000E-03 0. -1.
         11   -1    0    0    0    0 -0.00000000000E+00 -0.00000000000E+00 -0.45593999997E+02  0.45594000000E+02  0.51100000000E-03 0.  1.
    9900012    2    1    2    0    0 -0.18152506620E+02 -0.31790411031E+02 -0.17692436244E+02  0.50528855514E+02  0.29999986820E+02 0.  0.
         12    1    1    2    0    0  0.18152506620E+02  0.31790411031E+02  0.17692436244E+02  0.40659144486E+02  0.00000000000E+00 0. -1.
         11    1    3    3    0    0  0.29075083751E+01  0.19319463861E+01  0.10154934746E+01  0.36355534721E+01  0.51100000000E-03 0. -1.
        -11    1    3    3    0    0 -0.21295658195E+02 -0.24822742780E+02 -0.19291416576E+02  0.37971467851E+02  0.51100000000E-03 0.  1.
        -12    1    3    3    0    0  0.23564319921E+00 -0.88996146372E+01  0.58348685700E+00  0.89218341903E+01  0.00000000000E+00 0.  1.
</event>
<event>
 7    1  0.2900470E-011  0.5052886E+02  0.7816164E-02  0.1300439E+00
        -11   -1    0    0    0    0  0.00000000000E+00  0.00000000000E+00  0.45593999997E+02  0.45594000000E+02  0.51100000000E-03 0.  1.
         11   -1    0    0    0    0 -0.00000000000E+00 -0.00000000000E+00 -0.45593999997E+02  0.45594000000E+02  0.51100000000E-03 0. -1.
    9900012    2    1    2    0    0 -0.12574839531E+02  0.89169006719E+01  0.37623504207E+02  0.50528858646E+02  0.29999996341E+02 0.  0.
         12    1    1    2    0    0  0.12574839531E+02 -0.89169006719E+01 -0.37623504207E+02  0.40659141354E+02  0.00000000000E+00 0. -1.
         11    1    3    3    0    0 -0.18710930575E+02  0.14895460219E+02  0.26276293103E+02  0.35530511361E+02  0.51100000000E-03 0. -1.
        -11    1    3    3    0    0  0.59836570384E+01 -0.37206370062E+01  0.10360679259E+02  0.12529603595E+02  0.51100000000E-03 0.  1.
         12    1    3    3    0    0  0.15243400614E+00 -0.22579225404E+01  0.98653184510E+00  0.24687436898E+01  0.00000000000E+00 0. -1.
</event>
<event>
 7    1  0.2900470E-011  0.5052886E+02  0.7816164E-02  0.1300439E+00
        -11   -1    0    0    0    0  0.00000000000E+00  0.00000000000E+00  0.45593999997E+02  0.45594000000E+02  0.51100000000E-03 0. -1.
         11   -1    0    0    0    0 -0.00000000000E+00 -0.00000000000E+00 -0.45593999997E+02  0.45594000000E+02  0.51100000000E-03 0.  1.
    9900012    2    1    2    0    0  0.38480503680E+02  0.12206494364E+02  0.48392056109E+01  0.50528861063E+02  0.30000003687E+02 0.  0.
         12    1    1    2    0    0 -0.38480503680E+02 -0.12206494364E+02 -0.48392056109E+01  0.40659138937E+02  0.00000000000E+00 0. -1.
         11    1    3    3    0    0  0.26763647244E+02  0.11557799622E+02  0.92271403411E+01  0.30578025853E+02  0.51100000000E-03 0. -1.
        -11    1    3    3    0    0 -0.37538490553E+01 -0.12073773094E+00  0.29838184067E+00  0.37676242267E+01  0.51100000000E-03 0.  1.
        -12    1    3    3    0    0  0.15470705491E+02  0.76943247362E+00 -0.46863165709E+01  0.16183210983E+02  0.00000000000E+00 0.  1.
</event>
<event>
 7    1  0.2900470E-011  0.5052887E+02  0.7816164E-02  0.1300439E+00
        -11   -1    0    0    0    0  0.00000000000E+00  0.00000000000E+00  0.45593999997E+02  0.45594000000E+02  0.51100000000E-03 0. -1.
         11   -1    0    0    0    0 -0.00000000000E+00 -0.00000000000E+00 -0.45593999997E+02  0.45594000000E+02  0.51100000000E-03 0.  1.
    9900012    2    1    2    0    0  0.33946392368E+02  0.22363372242E+02  0.82888928711E+00  0.50528867812E+02  0.30000024201E+02 0.  0.
         12    1    1    2    0    0 -0.33946392368E+02 -0.22363372242E+02 -0.82888928711E+00  0.40659132188E+02  0.00000000000E+00 0. -1.
         11    1    3    3    0    0  0.83040550636E+01  0.17463518319E+02  0.88869415311E+01  0.21281671283E+02  0.51100000000E-03 0. -1.
        -11    1    3    3    0    0  0.15758156963E+02 -0.91866600478E+00 -0.81766108061E+01  0.17776963257E+02  0.51100000000E-03 0.  1.
         12    1    3    3    0    0  0.98841803412E+01  0.58185199279E+01  0.11855856214E+00  0.11470233271E+02  0.00000000000E+00 0. -1.
</event>
<event>
 7    1  0.2900470E-011  0.5052890E+02  0.7816164E-02  0.1300439E+00
        -11   -1    0    0    0    0  0.00000000000E+00  0.00000000000E+00  0.45593999997E+02  0.45594000000E+02  0.51100000000E-03 0.  1.
         11   -1    0    0    0    0 -0.00000000000E+00 -0.00000000000E+00 -0.45593999997E+02  0.45594000000E+02  0.51100000000E-03 0. -1.
    9900012    2    1    2    0    0  0.32586868576E+02 -0.97206328488E+01  0.22288288094E+02  0.50528899017E+02  0.30000119053E+02 0.  0.
         12    1    1    2    0    0 -0.32586868576E+02  0.97206328488E+01 -0.22288288094E+02  0.40659100983E+02  0.00000000000E+00 0. -1.
         11    1    3    3    0    0 -0.25268842167E+01 -0.21055429647E+01  0.40528098294E+01  0.52195519726E+01  0.51100000000E-03 0. -1.
        -11    1    3    3    0    0  0.33584313707E+02 -0.17829244920E+00  0.12668640280E+02  0.35894740035E+02  0.51100000000E-03 0.  1.
        -12    1    3    3    0    0  0.15294390855E+01 -0.74367974349E+01  0.55668379848E+01  0.94146070100E+01  0.00000000000E+00 0.  1.
</event>
<event>
 7    1  0.2900470E-011  0.5052885E+02  0.7816164E-02  0.1300439E+00
        -11   -1    0    0    0    0  0.00000000000E+00  0.00000000000E+00  0.45593999997E+02  0.45594000000E+02  0.51100000000E-03 0.  1.
         11   -1    0    0    0    0 -0.00000000000E+00 -0.00000000000E+00 -0.45593999997E+02  0.45594000000E+02  0.51100000000E-03 0. -1.
    9900012    2    1    2    0    0  0.65316116915E+01  0.31405925770E+02  0.24983435189E+02  0.50528853937E+02  0.29999982026E+02 0.  0.
         12    1    1    2    0    0 -0.65316116915E+01 -0.31405925770E+02 -0.24983435189E+02  0.40659146063E+02  0.00000000000E+00 0. -1.
         11    1    3    3    0    0 -0.17817911624E+01  0.10348028244E+02  0.40825707425E+01  0.11266048660E+02  0.51100000000E-03 0. -1.
        -11    1    3    3    0    0  0.36147933735E+01  0.41244211536E+01  0.20984519284E+02  0.21689343715E+02  0.51100000000E-03 0.  1.
        -12    1    3    3    0    0  0.46986094804E+01  0.16933476372E+02 -0.83654837016E-01  0.17573461561E+02  0.00000000000E+00 0.  1.
</event>
<event>
 7    1  0.2900470E-011  0.5052886E+02  0.7816164E-02  0.1300439E+00
        -11   -1    0    0    0    0  0.00000000000E+00  0.00000000000E+00  0.45593999997E+02  0.45594000000E+02  0.51100000000E-03 0. -1.
         11   -1    0    0    0    0 -0.00000000000E+00 -0.00000000000E+00 -0.45593999997E+02  0.45594000000E+02  0.51100000000E-03 0.  1.
    9900012    2    1    2    0    0  0.30453177381E+02 -0.14130451365E+01  0.26903022100E+02  0.50528864406E+02  0.30000013847E+02 0.  0.
         12    1    1    2    0    0 -0.30453177381E+02  0.14130451365E+01 -0.26903022100E+02  0.40659135594E+02  0.00000000000E+00 0. -1.
         11    1    3    3    0    0 -0.91927497064E+00 -0.79726313675E+01  0.89987158979E+01  0.12057562169E+02  0.51100000000E-03 0. -1.
        -11    1    3    3    0    0  0.24228573763E+02  0.58958103750E+01  0.18817018417E+02  0.31238830787E+02  0.51100000000E-03 0.  1.
        -12    1    3    3    0    0  0.71438785891E+01  0.66377585601E+00 -0.91271221484E+00  0.72324714497E+01  0.00000000000E+00 0.  1.
</event>
<event>
 7    1  0.2900470E-011  0.5052885E+02  0.7816164E-02  0.1300439E+00
        -11   -1    0    0    0    0  0.00000000000E+00  0.00000000000E+00  0.45593999997E+02  0.45594000000E+02  0.51100000000E-03 0.  1.
         11   -1    0    0    0    0 -0.00000000000E+00 -0.00000000000E+00 -0.45593999997E+02  0.45594000000E+02  0.51100000000E-03 0. -1.
    9900012    2    1    2    0    0 -0.70624144889E+01  0.11038891145E+01  0.40025868271E+02  0.50528850963E+02  0.29999972987E+02 0.  0.
         12    1    1    2    0    0  0.70624144889E+01 -0.11038891145E+01 -0.40025868271E+02  0.40659149037E+02  0.00000000000E+00 0. -1.
         11    1    3    3    0    0 -0.57569158811E+01  0.57362336628E+01  0.77878444167E+01  0.11255975214E+02  0.51100000000E-03 0. -1.
        -11    1    3    3    0    0 -0.87106332302E+01 -0.99948258994E+01  0.18101123542E+02  0.22437075339E+02  0.51100000000E-03 0.  1.
        -12    1    3    3    0    0  0.74051346223E+01  0.53624813511E+01  0.14136900312E+02  0.16835800410E+02  0.00000000000E+00 0.  1.
</event>
<event>
 7    1  0.2900470E-011  0.5052882E+02  0.7816164E-02  0.1300439E+00
        -11   -1    0    0    0    0  0.00000000000E+00  0.00000000000E+00  0.45593999997E+02  0.45594000000E+02  0.51100000000E-03 0.  1.
         11   -1    0    0    0    0 -0.00000000000E+00 -0.00000000000E+00 -0.45593999997E+02  0.45594000000E+02  0.51100000000E-03 0. -1.
    9900012    2    1    2    0    0 -0.14598261068E+02 -0.52436613067E+00  0.37944493275E+02  0.50528821996E+02  0.29999884939E+02 0.  0.
         12    1    1    2    0    0  0.14598261068E+02  0.52436613067E+00 -0.37944493275E+02  0.40659178004E+02  0.00000000000E+00 0. -1.
         11    1    3    3    0    0 -0.14275264457E+02  0.46380264387E+01  0.59060909079E+01  0.16129983715E+02  0.51100000000E-03 0. -1.
        -11    1    3    3    0    0  0.39300875647E+01  0.13447090691E+00  0.42415748584E+01  0.57839975996E+01  0.51100000000E-03 0.  1.
         12    1    3    3    0    0 -0.42530841763E+01 -0.52968634763E+01  0.27796827509E+02  0.28614840682E+02  0.00000000000E+00 0. -1.
</event>
<event>
 7    1  0.2900470E-011  0.5052886E+02  0.7816164E-02  0.1300439E+00
        -11   -1    0    0    0    0  0.00000000000E+00  0.00000000000E+00  0.45593999997E+02  0.45594000000E+02  0.51100000000E-03 0. -1.
         11   -1    0    0    0    0 -0.00000000000E+00 -0.00000000000E+00 -0.45593999997E+02  0.45594000000E+02  0.51100000000E-03 0.  1.
    9900012    2    1    2    0    0 -0.20090915093E+02  0.23991100316E+02 -0.25960513223E+02  0.50528855759E+02  0.29999987564E+02 0.  0.
         12    1    1    2    0    0  0.20090915093E+02 -0.23991100316E+02  0.25960513223E+02  0.40659144241E+02  0.00000000000E+00 0. -1.
         11    1    3    3    0    0 -0.10338259653E+02  0.12274887094E+02 -0.51097252901E+01  0.16842261090E+02  0.51100000000E-03 0. -1.
        -11    1    3    3    0    0 -0.90253395431E+01 -0.27985402501E+01 -0.15591267091E+02  0.18231187321E+02  0.51100000000E-03 0.  1.
        -12    1    3    3    0    0 -0.72731589641E+00  0.14514753472E+02 -0.52595208426E+01  0.15455407347E+02  0.00000000000E+00 0.  1.
</event>
<event>
 7    1  0.2900470E-011  0.5052886E+02  0.7816164E-02  0.1300439E+00
        -11   -1    0    0    0    0  0.00000000000E+00  0.00000000000E+00  0.45593999997E+02  0.45594000000E+02  0.51100000000E-03 0. -1.
         11   -1    0    0    0    0 -0.00000000000E+00 -0.00000000000E+00 -0.45593999997E+02  0.45594000000E+02  0.51100000000E-03 0.  1.
    9900012    2    1    2    0    0  0.12295209195E+02  0.22178163586E+02 -0.31782422057E+02  0.50528862516E+02  0.30000008102E+02 0.  0.
         12    1    1    2    0    0 -0.12295209195E+02 -0.22178163586E+02  0.31782422057E+02  0.40659137484E+02  0.00000000000E+00 0. -1.
         11    1    3    3    0    0 -0.18158888983E+01  0.11694481189E+02 -0.58433853932E+01  0.13198617196E+02  0.51100000000E-03 0. -1.
        -11    1    3    3    0    0  0.17701571687E+02  0.23223323515E+01 -0.15945914226E+02  0.23937649185E+02  0.51100000000E-03 0.  1.
        -12    1    3    3    0    0 -0.35904735931E+01  0.81613500456E+01 -0.99931224377E+01  0.13392596135E+02  0.00000000000E+00 0.  1.
</event>
<event>
 7    1  0.2900470E-011  0.5052886E+02  0.7816164E-02  0.1300439E+00
        -11   -1    0    0    0    0  0.00000000000E+00  0.00000000000E+00  0.45593999997E+02  0.45594000000E+02  0.51100000000E-03 0. -1.
         11   -1    0    0    0    0 -0.00000000000E+00 -0.00000000000E+00 -0.45593999997E+02  0.45594000000E+02  0.51100000000E-03 0.  1.
    9900012    2    1    2    0    0 -0.88308180489E+01 -0.36151136585E+02 -0.16379184469E+02  0.50528859482E+02  0.29999998881E+02 0.  0.
         12    1    1    2    0    0  0.88308180489E+01  0.36151136585E+02  0.16379184469E+02  0.40659140518E+02  0.00000000000E+00 0. -1.
         11    1    3    3    0    0 -0.32482606099E+01  0.43125412352E+01 -0.29082400397E+01  0.61324602962E+01  0.51100000000E-03 0. -1.
        -11    1    3    3    0    0 -0.84447833797E+01 -0.30492493513E+02 -0.12338429952E+02  0.33960909601E+02  0.51100000000E-03 0.  1.
         12    1    3    3    0    0  0.28622259407E+01 -0.99711843077E+01 -0.11325144768E+01  0.10435489585E+02  0.00000000000E+00 0. -1.
</event>
<event>
 7    1  0.2900470E-011  0.5052887E+02  0.7816164E-02  0.1300439E+00
        -11   -1    0    0    0    0  0.00000000000E+00  0.00000000000E+00  0.45593999997E+02  0.45594000000E+02  0.51100000000E-03 0. -1.
         11   -1    0    0    0    0 -0.00000000000E+00 -0.00000000000E+00 -0.45593999997E+02  0.45594000000E+02  0.51100000000E-03 0.  1.
    9900012    2    1    2    0    0  0.27870738485E+02  0.93469169126E+01 -0.28089539635E+02  0.50528866261E+02  0.30000019487E+02 0.  0.
         12    1    1    2    0    0 -0.27870738485E+02 -0.93469169126E+01  0.28089539635E+02  0.40659133739E+02  0.00000000000E+00 0. -1.
         11    1    3    3    0    0  0.30685025013E+01  0.54698197914E+01  0.10204265742E+01  0.63542038688E+01  0.51100000000E-03 0. -1.
        -11    1    3    3    0    0  0.28157416473E+02  0.65035769617E+01 -0.24385329404E+02  0.37812443801E+02  0.51100000000E-03 0.  1.
        -12    1    3    3    0    0 -0.33551804894E+01 -0.26264798405E+01 -0.47246368050E+01  0.63622185917E+01  0.00000000000E+00 0.  1.
</event>
<event>
 7    1  0.2900470E-011  0.5052886E+02  0.7816164E-02  0.1300439E+00
        -11   -1    0    0    0    0  0.00000000000E+00  0.00000000000E+00  0.45593999997E+02  0.45594000000E+02  0.51100000000E-03 0. -1.
         11   -1    0    0    0    0 -0.00000000000E+00 -0.00000000000E+00 -0.45593999997E+02  0.45594000000E+02  0.51100000000E-03 0.  1.
    9900012    2    1    2    0    0  0.21171891846E+02 -0.26217386398E+01 -0.34612763355E+02  0.50528857056E+02  0.29999991508E+02 0.  0.
         12    1    1    2    0    0 -0.21171891846E+02  0.26217386398E+01  0.34612763355E+02  0.40659142944E+02  0.00000000000E+00 0. -1.
         11    1    3    3    0    0 -0.29521309712E+01 -0.53631825856E+01 -0.91410578844E+01  0.11001715513E+02  0.51100000000E-03 0. -1.
        -11    1    3    3    0    0  0.22934393959E+02  0.44599456468E+01 -0.12713901753E+02  0.26599263890E+02  0.51100000000E-03 0.  1.
        -12    1    3    3    0    0  0.11896288586E+01 -0.17185017010E+01 -0.12757803718E+02  0.12927877653E+02  0.00000000000E+00 0.  1.
</event>
<event>
 7    1  0.2900470E-011  0.5052885E+02  0.7816164E-02  0.1300439E+00
        -11   -1    0    0    0    0  0.00000000000E+00  0.00000000000E+00  0.45593999997E+02  0.45594000000E+02  0.51100000000E-03 0.  1.
         11   -1    0    0    0    0 -0.00000000000E+00 -0.00000000000E+00 -0.45593999997E+02  0.45594000000E+02  0.51100000000E-03 0. -1.
    9900012    2    1    2    0    0 -0.13493375854E+02 -0.22849523691E+02  0.30805753903E+02  0.50528850989E+02  0.29999973065E+02 0.  0.
         12    1    1    2    0    0  0.13493375854E+02  0.22849523691E+02 -0.30805753903E+02  0.40659149011E+02  0.00000000000E+00 0. -1.
         11    1    3    3    0    0 -0.34506607802E+01 -0.21913577971E+01 -0.31682465252E+01  0.51717400477E+01  0.51100000000E-03 0. -1.
        -11    1    3    3    0    0 -0.47686446734E+01 -0.20676243294E+02  0.34005778504E+02  0.40082913825E+02  0.51100000000E-03 0.  1.
        -12    1    3    3    0    0 -0.52740703999E+01  0.18077400631E-01 -0.31778075846E-01  0.52741971163E+01  0.00000000000E+00 0.  1.
</event>
<event>
 7    1  0.2900470E-011  0.5052891E+02  0.7816164E-02  0.1300439E+00
        -11   -1    0    0    0    0  0.00000000000E+00  0.00000000000E+00  0.45593999997E+02  0.45594000000E+02  0.51100000000E-03 0.  1.
         11   -1    0    0    0    0 -0.00000000000E+00 -0.00000000000E+00 -0.45593999997E+02  0.45594000000E+02  0.51100000000E-03 0. -1.
    9900012    2    1    2    0    0  0.93858117037E+01  0.81185412647E+01  0.38718949443E+02  0.50528914674E+02  0.30000166641E+02 0.  0.
         12    1    1    2    0    0 -0.93858117037E+01 -0.81185412647E+01 -0.38718949443E+02  0.40659085326E+02  0.00000000000E+00 0. -1.
         11    1    3    3    0    0 -0.66789058057E+01 -0.47771593909E+01  0.12935414354E+02  0.15321683307E+02  0.51100000000E-03 0. -1.
        -11    1    3    3    0    0  0.50791321804E+01  0.67835980702E+01  0.26508994524E+01  0.88793048519E+01  0.51100000000E-03 0.  1.
         12    1    3    3    0    0  0.10985585329E+02  0.61121025853E+01  0.23132635637E+02  0.26327926514E+02  0.00000000000E+00 0. -1.
</event>
<event>
 7    1  0.2900470E-011  0.5052886E+02  0.7816164E-02  0.1300439E+00
        -11   -1    0    0    0    0  0.00000000000E+00  0.00000000000E+00  0.45593999997E+02  0.45594000000E+02  0.51100000000E-03 0.  1.
         11   -1    0    0    0    0 -0.00000000000E+00 -0.00000000000E+00 -0.45593999997E+02  0.45594000000E+02  0.51100000000E-03 0. -1.
    9900012    2    1    2    0    0  0.12149764274E+02 -0.19771470025E+02  0.33386196984E+02  0.50528856528E+02  0.29999989901E+02 0.  0.
         12    1    1    2    0    0 -0.12149764274E+02  0.19771470025E+02 -0.33386196984E+02  0.40659143472E+02  0.00000000000E+00 0. -1.
         11    1    3    3    0    0 -0.30645775916E+01 -0.19935710462E+02  0.16764495965E+02  0.26227323780E+02  0.51100000000E-03 0. -1.
        -11    1    3    3    0    0  0.14266149027E+02 -0.28561843103E+01  0.13286402613E+02  0.19703027472E+02  0.51100000000E-03 0.  1.
         12    1    3    3    0    0  0.94819283857E+00  0.30204247478E+01  0.33352984057E+01  0.45985052758E+01  0.00000000000E+00 0. -1.
</event>
<event>
 7    1  0.2900470E-011  0.5052890E+02  0.7816164E-02  0.1300439E+00
        -11   -1    0    0    0    0  0.00000000000E+00  0.00000000000E+00  0.45593999997E+02  0.45594000000E+02  0.51100000000E-03 0.  1.
         11   -1    0    0    0    0 -0.00000000000E+00 -0.00000000000E+00 -0.45593999997E+02  0.45594000000E+02  0.51100000000E-03 0. -1.
    9900012    2    1    2    0    0 -0.65343523657E+00 -0.25886751349E+02  0.31346637931E+02  0.50528897912E+02  0.30000115693E+02 0.  0.
         12    1    1    2    0    0  0.65343523657E+00  0.25886751349E+02 -0.31346637931E+02  0.40659102088E+02  0.00000000000E+00 0. -1.
         11    1    3    3    0    0  0.67589823100E+01 -0.56727062235E+01  0.27418373261E+01  0.92401899304E+01  0.51100000000E-03 0. -1.
        -11    1    3    3    0    0 -0.21617848466E-02 -0.13913015207E+02  0.28325159202E+02  0.31557671664E+02  0.51100000000E-03 0.  1.
        -12    1    3    3    0    0 -0.74102557617E+01 -0.63010299189E+01  0.27964140322E+00  0.97310363173E+01  0.00000000000E+00 0.  1.
</event>
<event>
 7    1  0.2900470E-011  0.5052886E+02  0.7816164E-02  0.1300439E+00
        -11   -1    0    0    0    0  0.00000000000E+00  0.00000000000E+00  0.45593999997E+02  0.45594000000E+02  0.51100000000E-03 0.  1.
         11   -1    0    0    0    0 -0.00000000000E+00 -0.00000000000E+00 -0.45593999997E+02  0.45594000000E+02  0.51100000000E-03 0. -1.
    9900012    2    1    2    0    0 -0.68744020057E+00  0.33565353844E+02  0.22935992805E+02  0.50528864266E+02  0.30000013422E+02 0.  0.
         12    1    1    2    0    0  0.68744020057E+00 -0.33565353844E+02 -0.22935992805E+02  0.40659135734E+02  0.00000000000E+00 0. -1.
         11    1    3    3    0    0  0.27231629927E+01  0.72134695562E+01  0.95697758270E+01  0.12289441377E+02  0.51100000000E-03 0. -1.
        -11    1    3    3    0    0  0.46887434637E+01  0.14805252766E+01 -0.44172838715E+01  0.66097403448E+01  0.51100000000E-03 0.  1.
        -12    1    3    3    0    0 -0.80993466570E+01  0.24871359011E+02  0.17783500850E+02  0.31629682544E+02  0.00000000000E+00 0.  1.
</event>
<event>
 7    1  0.2900470E-011  0.5052886E+02  0.7816164E-02  0.1300439E+00
        -11   -1    0    0    0    0  0.00000000000E+00  0.00000000000E+00  0.45593999997E+02  0.45594000000E+02  0.51100000000E-03 0.  1.
         11   -1    0    0    0    0 -0.00000000000E+00 -0.00000000000E+00 -0.45593999997E+02  0.45594000000E+02  0.51100000000E-03 0. -1.
    9900012    2    1    2    0    0  0.61147972735E+01  0.15533134182E+02  0.37074201029E+02  0.50528863448E+02  0.30000010937E+02 0.  0.
         12    1    1    2    0    0 -0.61147972735E+01 -0.15533134182E+02 -0.37074201029E+02  0.40659136552E+02  0.00000000000E+00 0. -1.
         11    1    3    3    0    0 -0.53487482899E+01  0.57527683451E+01  0.33968342489E+02  0.34864763639E+02  0.51100000000E-03 0. -1.
        -11    1    3    3    0    0  0.10679014748E+02  0.91472597535E+01  0.36381036972E+01  0.14524101203E+02  0.51100000000E-03 0.  1.
         12    1    3    3    0    0  0.78453081520E+00  0.63310608371E+00 -0.53224515775E+00  0.11399986058E+01  0.00000000000E+00 0. -1.
</event>
<event>
 7    1  0.2900470E-011  0.5052880E+02  0.7816164E-02  0.1300439E+00
        -11   -1    0    0    0    0  0.00000000000E+00  0.00000000000E+00  0.45593999997E+02  0.45594000000E+02  0.51100000000E-03 0. -1.
         11   -1    0    0    0    0 -0.00000000000E+00 -0.00000000000E+00 -0.45593999997E+02  0.45594000000E+02  0.51100000000E-03 0.  1.
    9900012    2    1    2    0    0  0.39401026855E+02 -0.91760141002E+01  0.40657790758E+01  0.50528797948E+02  0.29999811843E+02 0.  0.
         12    1    1    2    0    0 -0.39401026855E+02  0.91760141002E+01 -0.40657790758E+01  0.40659202052E+02  0.00000000000E+00 0. -1.
         11    1    3    3    0    0  0.50307189430E+01 -0.44295214221E+01  0.46198639872E+01  0.81407577432E+01  0.51100000000E-03 0. -1.
        -11    1    3    3    0    0  0.28013417357E+02  0.38884582402E+01  0.71656806854E+01  0.29175651483E+02  0.51100000000E-03 0.  1.
        -12    1    3    3    0    0  0.63568905551E+01 -0.86349509184E+01 -0.77197655967E+01  0.13212388723E+02  0.00000000000E+00 0.  1.
</event>
<event>
 7    1  0.2900470E-011  0.5052886E+02  0.7816164E-02  0.1300439E+00
        -11   -1    0    0    0    0  0.00000000000E+00  0.00000000000E+00  0.45593999997E+02  0.45594000000E+02  0.51100000000E-03 0. -1.
         11   -1    0    0    0    0 -0.00000000000E+00 -0.00000000000E+00 -0.45593999997E+02  0.45594000000E+02  0.51100000000E-03 0.  1.
    9900012    2    1    2    0    0 -0.34849401338E+02  0.20348510808E+02 -0.49621460823E+01  0.50528861305E+02  0.30000004423E+02 0.  0.
         12    1    1    2    0    0  0.34849401338E+02 -0.20348510808E+02  0.49621460823E+01  0.40659138695E+02  0.00000000000E+00 0. -1.
         11    1    3    3    0    0 -0.17292750908E+02  0.39679929393E+01  0.99784819154E+01  0.20355694622E+02  0.51100000000E-03 0. -1.
        -11    1    3    3    0    0 -0.42740327743E+01  0.82428464826E+01 -0.10412712828E+02  0.13951217259E+02  0.51100000000E-03 0.  1.
        -12    1    3    3    0    0 -0.13282617655E+02  0.81376713856E+01 -0.45279151694E+01  0.16221949424E+02  0.00000000000E+00 0.  1.
</event>
<event>
 7    1  0.2900470E-011  0.5052886E+02  0.7816164E-02  0.1300439E+00
        -11   -1    0    0    0    0  0.00000000000E+00  0.00000000000E+00  0.45593999997E+02  0.45594000000E+02  0.51100000000E-03 0.  1.
         11   -1    0    0    0    0 -0.00000000000E+00 -0.00000000000E+00 -0.45593999997E+02  0.45594000000E+02  0.51100000000E-03 0. -1.
    9900012    2    1    2    0    0  0.23324684758E+02 -0.30118811923E+02  0.14212041019E+02  0.50528857601E+02  0.29999993164E+02 0.  0.
         12    1    1    2    0    0 -0.23324684758E+02  0.30118811923E+02 -0.14212041019E+02  0.40659142399E+02  0.00000000000E+00 0. -1.
         11    1    3    3    0    0  0.15757926110E+01  0.26013026200E+01 -0.65378361614E-01  0.30420671040E+01  0.51100000000E-03 0. -1.
        -11    1    3    3    0    0  0.22179792360E+02 -0.22770517626E+02  0.22435671726E+01  0.31866491115E+02  0.51100000000E-03 0.  1.
        -12    1    3    3    0    0 -0.43090021352E+00 -0.99495969168E+01  0.12033852208E+02  0.15620299382E+02  0.00000000000E+00 0.  1.
</event>
<event>
 7    1  0.2900470E-011  0.5052886E+02  0.7816164E-02  0.1300439E+00
        -11   -1    0    0    0    0  0.00000000000E+00  0.00000000000E+00  0.45593999997E+02  0.45594000000E+02  0.51100000000E-03 0.  1.
         11   -1    0    0    0    0 -0.00000000000E+00 -0.00000000000E+00 -0.45593999997E+02  0.45594000000E+02  0.51100000000E-03 0. -1.
    9900012    2    1    2    0    0  0.11646222888E+02 -0.76445993203E+01  0.38198050294E+02  0.50528862619E+02  0.30000008415E+02 0.  0.
         12    1    1    2    0    0 -0.11646222888E+02  0.76445993203E+01 -0.38198050294E+02  0.40659137381E+02  0.00000000000E+00 0. -1.
         11    1    3    3    0    0  0.17764959554E+02  0.12623572849E+01  0.10369407956E+02  0.20608540839E+02  0.51100000000E-03 0. -1.
        -11    1    3    3    0    0 -0.32071388158E+01 -0.55102006888E+01  0.13937413225E+02  0.15326432679E+02  0.51100000000E-03 0.  1.
         12    1    3    3    0    0 -0.29115978504E+01 -0.33967559164E+01  0.13891229113E+02  0.14593889100E+02  0.00000000000E+00 0. -1.
</event>
<event>
 7    1  0.2900470E-011  0.5052884E+02  0.7816164E-02  0.1300439E+00
        -11   -1    0    0    0    0  0.00000000000E+00  0.00000000000E+00  0.45593999997E+02  0.45594000000E+02  0.51100000000E-03 0. -1.
         11   -1    0    0    0    0 -0.00000000000E+00 -0.00000000000E+00 -0.45593999997E+02  0.45594000000E+02  0.51100000000E-03 0.  1.
    9900012    2    1    2    0    0  0.20415953084E+02  0.34823894043E+02 -0.48633492844E+01  0.50528844784E+02  0.29999954205E+02 0.  0.
         12    1    1    2    0    0 -0.20415953084E+02 -0.34823894043E+02  0.48633492844E+01  0.40659155216E+02  0.00000000000E+00 0. -1.
         11    1    3    3    0    0  0.81681982441E+00  0.17507226149E+02 -0.36607280930E+01  0.17904499225E+02  0.51100000000E-03 0. -1.
        -11    1    3    3    0    0  0.14589079942E+02  0.79888690606E+00  0.28685282584E+01  0.14889859921E+02  0.51100000000E-03 0.  1.
        -12    1    3    3    0    0  0.50100533174E+01  0.16517780988E+02 -0.40711494499E+01  0.17734485638E+02  0.00000000000E+00 0.  1.
</event>
<event>
 7    1  0.2900470E-011  0.5052885E+02  0.7816164E-02  0.1300439E+00
        -11   -1    0    0    0    0  0.00000000000E+00  0.00000000000E+00  0.45593999997E+02  0.45594000000E+02  0.51100000000E-03 0. -1.
         11   -1    0    0    0    0 -0.00000000000E+00 -0.00000000000E+00 -0.45593999997E+02  0.45594000000E+02  0.51100000000E-03 0.  1.
    9900012    2    1    2    0    0 -0.84373766489E+01  0.39164287763E+02 -0.69379786690E+01  0.50528852091E+02  0.29999976416E+02 0.  0.
         12    1    1    2    0    0  0.84373766489E+01 -0.39164287763E+02  0.69379786690E+01  0.40659147909E+02  0.00000000000E+00 0. -1.
         11    1    3    3    0    0 -0.34286193691E+01 -0.29949038926E+00 -0.76784356150E+01  0.84144815067E+01  0.51100000000E-03 0. -1.
        -11    1    3    3    0    0 -0.41017838745E+01  0.23315265261E+02 -0.62652234494E+01  0.24488349277E+02  0.51100000000E-03 0.  1.
         12    1    3    3    0    0 -0.90697340529E+00  0.16148512891E+02  0.70056803954E+01  0.17626021308E+02  0.00000000000E+00 0. -1.
</event>
<event>
 7    1  0.2900470E-011  0.5052886E+02  0.7816164E-02  0.1300439E+00
        -11   -1    0    0    0    0  0.00000000000E+00  0.00000000000E+00  0.45593999997E+02  0.45594000000E+02  0.51100000000E-03 0. -1.
         11   -1    0    0    0    0 -0.00000000000E+00 -0.00000000000E+00 -0.45593999997E+02  0.45594000000E+02  0.51100000000E-03 0.  1.
    9900012    2    1    2    0    0 -0.25652094455E+02 -0.27863128078E+01 -0.31422483883E+02  0.50528856104E+02  0.29999988614E+02 0.  0.
         12    1    1    2    0    0  0.25652094455E+02  0.27863128078E+01  0.31422483883E+02  0.40659143896E+02  0.00000000000E+00 0. -1.
         11    1    3    3    0    0  0.36495576232E+01  0.18807224810E+01  0.20390582531E+01  0.45841189684E+01  0.51100000000E-03 0. -1.
        -11    1    3    3    0    0 -0.19286925668E+02 -0.70917968679E+01 -0.17740716663E+02  0.27147967005E+02  0.51100000000E-03 0.  1.
        -12    1    3    3    0    0 -0.10014726410E+02  0.24247615791E+01 -0.15720825473E+02  0.18796770131E+02  0.00000000000E+00 0.  1.
</event>
<event>
 7    1  0.2900470E-011  0.5052885E+02  0.7816164E-02  0.1300439E+00
        -11   -1    0    0    0    0  0.00000000000E+00  0.00000000000E+00  0.45593999997E+02  0.45594000000E+02  0.51100000000E-03 0.  1.
         11   -1    0    0    0    0 -0.00000000000E+00 -0.00000000000E+00 -0.45593999997E+02  0.45594000000E+02  0.51100000000E-03 0. -1.
    9900012    2    1    2    0    0  0.18365065452E+02 -0.70558606185E-01  0.36275143036E+02  0.50528848387E+02  0.29999965158E+02 0.  0.
         12    1    1    2    0    0 -0.18365065452E+02  0.70558606185E-01 -0.36275143036E+02  0.40659151613E+02  0.00000000000E+00 0. -1.
         11    1    3    3    0    0  0.44905391033E+00 -0.23458515862E+01  0.21550873219E+02  0.21682822830E+02  0.51100000000E-03 0. -1.
        -11    1    3    3    0    0  0.10193627956E+02  0.55460264582E+01 -0.33445390894E+00  0.11609492670E+02  0.51100000000E-03 0.  1.
        -12    1    3    3    0    0  0.77223835856E+01 -0.32707334781E+01  0.15058723726E+02  0.17236532888E+02  0.00000000000E+00 0.  1.
</event>
<event>
 7    1  0.2900470E-011  0.5052886E+02  0.7816164E-02  0.1300439E+00
        -11   -1    0    0    0    0  0.00000000000E+00  0.00000000000E+00  0.45593999997E+02  0.45594000000E+02  0.51100000000E-03 0.  1.
         11   -1    0    0    0    0 -0.00000000000E+00 -0.00000000000E+00 -0.45593999997E+02  0.45594000000E+02  0.51100000000E-03 0. -1.
    9900012    2    1    2    0    0  0.28405203000E+02 -0.96887426719E+01  0.27430614667E+02  0.50528856956E+02  0.29999991203E+02 0.  0.
         12    1    1    2    0    0 -0.28405203000E+02  0.96887426719E+01 -0.27430614667E+02  0.40659143044E+02  0.00000000000E+00 0. -1.
         11    1    3    3    0    0  0.17178292421E+02 -0.31521487379E+01  0.30190790345E+02  0.34878554931E+02  0.51100000000E-03 0.  1.
        -11    1    3    3    0    0  0.92753924578E+01 -0.85100692318E+00 -0.24497151583E+01  0.96311070313E+01  0.51100000000E-03 0. -1.
         12    1    3    3    0    0  0.19515181213E+01 -0.56855870109E+01 -0.31046051904E+00  0.60191949935E+01  0.00000000000E+00 0. -1.
</event>
<event>
 7    1  0.2900470E-011  0.5052884E+02  0.7816164E-02  0.1300439E+00
        -11   -1    0    0    0    0  0.00000000000E+00  0.00000000000E+00  0.45593999997E+02  0.45594000000E+02  0.51100000000E-03 0.  1.
         11   -1    0    0    0    0 -0.00000000000E+00 -0.00000000000E+00 -0.45593999997E+02  0.45594000000E+02  0.51100000000E-03 0. -1.
    9900012    2    1    2    0    0  0.18921684540E+02 -0.32984413542E+02 -0.14393234709E+02  0.50528844968E+02  0.29999954764E+02 0.  0.
         12    1    1    2    0    0 -0.18921684540E+02  0.32984413542E+02  0.14393234709E+02  0.40659155032E+02  0.00000000000E+00 0. -1.
         11    1    3    3    0    0  0.19879977651E+02 -0.20508890846E+02 -0.11561052050E+02  0.30813731353E+02  0.51100000000E-03 0. -1.
        -11    1    3    3    0    0 -0.11106063111E+01 -0.15971638106E+02 -0.22479984989E+01  0.16167256035E+02  0.51100000000E-03 0.  1.
        -12    1    3    3    0    0  0.15231320005E+00  0.34961154104E+01 -0.58418416015E+00  0.35478575798E+01  0.00000000000E+00 0.  1.
</event>
<event>
 7    1  0.2900470E-011  0.5052886E+02  0.7816164E-02  0.1300439E+00
        -11   -1    0    0    0    0  0.00000000000E+00  0.00000000000E+00  0.45593999997E+02  0.45594000000E+02  0.51100000000E-03 0. -1.
         11   -1    0    0    0    0 -0.00000000000E+00 -0.00000000000E+00 -0.45593999997E+02  0.45594000000E+02  0.51100000000E-03 0.  1.
    9900012    2    1    2    0    0  0.29598944740E+02 -0.22633890286E+02  0.16271915337E+02  0.50528858986E+02  0.29999997375E+02 0.  0.
         12    1    1    2    0    0 -0.29598944740E+02  0.22633890286E+02 -0.16271915337E+02  0.40659141014E+02  0.00000000000E+00 0. -1.
         11    1    3    3    0    0  0.74280396667E+01 -0.15492393150E+02  0.16832420745E+02  0.24052451169E+02  0.51100000000E-03 0. -1.
        -11    1    3    3    0    0  0.18520504211E+02 -0.63208814485E+01 -0.54551404723E+01  0.20315540267E+02  0.51100000000E-03 0.  1.
        -12    1    3    3    0    0  0.36504008628E+01 -0.82061568731E+00  0.48946350642E+01  0.61608675507E+01  0.00000000000E+00 0.  1.
</event>
<event>
 7    1  0.2900470E-011  0.5052887E+02  0.7816164E-02  0.1300439E+00
        -11   -1    0    0    0    0  0.00000000000E+00  0.00000000000E+00  0.45593999997E+02  0.45594000000E+02  0.51100000000E-03 0. -1.
         11   -1    0    0    0    0 -0.00000000000E+00 -0.00000000000E+00 -0.45593999997E+02  0.45594000000E+02  0.51100000000E-03 0.  1.
    9900012    2    1    2    0    0  0.29309192896E+02  0.25182912913E+02 -0.12647405607E+02  0.50528871141E+02  0.30000034321E+02 0.  0.
         12    1    1    2    0    0 -0.29309192896E+02 -0.25182912913E+02  0.12647405607E+02  0.40659128859E+02  0.00000000000E+00 0. -1.
         11    1    3    3    0    0 -0.22337059214E+01  0.90424853935E+01  0.37538615916E+01  0.10042283672E+02  0.51100000000E-03 0. -1.
        -11    1    3    3    0    0  0.20679686513E+02  0.14633370732E+02 -0.14971051157E+02  0.29426473561E+02  0.51100000000E-03 0.  1.
         12    1    3    3    0    0  0.10863212304E+02  0.15070567866E+01 -0.14302160423E+01  0.11060113908E+02  0.00000000000E+00 0. -1.
</event>
<event>
 7    1  0.2900470E-011  0.5052886E+02  0.7816164E-02  0.1300439E+00
        -11   -1    0    0    0    0  0.00000000000E+00  0.00000000000E+00  0.45593999997E+02  0.45594000000E+02  0.51100000000E-03 0.  1.
         11   -1    0    0    0    0 -0.00000000000E+00 -0.00000000000E+00 -0.45593999997E+02  0.45594000000E+02  0.51100000000E-03 0. -1.
    9900012    2    1    2    0    0  0.26830861370E+02  0.12221466119E+02  0.27998322280E+02  0.50528863186E+02  0.30000010140E+02 0.  0.
         12    1    1    2    0    0 -0.26830861370E+02 -0.12221466119E+02 -0.27998322280E+02  0.40659136814E+02  0.00000000000E+00 0. -1.
         11    1    3    3    0    0 -0.20522389771E+01  0.62392806414E+00  0.80243935814E+01  0.83061340983E+01  0.51100000000E-03 0. -1.
        -11    1    3    3    0    0  0.17444150556E+02  0.21509626316E+00  0.12293049789E+01  0.17488734831E+02  0.51100000000E-03 0.  1.
        -12    1    3    3    0    0  0.11438949791E+02  0.11382441792E+02  0.18744623720E+02  0.24733994256E+02  0.00000000000E+00 0.  1.
</event>
<event>
 7    1  0.2900470E-011  0.5052886E+02  0.7816164E-02  0.1300439E+00
        -11   -1    0    0    0    0  0.00000000000E+00  0.00000000000E+00  0.45593999997E+02  0.45594000000E+02  0.51100000000E-03 0.  1.
         11   -1    0    0    0    0 -0.00000000000E+00 -0.00000000000E+00 -0.45593999997E+02  0.45594000000E+02  0.51100000000E-03 0. -1.
    9900012    2    1    2    0    0 -0.74072573373E+01  0.25387127294E+02  0.30883517512E+02  0.50528863912E+02  0.30000012347E+02 0.  0.
         12    1    1    2    0    0  0.74072573373E+01 -0.25387127294E+02 -0.30883517512E+02  0.40659136088E+02  0.00000000000E+00 0. -1.
         11    1    3    3    0    0 -0.62973416104E+01 -0.30652724843E+01  0.10445872479E+02  0.12576512190E+02  0.51100000000E-03 0. -1.
        -11    1    3    3    0    0 -0.51563367756E+01  0.20146125866E+02  0.19762648284E+02  0.28688263520E+02  0.51100000000E-03 0.  1.
        -12    1    3    3    0    0  0.40464210487E+01  0.83062739118E+01  0.67499674961E+00  0.92640882019E+01  0.00000000000E+00 0.  1.
</event>
<event>
 7    1  0.2900470E-011  0.5052885E+02  0.7816164E-02  0.1300439E+00
        -11   -1    0    0    0    0  0.00000000000E+00  0.00000000000E+00  0.45593999997E+02  0.45594000000E+02  0.51100000000E-03 0.  1.
         11   -1    0    0    0    0 -0.00000000000E+00 -0.00000000000E+00 -0.45593999997E+02  0.45594000000E+02  0.51100000000E-03 0. -1.
    9900012    2    1    2    0    0  0.13893839395E+02  0.35090631985E+02  0.15125315329E+02  0.50528851090E+02  0.29999973374E+02 0.  0.
         12    1    1    2    0    0 -0.13893839395E+02 -0.35090631985E+02 -0.15125315329E+02  0.40659148910E+02  0.00000000000E+00 0. -1.
         11    1    3    3    0    0  0.11088023685E+01  0.29125601012E+01 -0.73339330299E+01  0.79686274216E+01  0.51100000000E-03 0. -1.
        -11    1    3    3    0    0  0.82635955557E+01  0.17104778530E+02  0.18081195354E+02  0.26225752339E+02  0.51100000000E-03 0.  1.
         12    1    3    3    0    0  0.45214414709E+01  0.15073293353E+02  0.43780530050E+01  0.16334471329E+02  0.00000000000E+00 0. -1.
</event>
<event>
 7    1  0.2900470E-011  0.5052886E+02  0.7816164E-02  0.1300439E+00
        -11   -1    0    0    0    0  0.00000000000E+00  0.00000000000E+00  0.45593999997E+02  0.45594000000E+02  0.51100000000E-03 0.  1.
         11   -1    0    0    0    0 -0.00000000000E+00 -0.00000000000E+00 -0.45593999997E+02  0.45594000000E+02  0.51100000000E-03 0. -1.
    9900012    2    1    2    0    0 -0.21493512139E+02 -0.33269707254E+02  0.91826717890E+01  0.50528856550E+02  0.29999989971E+02 0.  0.
         12    1    1    2    0    0  0.21493512139E+02  0.33269707254E+02 -0.91826717890E+01  0.40659143450E+02  0.00000000000E+00 0. -1.
         11    1    3    3    0    0 -0.17283849712E+02 -0.27029915077E+02  0.17573742465E+02  0.36581200013E+02  0.51100000000E-03 0.  1.
        -11    1    3    3    0    0 -0.21738698130E+01 -0.21299137428E-01 -0.69031316406E+01  0.72373607293E+01  0.51100000000E-03 0. -1.
        -12    1    3    3    0    0 -0.20357926143E+01 -0.62184930398E+01 -0.14879390353E+01  0.67102958077E+01  0.00000000000E+00 0.  1.
</event>
<event>
 7    1  0.2900470E-011  0.5052886E+02  0.7816164E-02  0.1300439E+00
        -11   -1    0    0    0    0  0.00000000000E+00  0.00000000000E+00  0.45593999997E+02  0.45594000000E+02  0.51100000000E-03 0.  1.
         11   -1    0    0    0    0 -0.00000000000E+00 -0.00000000000E+00 -0.45593999997E+02  0.45594000000E+02  0.51100000000E-03 0. -1.
    9900012    2    1    2    0    0 -0.34749815762E+02 -0.11132358695E+02  0.17935629270E+02  0.50528857081E+02  0.29999991583E+02 0.  0.
         12    1    1    2    0    0  0.34749815762E+02  0.11132358695E+02 -0.17935629270E+02  0.40659142919E+02  0.00000000000E+00 0. -1.
         11    1    3    3    0    0  0.34845292202E+01  0.43549962465E+00 -0.33576678051E+01  0.48585529904E+01  0.51100000000E-03 0. -1.
        -11    1    3    3    0    0 -0.17547840340E+02 -0.28835017073E+01  0.11588655972E+02  0.21225885852E+02  0.51100000000E-03 0.  1.
         12    1    3    3    0    0 -0.20686504643E+02 -0.86843566119E+01  0.97046411029E+01  0.24444418239E+02  0.00000000000E+00 0. -1.
</event>
<event>
 7    1  0.2900470E-011  0.5052886E+02  0.7816164E-02  0.1300439E+00
        -11   -1    0    0    0    0  0.00000000000E+00  0.00000000000E+00  0.45593999997E+02  0.45594000000E+02  0.51100000000E-03 0.  1.
         11   -1    0    0    0    0 -0.00000000000E+00 -0.00000000000E+00 -0.45593999997E+02  0.45594000000E+02  0.51100000000E-03 0. -1.
    9900012    2    1    2    0    0  0.19858302175E+02 -0.35099684943E+02  0.51793558280E+01  0.50528858651E+02  0.29999996357E+02 0.  0.
         12    1    1    2    0    0 -0.19858302175E+02  0.35099684943E+02 -0.51793558280E+01  0.40659141349E+02  0.00000000000E+00 0. -1.
         11    1    3    3    0    0 -0.19614795961E+01 -0.75856315037E+01  0.78800273186E+01  0.11112337212E+02  0.51100000000E-03 0. -1.
        -11    1    3    3    0    0  0.11874400458E+02 -0.42757901525E+01 -0.59110741083E+01  0.13936447361E+02  0.51100000000E-03 0.  1.
        -12    1    3    3    0    0  0.99453813138E+01 -0.23238263287E+02  0.32104026176E+01  0.25480074079E+02  0.00000000000E+00 0.  1.
</event>
<event>
 7    1  0.2900470E-011  0.5052886E+02  0.7816164E-02  0.1300439E+00
        -11   -1    0    0    0    0  0.00000000000E+00  0.00000000000E+00  0.45593999997E+02  0.45594000000E+02  0.51100000000E-03 0. -1.
         11   -1    0    0    0    0 -0.00000000000E+00 -0.00000000000E+00 -0.45593999997E+02  0.45594000000E+02  0.51100000000E-03 0.  1.
    9900012    2    1    2    0    0  0.19353541061E+02 -0.15912118315E+02 -0.32022031327E+02  0.50528861406E+02  0.30000004731E+02 0.  0.
         12    1    1    2    0    0 -0.19353541061E+02  0.15912118315E+02  0.32022031327E+02  0.40659138594E+02  0.00000000000E+00 0. -1.
         11    1    3    3    0    0 -0.13185284775E+00  0.42077489477E+01 -0.26101487411E+01  0.49533234391E+01  0.51100000000E-03 0. -1.
        -11    1    3    3    0    0  0.23305670946E+02 -0.15617728724E+02 -0.27705855385E+02  0.39429458170E+02  0.51100000000E-03 0.  1.
        -12    1    3    3    0    0 -0.38202770371E+01 -0.45021385383E+01 -0.17060272009E+01  0.61460797968E+01  0.00000000000E+00 0.  1.
</event>
<event>
 7    1  0.2900470E-011  0.5052891E+02  0.7816164E-02  0.1300439E+00
        -11   -1    0    0    0    0  0.00000000000E+00  0.00000000000E+00  0.45593999997E+02  0.45594000000E+02  0.51100000000E-03 0.  1.
         11   -1    0    0    0    0 -0.00000000000E+00 -0.00000000000E+00 -0.45593999997E+02  0.45594000000E+02  0.51100000000E-03 0. -1.
    9900012    2    1    2    0    0 -0.13661813490E+02  0.86357633715E+01  0.37308713185E+02  0.50528909548E+02  0.30000151063E+02 0.  0.
         12    1    1    2    0    0  0.13661813490E+02 -0.86357633715E+01 -0.37308713185E+02  0.40659090452E+02  0.00000000000E+00 0. -1.
         11    1    3    3    0    0  0.60828313555E+01  0.10967958073E+02  0.92867902141E+01  0.15605813479E+02  0.51100000000E-03 0. -1.
        -11    1    3    3    0    0 -0.48855089130E+00  0.96522117922E+00  0.55192179145E+00  0.12144759459E+01  0.51100000000E-03 0.  1.
         12    1    3    3    0    0 -0.19256093954E+02 -0.32974158806E+01  0.27470001179E+02  0.33708620124E+02  0.00000000000E+00 0. -1.
</event>
<event>
 7    1  0.2900470E-011  0.5052895E+02  0.7816164E-02  0.1300438E+00
        -11   -1    0    0    0    0  0.00000000000E+00  0.00000000000E+00  0.45593999997E+02  0.45594000000E+02  0.51100000000E-03 0.  1.
         11   -1    0    0    0    0 -0.00000000000E+00 -0.00000000000E+00 -0.45593999997E+02  0.45594000000E+02  0.51100000000E-03 0. -1.
    9900012    2    1    2    0    0  0.72655685483E+01 -0.24833354906E+02  0.31363577410E+02  0.50528954387E+02  0.30000287353E+02 0.  0.
         12    1    1    2    0    0 -0.72655685483E+01  0.24833354906E+02 -0.31363577410E+02  0.40659045613E+02  0.00000000000E+00 0. -1.
         11    1    3    3    0    0  0.65198697418E+01 -0.12639841436E+02  0.31163140676E+02  0.34255154795E+02  0.51100000000E-03 0. -1.
        -11    1    3    3    0    0  0.36256316455E+01 -0.11292616288E+02  0.29167463491E+01  0.12213754418E+02  0.51100000000E-03 0.  1.
         12    1    3    3    0    0 -0.28799328390E+01 -0.90089718314E+00 -0.27163096154E+01  0.40600451744E+01  0.00000000000E+00 0. -1.
</event>
<event>
 7    1  0.2900470E-011  0.5052885E+02  0.7816164E-02  0.1300439E+00
        -11   -1    0    0    0    0  0.00000000000E+00  0.00000000000E+00  0.45593999997E+02  0.45594000000E+02  0.51100000000E-03 0.  1.
         11   -1    0    0    0    0 -0.00000000000E+00 -0.00000000000E+00 -0.45593999997E+02  0.45594000000E+02  0.51100000000E-03 0. -1.
    9900012    2    1    2    0    0 -0.98026146805E+01  0.35863865946E+02  0.16457764070E+02  0.50528854247E+02  0.29999982969E+02 0.  0.
         12    1    1    2    0    0  0.98026146805E+01 -0.35863865946E+02 -0.16457764070E+02  0.40659145753E+02  0.00000000000E+00 0. -1.
         11    1    3    3    0    0 -0.67775221416E+00 -0.34589505982E+01 -0.19232261150E+01  0.40152815911E+01  0.51100000000E-03 0. -1.
        -11    1    3    3    0    0 -0.91512696847E+01  0.17339332042E+02  0.33690877579E+01  0.19893439247E+02  0.51100000000E-03 0.  1.
         12    1    3    3    0    0  0.26407218325E-01  0.21983484503E+02  0.15011902427E+02  0.26620133409E+02  0.00000000000E+00 0. -1.
</event>
<event>
 7    1  0.2900470E-011  0.5052887E+02  0.7816164E-02  0.1300439E+00
        -11   -1    0    0    0    0  0.00000000000E+00  0.00000000000E+00  0.45593999997E+02  0.45594000000E+02  0.51100000000E-03 0.  1.
         11   -1    0    0    0    0 -0.00000000000E+00 -0.00000000000E+00 -0.45593999997E+02  0.45594000000E+02  0.51100000000E-03 0. -1.
    9900012    2    1    2    0    0  0.42693231528E+01  0.34827429829E+02 -0.20542339196E+02  0.50528872017E+02  0.30000036983E+02 0.  0.
         12    1    1    2    0    0 -0.42693231528E+01 -0.34827429829E+02  0.20542339196E+02  0.40659127983E+02  0.00000000000E+00 0. -1.
         11    1    3    3    0    0 -0.31751870978E+01 -0.76541260438E-01 -0.10283335873E+02  0.10762651560E+02  0.51100000000E-03 0. -1.
        -11    1    3    3    0    0  0.45530934231E+01  0.27928699924E+02 -0.13733975220E+02  0.31454173249E+02  0.51100000000E-03 0.  1.
        -12    1    3    3    0    0  0.28914168276E+01  0.69752711658E+01  0.34749718968E+01  0.83120472081E+01  0.00000000000E+00 0.  1.
</event>
<event>
 7    1  0.2900470E-011  0.5052881E+02  0.7816164E-02  0.1300439E+00
        -11   -1    0    0    0    0  0.00000000000E+00  0.00000000000E+00  0.45593999997E+02  0.45594000000E+02  0.51100000000E-03 0.  1.
         11   -1    0    0    0    0 -0.00000000000E+00 -0.00000000000E+00 -0.45593999997E+02  0.45594000000E+02  0.51100000000E-03 0. -1.
    9900012    2    1    2    0    0  0.31442114715E+02 -0.24402923993E+02  0.83102711178E+01  0.50528808134E+02  0.29999842803E+02 0.  0.
         12    1    1    2    0    0 -0.31442114715E+02  0.24402923993E+02 -0.83102711178E+01  0.40659191866E+02  0.00000000000E+00 0. -1.
         11    1    3    3    0    0  0.67831485657E+01 -0.16486585006E+02 -0.76869037089E+01  0.19414094841E+02  0.51100000000E-03 0. -1.
        -11    1    3    3    0    0  0.12914414366E+02 -0.44227675476E+01  0.12142005423E+02  0.18269407958E+02  0.51100000000E-03 0.  1.
         12    1    3    3    0    0  0.11744551784E+02 -0.34935714390E+01  0.38551694038E+01  0.12845305334E+02  0.00000000000E+00 0. -1.
</event>
<event>
 7    1  0.2900470E-011  0.5052886E+02  0.7816164E-02  0.1300439E+00
        -11   -1    0    0    0    0  0.00000000000E+00  0.00000000000E+00  0.45593999997E+02  0.45594000000E+02  0.51100000000E-03 0.  1.
         11   -1    0    0    0    0 -0.00000000000E+00 -0.00000000000E+00 -0.45593999997E+02  0.45594000000E+02  0.51100000000E-03 0. -1.
    9900012    2    1    2    0    0  0.15733970285E+02 -0.13374463294E+02  0.35024729736E+02  0.50528858562E+02  0.29999996086E+02 0.  0.
         12    1    1    2    0    0 -0.15733970285E+02  0.13374463294E+02 -0.35024729736E+02  0.40659141438E+02  0.00000000000E+00 0. -1.
         11    1    3    3    0    0  0.11430509078E+01 -0.47349815360E+01 -0.16054320271E+01  0.51287452441E+01  0.51100000000E-03 0. -1.
        -11    1    3    3    0    0  0.43779318620E+01 -0.59147285305E+01  0.33611081682E+02  0.34407195658E+02  0.51100000000E-03 0.  1.
        -12    1    3    3    0    0  0.10212987515E+02 -0.27247532278E+01  0.30190800818E+01  0.10992917660E+02  0.00000000000E+00 0.  1.
</event>
<event>
 7    1  0.2900470E-011  0.5052885E+02  0.7816164E-02  0.1300439E+00
        -11   -1    0    0    0    0  0.00000000000E+00  0.00000000000E+00  0.45593999997E+02  0.45594000000E+02  0.51100000000E-03 0.  1.
         11   -1    0    0    0    0 -0.00000000000E+00 -0.00000000000E+00 -0.45593999997E+02  0.45594000000E+02  0.51100000000E-03 0. -1.
    9900012    2    1    2    0    0 -0.33241062133E+02  0.80602198655E+01  0.21982511122E+02  0.50528854028E+02  0.29999982302E+02 0.  0.
         12    1    1    2    0    0  0.33241062133E+02 -0.80602198655E+01 -0.21982511122E+02  0.40659145972E+02  0.00000000000E+00 0. -1.
         11    1    3    3    0    0 -0.32727210835E+01  0.52916965876E+00 -0.15777072339E+01  0.36714961793E+01  0.51100000000E-03 0. -1.
        -11    1    3    3    0    0 -0.15454253606E+02 -0.14681490922E+01  0.25308791939E+02  0.29690476014E+02  0.51100000000E-03 0.  1.
        -12    1    3    3    0    0 -0.14514087444E+02  0.89991992990E+01 -0.17485735834E+01  0.17166881835E+02  0.00000000000E+00 0.  1.
</event>
<event>
 7    1  0.2900470E-011  0.5052886E+02  0.7816164E-02  0.1300439E+00
        -11   -1    0    0    0    0  0.00000000000E+00  0.00000000000E+00  0.45593999997E+02  0.45594000000E+02  0.51100000000E-03 0.  1.
         11   -1    0    0    0    0 -0.00000000000E+00 -0.00000000000E+00 -0.45593999997E+02  0.45594000000E+02  0.51100000000E-03 0. -1.
    9900012    2    1    2    0    0  0.13921841478E+02  0.12124128941E+02  0.36226418530E+02  0.50528861148E+02  0.30000003944E+02 0.  0.
         12    1    1    2    0    0 -0.13921841478E+02 -0.12124128941E+02 -0.36226418530E+02  0.40659138852E+02  0.00000000000E+00 0. -1.
         11    1    3    3    0    0  0.77793094692E+01  0.21742796909E+02  0.22561377351E+02  0.32284402139E+02  0.51100000000E-03 0. -1.
        -11    1    3    3    0    0  0.42326714802E+01 -0.54083895716E+01  0.52556499902E+01  0.86480080191E+01  0.51100000000E-03 0.  1.
         12    1    3    3    0    0  0.19098605285E+01 -0.42102783970E+01  0.84093911892E+01  0.95964509893E+01  0.00000000000E+00 0. -1.
</event>
<event>
 7    1  0.2900470E-011  0.5052887E+02  0.7816164E-02  0.1300439E+00
        -11   -1    0    0    0    0  0.00000000000E+00  0.00000000000E+00  0.45593999997E+02  0.45594000000E+02  0.51100000000E-03 0.  1.
         11   -1    0    0    0    0 -0.00000000000E+00 -0.00000000000E+00 -0.45593999997E+02  0.45594000000E+02  0.51100000000E-03 0. -1.
    9900012    2    1    2    0    0  0.13794376362E+02 -0.31428416122E+02  0.21797589162E+02  0.50528867539E+02  0.30000023373E+02 0.  0.
         12    1    1    2    0    0 -0.13794376362E+02  0.31428416122E+02 -0.21797589162E+02  0.40659132461E+02  0.00000000000E+00 0. -1.
         11    1    3    3    0    0  0.17924212695E+02 -0.92634633273E+01  0.14144061319E+02  0.24640284584E+02  0.51100000000E-03 0. -1.
        -11    1    3    3    0    0 -0.16343748159E+01 -0.13966658166E+02 -0.48478385491E+00  0.14070314034E+02  0.51100000000E-03 0.  1.
         12    1    3    3    0    0 -0.24954615162E+01 -0.81982946287E+01  0.81383116977E+01  0.11818268921E+02  0.00000000000E+00 0. -1.
</event>
<event>
 7    1  0.2900470E-011  0.5052886E+02  0.7816164E-02  0.1300439E+00
        -11   -1    0    0    0    0  0.00000000000E+00  0.00000000000E+00  0.45593999997E+02  0.45594000000E+02  0.51100000000E-03 0. -1.
         11   -1    0    0    0    0 -0.00000000000E+00 -0.00000000000E+00 -0.45593999997E+02  0.45594000000E+02  0.51100000000E-03 0.  1.
    9900012    2    1    2    0    0  0.39273994688E+02  0.40974930080E+01 -0.96917376924E+01  0.50528857274E+02  0.29999992171E+02 0.  0.
         12    1    1    2    0    0 -0.39273994688E+02 -0.40974930080E+01  0.96917376924E+01  0.40659142726E+02  0.00000000000E+00 0. -1.
         11    1    3    3    0    0  0.32153324515E+02  0.10245265728E+02 -0.29542896170E+01  0.33875205898E+02  0.51100000000E-03 0.  1.
        -11    1    3    3    0    0 -0.11503637698E+01  0.18432894394E+01 -0.44150811108E+01  0.49207717114E+01  0.51100000000E-03 0. -1.
         12    1    3    3    0    0  0.82710339422E+01 -0.79910621596E+01 -0.23223669646E+01  0.11732879665E+02  0.00000000000E+00 0. -1.
</event>
<event>
 7    1  0.2900470E-011  0.5052886E+02  0.7816164E-02  0.1300439E+00
        -11   -1    0    0    0    0  0.00000000000E+00  0.00000000000E+00  0.45593999997E+02  0.45594000000E+02  0.51100000000E-03 0.  1.
         11   -1    0    0    0    0 -0.00000000000E+00 -0.00000000000E+00 -0.45593999997E+02  0.45594000000E+02  0.51100000000E-03 0. -1.
    9900012    2    1    2    0    0  0.25480672373E+02  0.18717668378E+02  0.25564616221E+02  0.50528863553E+02  0.30000011256E+02 0.  0.
         12    1    1    2    0    0 -0.25480672373E+02 -0.18717668378E+02 -0.25564616221E+02  0.40659136447E+02  0.00000000000E+00 0. -1.
         11    1    3    3    0    0  0.24151012430E+02  0.99618705409E+01  0.72488755086E+01  0.27111924728E+02  0.51100000000E-03 0. -1.
        -11    1    3    3    0    0 -0.36255912170E+01  0.97241507073E+00  0.11057762936E+02  0.11677526457E+02  0.51100000000E-03 0.  1.
        -12    1    3    3    0    0  0.49552511603E+01  0.77833827666E+01  0.72579777764E+01  0.11739412368E+02  0.00000000000E+00 0.  1.
</event>
<event>
 7    1  0.2900470E-011  0.5052886E+02  0.7816164E-02  0.1300439E+00
        -11   -1    0    0    0    0  0.00000000000E+00  0.00000000000E+00  0.45593999997E+02  0.45594000000E+02  0.51100000000E-03 0.  1.
         11   -1    0    0    0    0 -0.00000000000E+00 -0.00000000000E+00 -0.45593999997E+02  0.45594000000E+02  0.51100000000E-03 0. -1.
    9900012    2    1    2    0    0  0.29085663403E+02 -0.14387830348E+02  0.24498569897E+02  0.50528863207E+02  0.30000010205E+02 0.  0.
         12    1    1    2    0    0 -0.29085663403E+02  0.14387830348E+02 -0.24498569897E+02  0.40659136793E+02  0.00000000000E+00 0. -1.
         11    1    3    3    0    0  0.10014792006E+01  0.61582783188E+01  0.59374102926E+00  0.62673663617E+01  0.51100000000E-03 0. -1.
        -11    1    3    3    0    0  0.99897627189E+01 -0.12810398004E+02  0.16720045738E+02  0.23312262566E+02  0.51100000000E-03 0.  1.
         12    1    3    3    0    0  0.18094421484E+02 -0.77357106630E+01  0.71847831294E+01  0.20949234280E+02  0.00000000000E+00 0. -1.
</event>
<event>
 7    1  0.2900470E-011  0.5052886E+02  0.7816164E-02  0.1300439E+00
        -11   -1    0    0    0    0  0.00000000000E+00  0.00000000000E+00  0.45593999997E+02  0.45594000000E+02  0.51100000000E-03 0.  1.
         11   -1    0    0    0    0 -0.00000000000E+00 -0.00000000000E+00 -0.45593999997E+02  0.45594000000E+02  0.51100000000E-03 0. -1.
    9900012    2    1    2    0    0  0.19233695476E+02 -0.66913330203E+00  0.35815960845E+02  0.50528857949E+02  0.29999994222E+02 0.  0.
         12    1    1    2    0    0 -0.19233695476E+02  0.66913330203E+00 -0.35815960845E+02  0.40659142051E+02  0.00000000000E+00 0. -1.
         11    1    3    3    0    0  0.10638437000E+02  0.16270192373E+01 -0.90088982146E+00  0.10799774819E+02  0.51100000000E-03 0. -1.
        -11    1    3    3    0    0  0.49300345260E+01  0.42216198746E+01  0.25005133248E+02  0.25833776413E+02  0.51100000000E-03 0.  1.
        -12    1    3    3    0    0  0.36652239502E+01 -0.65177724139E+01  0.11711717419E+02  0.13895306717E+02  0.00000000000E+00 0.  1.
</event>
<event>
 7    1  0.2900470E-011  0.5052885E+02  0.7816164E-02  0.1300439E+00
        -11   -1    0    0    0    0  0.00000000000E+00  0.00000000000E+00  0.45593999997E+02  0.45594000000E+02  0.51100000000E-03 0.  1.
         11   -1    0    0    0    0 -0.00000000000E+00 -0.00000000000E+00 -0.45593999997E+02  0.45594000000E+02  0.51100000000E-03 0. -1.
    9900012    2    1    2    0    0  0.17358095698E+02  0.32087093390E+02  0.17952200265E+02  0.50528849212E+02  0.29999967664E+02 0.  0.
         12    1    1    2    0    0 -0.17358095698E+02 -0.32087093390E+02 -0.17952200265E+02  0.40659150788E+02  0.00000000000E+00 0. -1.
         11    1    3    3    0    0  0.73184814075E+01  0.23525484950E+02  0.30571418700E+01  0.24826492481E+02  0.51100000000E-03 0. -1.
        -11    1    3    3    0    0  0.41550698266E+01 -0.29077863322E+01 -0.10695329301E+01  0.51830230144E+01  0.51100000000E-03 0.  1.
        -12    1    3    3    0    0  0.58845444639E+01  0.11469394772E+02  0.15964591325E+02  0.20519333716E+02  0.00000000000E+00 0.  1.
</event>
<event>
 7    1  0.2900470E-011  0.5052896E+02  0.7816164E-02  0.1300438E+00
        -11   -1    0    0    0    0  0.00000000000E+00  0.00000000000E+00  0.45593999997E+02  0.45594000000E+02  0.51100000000E-03 0. -1.
         11   -1    0    0    0    0 -0.00000000000E+00 -0.00000000000E+00 -0.45593999997E+02  0.45594000000E+02  0.51100000000E-03 0.  1.
    9900012    2    1    2    0    0  0.40276661137E+02  0.28814937657E+01  0.47586703320E+01  0.50528961865E+02  0.30000310085E+02 0.  0.
         12    1    1    2    0    0 -0.40276661137E+02 -0.28814937657E+01 -0.47586703320E+01  0.40659038135E+02  0.00000000000E+00 0. -1.
         11    1    3    3    0    0  0.30655356065E+01 -0.25502508404E+01  0.10482634051E+01  0.41231231283E+01  0.51100000000E-03 0. -1.
        -11    1    3    3    0    0 -0.22978224213E+01 -0.42052048004E+01 -0.22676753575E+01  0.53015174320E+01  0.51100000000E-03 0.  1.
        -12    1    3    3    0    0  0.39508947952E+02  0.96369494065E+01  0.59780822844E+01  0.41104321305E+02  0.00000000000E+00 0.  1.
</event>
<event>
 7    1  0.2900470E-011  0.5052887E+02  0.7816164E-02  0.1300439E+00
        -11   -1    0    0    0    0  0.00000000000E+00  0.00000000000E+00  0.45593999997E+02  0.45594000000E+02  0.51100000000E-03 0.  1.
         11   -1    0    0    0    0 -0.00000000000E+00 -0.00000000000E+00 -0.45593999997E+02  0.45594000000E+02  0.51100000000E-03 0. -1.
    9900012    2    1    2    0    0 -0.31151944848E+01  0.14184690318E+02  0.37977037147E+02  0.50528865398E+02  0.30000016863E+02 0.  0.
         12    1    1    2    0    0  0.31151944848E+01 -0.14184690318E+02 -0.37977037147E+02  0.40659134602E+02  0.00000000000E+00 0. -1.
         11    1    3    3    0    0 -0.13996589473E+02 -0.11326324124E+01  0.17540632227E+02  0.22469115519E+02  0.51100000000E-03 0. -1.
        -11    1    3    3    0    0  0.79483235237E+01  0.97879319080E+01  0.10979542587E+02  0.16719145120E+02  0.51100000000E-03 0.  1.
         12    1    3    3    0    0  0.29330714640E+01  0.55293908227E+01  0.94568623334E+01  0.11340604758E+02  0.00000000000E+00 0. -1.
</event>
<event>
 7    1  0.2900470E-011  0.5052877E+02  0.7816164E-02  0.1300439E+00
        -11   -1    0    0    0    0  0.00000000000E+00  0.00000000000E+00  0.45593999997E+02  0.45594000000E+02  0.51100000000E-03 0.  1.
         11   -1    0    0    0    0 -0.00000000000E+00 -0.00000000000E+00 -0.45593999997E+02  0.45594000000E+02  0.51100000000E-03 0. -1.
    9900012    2    1    2    0    0 -0.40562183083E+02 -0.20426270813E+01  0.19260734682E+01  0.50528772500E+02  0.29999734490E+02 0.  0.
         12    1    1    2    0    0  0.40562183083E+02  0.20426270813E+01 -0.19260734682E+01  0.40659227500E+02  0.00000000000E+00 0. -1.
         11    1    3    3    0    0 -0.20827061013E+02 -0.94912221189E+01 -0.37638785240E+01  0.23195183757E+02  0.51100000000E-03 0. -1.
        -11    1    3    3    0    0  0.27159685133E+01  0.14273543554E+01  0.23188836809E+01  0.38459130526E+01  0.51100000000E-03 0.  1.
        -12    1    3    3    0    0 -0.22451090584E+02  0.60212406822E+01  0.33710683113E+01  0.23487675690E+02  0.00000000000E+00 0.  1.
</event>
<event>
 7    1  0.2900470E-011  0.5052886E+02  0.7816164E-02  0.1300439E+00
        -11   -1    0    0    0    0  0.00000000000E+00  0.00000000000E+00  0.45593999997E+02  0.45594000000E+02  0.51100000000E-03 0. -1.
         11   -1    0    0    0    0 -0.00000000000E+00 -0.00000000000E+00 -0.45593999997E+02  0.45594000000E+02  0.51100000000E-03 0.  1.
    9900012    2    1    2    0    0 -0.25407381521E+02 -0.18119442026E+02 -0.26063702300E+02  0.50528858437E+02  0.29999995704E+02 0.  0.
         12    1    1    2    0    0  0.25407381521E+02  0.18119442026E+02  0.26063702300E+02  0.40659141563E+02  0.00000000000E+00 0. -1.
         11    1    3    3    0    0  0.54599667568E+00 -0.55543254129E+01 -0.13705701962E+02  0.14798476600E+02  0.51100000000E-03 0. -1.
        -11    1    3    3    0    0 -0.12626474915E+02 -0.74140132471E+01  0.27917247271E+01  0.14906011821E+02  0.51100000000E-03 0.  1.
        -12    1    3    3    0    0 -0.13326903282E+02 -0.51511033663E+01 -0.15149725065E+02  0.20824370015E+02  0.00000000000E+00 0.  1.
</event>
<event>
 7    1  0.2900470E-011  0.5052886E+02  0.7816164E-02  0.1300439E+00
        -11   -1    0    0    0    0  0.00000000000E+00  0.00000000000E+00  0.45593999997E+02  0.45594000000E+02  0.51100000000E-03 0. -1.
         11   -1    0    0    0    0 -0.00000000000E+00 -0.00000000000E+00 -0.45593999997E+02  0.45594000000E+02  0.51100000000E-03 0.  1.
    9900012    2    1    2    0    0 -0.77406923191E+01 -0.37501852039E+02 -0.13669624048E+02  0.50528857787E+02  0.29999993728E+02 0.  0.
         12    1    1    2    0    0  0.77406923191E+01  0.37501852039E+02  0.13669624048E+02  0.40659142213E+02  0.00000000000E+00 0. -1.
         11    1    3    3    0    0  0.14762338960E+01 -0.74163219517E+01 -0.98617558396E+00  0.76258534179E+01  0.51100000000E-03 0. -1.
        -11    1    3    3    0    0 -0.12734313109E+02 -0.23465851460E+02 -0.19268375668E+02  0.32925358255E+02  0.51100000000E-03 0.  1.
        -12    1    3    3    0    0  0.35173868938E+01 -0.66196786272E+01  0.65849272041E+01  0.99776461137E+01  0.00000000000E+00 0.  1.
</event>
<event>
 7    1  0.2900470E-011  0.5052886E+02  0.7816164E-02  0.1300439E+00
        -11   -1    0    0    0    0  0.00000000000E+00  0.00000000000E+00  0.45593999997E+02  0.45594000000E+02  0.51100000000E-03 0.  1.
         11   -1    0    0    0    0 -0.00000000000E+00 -0.00000000000E+00 -0.45593999997E+02  0.45594000000E+02  0.51100000000E-03 0. -1.
    9900012    2    1    2    0    0  0.26677301477E+02 -0.29597230788E+02  0.80926463875E+01  0.50528863143E+02  0.30000010010E+02 0.  0.
         12    1    1    2    0    0 -0.26677301477E+02  0.29597230788E+02 -0.80926463875E+01  0.40659136857E+02  0.00000000000E+00 0. -1.
         11    1    3    3    0    0  0.41110943748E+01 -0.84683138038E+01 -0.49240385486E+01  0.10623539501E+02  0.51100000000E-03 0. -1.
        -11    1    3    3    0    0  0.15007682151E+02 -0.22321999592E+02  0.16438026570E+02  0.31523180473E+02  0.51100000000E-03 0.  1.
        -12    1    3    3    0    0  0.75585249506E+01  0.11930826079E+01 -0.34213416342E+01  0.83821431696E+01  0.00000000000E+00 0.  1.
</event>
<event>
 7    1  0.2900470E-011  0.5052888E+02  0.7816164E-02  0.1300439E+00
        -11   -1    0    0    0    0  0.00000000000E+00  0.00000000000E+00  0.45593999997E+02  0.45594000000E+02  0.51100000000E-03 0. -1.
         11   -1    0    0    0    0 -0.00000000000E+00 -0.00000000000E+00 -0.45593999997E+02  0.45594000000E+02  0.51100000000E-03 0.  1.
    9900012    2    1    2    0    0 -0.39999881372E+02 -0.10878950304E+01 -0.72103882074E+01  0.50528883883E+02  0.30000073050E+02 0.  0.
         12    1    1    2    0    0  0.39999881372E+02  0.10878950304E+01  0.72103882074E+01  0.40659116117E+02  0.00000000000E+00 0. -1.
         11    1    3    3    0    0 -0.81587799220E+01 -0.82967924851E+01  0.61878262206E+01  0.13179212759E+02  0.51100000000E-03 0. -1.
        -11    1    3    3    0    0 -0.31631131333E+02  0.53715561881E+01 -0.14487655479E+02  0.35203327213E+02  0.51100000000E-03 0.  1.
        -12    1    3    3    0    0 -0.20997011651E+00  0.18373412666E+01  0.10894410511E+01  0.21463439108E+01  0.00000000000E+00 0.  1.
</event>
<event>
 7    1  0.2900470E-011  0.5052886E+02  0.7816164E-02  0.1300439E+00
        -11   -1    0    0    0    0  0.00000000000E+00  0.00000000000E+00  0.45593999997E+02  0.45594000000E+02  0.51100000000E-03 0. -1.
         11   -1    0    0    0    0 -0.00000000000E+00 -0.00000000000E+00 -0.45593999997E+02  0.45594000000E+02  0.51100000000E-03 0.  1.
    9900012    2    1    2    0    0  0.23237841935E+02  0.14182457173E+02 -0.30199777835E+02  0.50528856249E+02  0.29999989056E+02 0.  0.
         12    1    1    2    0    0 -0.23237841935E+02 -0.14182457173E+02  0.30199777835E+02  0.40659143751E+02  0.00000000000E+00 0. -1.
         11    1    3    3    0    0 -0.10080160554E-01 -0.42328876063E+01 -0.15090585917E+02  0.15673009368E+02  0.51100000000E-03 0. -1.
        -11    1    3    3    0    0  0.63419318485E+01  0.11049535848E+02 -0.82626601163E+01  0.15184989117E+02  0.51100000000E-03 0.  1.
         12    1    3    3    0    0  0.16905990247E+02  0.73658089313E+01 -0.68465318020E+01  0.19670857764E+02  0.00000000000E+00 0. -1.
</event>
<event>
 7    1  0.2900470E-011  0.5052886E+02  0.7816164E-02  0.1300439E+00
        -11   -1    0    0    0    0  0.00000000000E+00  0.00000000000E+00  0.45593999997E+02  0.45594000000E+02  0.51100000000E-03 0. -1.
         11   -1    0    0    0    0 -0.00000000000E+00 -0.00000000000E+00 -0.45593999997E+02  0.45594000000E+02  0.51100000000E-03 0.  1.
    9900012    2    1    2    0    0 -0.21640062949E+02 -0.21859221581E+02 -0.26590366675E+02  0.50528862128E+02  0.30000006923E+02 0.  0.
         12    1    1    2    0    0  0.21640062949E+02  0.21859221581E+02  0.26590366675E+02  0.40659137872E+02  0.00000000000E+00 0. -1.
         11    1    3    3    0    0  0.29483177326E+01 -0.70774814284E+01 -0.95311299800E+01  0.12232160879E+02  0.51100000000E-03 0. -1.
        -11    1    3    3    0    0 -0.26053321927E+02 -0.16341294438E+02 -0.12381650680E+02  0.33152960066E+02  0.51100000000E-03 0.  1.
        -12    1    3    3    0    0  0.14649412450E+01  0.15595542847E+01 -0.46775860152E+01  0.51437411820E+01  0.00000000000E+00 0.  1.
</event>
<event>
 7    1  0.2900470E-011  0.5052885E+02  0.7816164E-02  0.1300439E+00
        -11   -1    0    0    0    0  0.00000000000E+00  0.00000000000E+00  0.45593999997E+02  0.45594000000E+02  0.51100000000E-03 0.  1.
         11   -1    0    0    0    0 -0.00000000000E+00 -0.00000000000E+00 -0.45593999997E+02  0.45594000000E+02  0.51100000000E-03 0. -1.
    9900012    2    1    2    0    0  0.89664683429E+01  0.35404672447E+02  0.17868352634E+02  0.50528850827E+02  0.29999972573E+02 0.  0.
         12    1    1    2    0    0 -0.89664683429E+01 -0.35404672447E+02 -0.17868352634E+02  0.40659149173E+02  0.00000000000E+00 0. -1.
         11    1    3    3    0    0  0.15059006847E+02  0.13778273765E+02 -0.19891696818E+01  0.20507835367E+02  0.51100000000E-03 0. -1.
        -11    1    3    3    0    0 -0.26553422368E+01  0.11783593096E+02  0.10198935575E+02  0.15808927723E+02  0.51100000000E-03 0.  1.
         12    1    3    3    0    0 -0.34371962676E+01  0.98428055865E+01  0.96585867409E+01  0.14212087736E+02  0.00000000000E+00 0. -1.
</event>
<event>
 7    1  0.2900470E-011  0.5052886E+02  0.7816164E-02  0.1300439E+00
        -11   -1    0    0    0    0  0.00000000000E+00  0.00000000000E+00  0.45593999997E+02  0.45594000000E+02  0.51100000000E-03 0.  1.
         11   -1    0    0    0    0 -0.00000000000E+00 -0.00000000000E+00 -0.45593999997E+02  0.45594000000E+02  0.51100000000E-03 0. -1.
    9900012    2    1    2    0    0 -0.16534667000E+02 -0.15003836327E+02  0.33980219577E+02  0.50528860316E+02  0.30000001418E+02 0.  0.
         12    1    1    2    0    0  0.16534667000E+02  0.15003836327E+02 -0.33980219577E+02  0.40659139684E+02  0.00000000000E+00 0. -1.
         11    1    3    3    0    0 -0.18522470531E+02 -0.71029638804E+01  0.13657339971E+02  0.24084371402E+02  0.51100000000E-03 0. -1.
        -11    1    3    3    0    0  0.10095205250E+01 -0.12239936764E+02  0.16567374359E+02  0.20623119965E+02  0.51100000000E-03 0.  1.
        -12    1    3    3    0    0  0.97828300574E+00  0.43390643179E+01  0.37555052468E+01  0.58213689501E+01  0.00000000000E+00 0.  1.
</event>
<event>
 7    1  0.2900470E-011  0.5052886E+02  0.7816164E-02  0.1300439E+00
        -11   -1    0    0    0    0  0.00000000000E+00  0.00000000000E+00  0.45593999997E+02  0.45594000000E+02  0.51100000000E-03 0.  1.
         11   -1    0    0    0    0 -0.00000000000E+00 -0.00000000000E+00 -0.45593999997E+02  0.45594000000E+02  0.51100000000E-03 0. -1.
    9900012    2    1    2    0    0  0.15061788134E+02  0.11183017718E+02  0.36072819023E+02  0.50528860568E+02  0.30000002184E+02 0.  0.
         12    1    1    2    0    0 -0.15061788134E+02 -0.11183017718E+02 -0.36072819023E+02  0.40659139432E+02  0.00000000000E+00 0. -1.
         11    1    3    3    0    0  0.69176594721E+01 -0.57594505950E+01  0.12430014367E+01  0.90868221376E+01  0.51100000000E-03 0. -1.
        -11    1    3    3    0    0  0.11383139124E+02  0.11938397858E+02  0.25743715546E+02  0.30575154785E+02  0.51100000000E-03 0.  1.
         12    1    3    3    0    0 -0.32390104624E+01  0.50040704555E+01  0.90861020395E+01  0.10866883646E+02  0.00000000000E+00 0. -1.
</event>
<event>
 7    1  0.2900470E-011  0.5052886E+02  0.7816164E-02  0.1300439E+00
        -11   -1    0    0    0    0  0.00000000000E+00  0.00000000000E+00  0.45593999997E+02  0.45594000000E+02  0.51100000000E-03 0. -1.
         11   -1    0    0    0    0 -0.00000000000E+00 -0.00000000000E+00 -0.45593999997E+02  0.45594000000E+02  0.51100000000E-03 0.  1.
    9900012    2    1    2    0    0  0.12991345510E+02 -0.22099189202E+02 -0.31559731533E+02  0.50528857412E+02  0.29999992590E+02 0.  0.
         12    1    1    2    0    0 -0.12991345510E+02  0.22099189202E+02  0.31559731533E+02  0.40659142588E+02  0.00000000000E+00 0. -1.
         11    1    3    3    0    0  0.13564359117E+02 -0.16638308375E+02 -0.40824410338E+01  0.21851578178E+02  0.51100000000E-03 0. -1.
        -11    1    3    3    0    0 -0.24372352580E+01 -0.58058762710E+01 -0.20327959036E+02  0.21280841943E+02  0.51100000000E-03 0.  1.
         12    1    3    3    0    0  0.18642216512E+01  0.34499544439E+00 -0.71493314639E+01  0.73964372912E+01  0.00000000000E+00 0. -1.
</event>
<event>
 7    1  0.2900470E-011  0.5052888E+02  0.7816164E-02  0.1300439E+00
        -11   -1    0    0    0    0  0.00000000000E+00  0.00000000000E+00  0.45593999997E+02  0.45594000000E+02  0.51100000000E-03 0. -1.
         11   -1    0    0    0    0 -0.00000000000E+00 -0.00000000000E+00 -0.45593999997E+02  0.45594000000E+02  0.51100000000E-03 0.  1.
    9900012    2    1    2    0    0 -0.83053425769E+01  0.14906478422E+02 -0.36905040338E+02  0.50528882737E+02  0.30000069568E+02 0.  0.
         12    1    1    2    0    0  0.83053425769E+01 -0.14906478422E+02  0.36905040338E+02  0.40659117263E+02  0.00000000000E+00 0. -1.
         11    1    3    3    0    0  0.60227452662E+01 -0.46197015575E+01 -0.11388626372E+02  0.13686340414E+02  0.51100000000E-03 0. -1.
        -11    1    3    3    0    0 -0.94326046603E+01  0.16794117640E+02 -0.24466532302E+02  0.31138844249E+02  0.51100000000E-03 0.  1.
        -12    1    3    3    0    0 -0.48954831829E+01  0.27320623395E+01 -0.10498816635E+01  0.57036980748E+01  0.00000000000E+00 0.  1.
</event>
<event>
 7    1  0.2974513E-011  0.5052886E+02  0.7816164E-02  0.1300439E+00
        -11   -1    0    0    0    0  0.00000000000E+00  0.00000000000E+00  0.45593999997E+02  0.45594000000E+02  0.51100000000E-03 0.  1.
         11   -1    0    0    0    0 -0.00000000000E+00 -0.00000000000E+00 -0.45593999997E+02  0.45594000000E+02  0.51100000000E-03 0. -1.
    9900012    2    1    2    0    0 -0.29824622427E+02 -0.21572633555E+02  0.17270758357E+02  0.50528859384E+02  0.29999998582E+02 0.  0.
         12    1    1    2    0    0  0.29824622427E+02  0.21572633555E+02 -0.17270758357E+02  0.40659140616E+02  0.00000000000E+00 0. -1.
         11    1    3    3    0    0 -0.20245092669E+01 -0.38809038075E+01 -0.34611808339E+01  0.55803069056E+01  0.51100000000E-03 0. -1.
        -11    1    3    3    0    0 -0.12628183932E+02 -0.18963250921E+02  0.18922101723E+02  0.29616242989E+02  0.51100000000E-03 0.  1.
        -12    1    3    3    0    0 -0.15171929229E+02  0.12715211728E+01  0.18098374674E+01  0.15332309489E+02  0.00000000000E+00 0.  1.
</event>
<event>
 7    1  0.2900470E-011  0.5052886E+02  0.7816164E-02  0.1300439E+00
        -11   -1    0    0    0    0  0.00000000000E+00  0.00000000000E+00  0.45593999997E+02  0.45594000000E+02  0.51100000000E-03 0. -1.
         11   -1    0    0    0    0 -0.00000000000E+00 -0.00000000000E+00 -0.45593999997E+02  0.45594000000E+02  0.51100000000E-03 0.  1.
    9900012    2    1    2    0    0  0.31227081021E+02 -0.22226194308E+02  0.13565818372E+02  0.50528859200E+02  0.29999998024E+02 0.  0.
         12    1    1    2    0    0 -0.31227081021E+02  0.22226194308E+02 -0.13565818372E+02  0.40659140800E+02  0.00000000000E+00 0. -1.
         11    1    3    3    0    0  0.36060633461E+01 -0.14624114463E+02  0.59722905988E+01  0.16202983427E+02  0.51100000000E-03 0. -1.
        -11    1    3    3    0    0  0.19573594359E+02 -0.51068930925E+01  0.13246247123E+02  0.24179930031E+02  0.51100000000E-03 0.  1.
        -12    1    3    3    0    0  0.80474233152E+01 -0.24951867531E+01 -0.56527193498E+01  0.10145945742E+02  0.00000000000E+00 0.  1.
</event>
<event>
 7    1  0.2900470E-011  0.5052884E+02  0.7816164E-02  0.1300439E+00
        -11   -1    0    0    0    0  0.00000000000E+00  0.00000000000E+00  0.45593999997E+02  0.45594000000E+02  0.51100000000E-03 0. -1.
         11   -1    0    0    0    0 -0.00000000000E+00 -0.00000000000E+00 -0.45593999997E+02  0.45594000000E+02  0.51100000000E-03 0.  1.
    9900012    2    1    2    0    0 -0.29780212158E+02 -0.24827322791E+02 -0.12243774035E+02  0.50528843641E+02  0.29999950732E+02 0.  0.
         12    1    1    2    0    0  0.29780212158E+02  0.24827322791E+02  0.12243774035E+02  0.40659156359E+02  0.00000000000E+00 0. -1.
         11    1    3    3    0    0  0.30007497125E+01  0.24039778778E+01 -0.52162205427E+00  0.38801673034E+01  0.51100000000E-03 0. -1.
        -11    1    3    3    0    0 -0.18191056454E+02 -0.22786605343E+02 -0.36280347238E+01  0.29382078793E+02  0.51100000000E-03 0.  1.
        -12    1    3    3    0    0 -0.14589905417E+02 -0.44446953260E+01 -0.80941172569E+01  0.17266597545E+02  0.00000000000E+00 0.  1.
</event>
<event>
 7    1  0.2900470E-011  0.5052886E+02  0.7816164E-02  0.1300439E+00
        -11   -1    0    0    0    0  0.00000000000E+00  0.00000000000E+00  0.45593999997E+02  0.45594000000E+02  0.51100000000E-03 0.  1.
         11   -1    0    0    0    0 -0.00000000000E+00 -0.00000000000E+00 -0.45593999997E+02  0.45594000000E+02  0.51100000000E-03 0. -1.
    9900012    2    1    2    0    0 -0.21344899169E+02 -0.19813157718E+02  0.28372516921E+02  0.50528860121E+02  0.30000000823E+02 0.  0.
         12    1    1    2    0    0  0.21344899169E+02  0.19813157718E+02 -0.28372516921E+02  0.40659139879E+02  0.00000000000E+00 0. -1.
         11    1    3    3    0    0  0.80337320342E+00 -0.21653918857E+01  0.95309308486E+01  0.98067820219E+01  0.51100000000E-03 0.  1.
        -11    1    3    3    0    0 -0.23028225695E+02 -0.51884129971E+01  0.12647521816E+02  0.26780190747E+02  0.51100000000E-03 0. -1.
        -12    1    3    3    0    0  0.87995332276E+00 -0.12459352835E+02  0.61940642567E+01  0.13941887352E+02  0.00000000000E+00 0.  1.
</event>
<event>
 7    1  0.2913067E-011  0.5052886E+02  0.7816164E-02  0.1300439E+00
        -11   -1    0    0    0    0  0.00000000000E+00  0.00000000000E+00  0.45593999997E+02  0.45594000000E+02  0.51100000000E-03 0.  1.
         11   -1    0    0    0    0 -0.00000000000E+00 -0.00000000000E+00 -0.45593999997E+02  0.45594000000E+02  0.51100000000E-03 0. -1.
    9900012    2    1    2    0    0 -0.93732848758E+01 -0.32571241366E+02 -0.22459329241E+02  0.50528859534E+02  0.29999999039E+02 0.  0.
         12    1    1    2    0    0  0.93732848758E+01  0.32571241366E+02  0.22459329241E+02  0.40659140466E+02  0.00000000000E+00 0. -1.
         11    1    3    3    0    0 -0.34339062961E+01  0.12806261778E+01  0.46625146499E+01  0.59304939912E+01  0.51100000000E-03 0. -1.
        -11    1    3    3    0    0 -0.33821409283E+01 -0.18416238082E+02 -0.93774144765E+01  0.20941170093E+02  0.51100000000E-03 0.  1.
         12    1    3    3    0    0 -0.25572376514E+01 -0.15435629462E+02 -0.17744429414E+02  0.23657195449E+02  0.00000000000E+00 0. -1.
</event>
<event>
 7    1  0.2900470E-011  0.5052884E+02  0.7816164E-02  0.1300439E+00
        -11   -1    0    0    0    0  0.00000000000E+00  0.00000000000E+00  0.45593999997E+02  0.45594000000E+02  0.51100000000E-03 0.  1.
         11   -1    0    0    0    0 -0.00000000000E+00 -0.00000000000E+00 -0.45593999997E+02  0.45594000000E+02  0.51100000000E-03 0. -1.
    9900012    2    1    2    0    0  0.35497346551E+02  0.16593098404E+02  0.10852421475E+02  0.50528836473E+02  0.29999928944E+02 0.  0.
         12    1    1    2    0    0 -0.35497346551E+02 -0.16593098404E+02 -0.10852421475E+02  0.40659163527E+02  0.00000000000E+00 0. -1.
         11    1    3    3    0    0  0.13771544265E+02  0.42123599189E+01 -0.37377011913E+01  0.14878501873E+02  0.51100000000E-03 0. -1.
        -11    1    3    3    0    0  0.10321136446E+02  0.68629609814E+01  0.18608942063E+02  0.22358864371E+02  0.51100000000E-03 0.  1.
        -12    1    3    3    0    0  0.11404665840E+02  0.55177775037E+01 -0.40188193972E+01  0.13291470229E+02  0.00000000000E+00 0.  1.
</event>
<event>
 7    1  0.2900470E-011  0.5052885E+02  0.7816164E-02  0.1300439E+00
        -11   -1    0    0    0    0  0.00000000000E+00  0.00000000000E+00  0.45593999997E+02  0.45594000000E+02  0.51100000000E-03 0. -1.
         11   -1    0    0    0    0 -0.00000000000E+00 -0.00000000000E+00 -0.45593999997E+02  0.45594000000E+02  0.51100000000E-03 0.  1.
    9900012    2    1    2    0    0 -0.22073932280E+02  0.14341353875E+02 -0.30987635711E+02  0.50528849932E+02  0.29999969853E+02 0.  0.
         12    1    1    2    0    0  0.22073932280E+02 -0.14341353875E+02  0.30987635711E+02  0.40659150068E+02  0.00000000000E+00 0. -1.
         11    1    3    3    0    0 -0.39184411694E+01 -0.24141262680E+01 -0.98597931133E+01  0.10881071056E+02  0.51100000000E-03 0. -1.
        -11    1    3    3    0    0 -0.20026218574E+02  0.18449577269E+02 -0.23660056382E+02  0.36072629514E+02  0.51100000000E-03 0.  1.
        -12    1    3    3    0    0  0.18707274635E+01 -0.16940971257E+01  0.25322137836E+01  0.35751493619E+01  0.00000000000E+00 0.  1.
</event>
<event>
 7    1  0.2900470E-011  0.5052886E+02  0.7816164E-02  0.1300439E+00
        -11   -1    0    0    0    0  0.00000000000E+00  0.00000000000E+00  0.45593999997E+02  0.45594000000E+02  0.51100000000E-03 0. -1.
         11   -1    0    0    0    0 -0.00000000000E+00 -0.00000000000E+00 -0.45593999997E+02  0.45594000000E+02  0.51100000000E-03 0.  1.
    9900012    2    1    2    0    0 -0.22346365013E+02  0.23261337361E+02 -0.24753101141E+02  0.50528857594E+02  0.29999993144E+02 0.  0.
         12    1    1    2    0    0  0.22346365013E+02 -0.23261337361E+02  0.24753101141E+02  0.40659142406E+02  0.00000000000E+00 0. -1.
         11    1    3    3    0    0 -0.15939427592E+02  0.27540323604E+01 -0.15809003157E+02  0.22618015547E+02  0.51100000000E-03 0.  1.
        -11    1    3    3    0    0 -0.10580137643E+02  0.18010925683E+02 -0.96269939662E+01  0.23000255859E+02  0.51100000000E-03 0. -1.
         12    1    3    3    0    0  0.41732002219E+01  0.24963793180E+01  0.68289598306E+00  0.49105861885E+01  0.00000000000E+00 0. -1.
</event>
<event>
 7    1  0.2900470E-011  0.5052885E+02  0.7816164E-02  0.1300439E+00
        -11   -1    0    0    0    0  0.00000000000E+00  0.00000000000E+00  0.45593999997E+02  0.45594000000E+02  0.51100000000E-03 0.  1.
         11   -1    0    0    0    0 -0.00000000000E+00 -0.00000000000E+00 -0.45593999997E+02  0.45594000000E+02  0.51100000000E-03 0. -1.
    9900012    2    1    2    0    0  0.22195397404E+01  0.20927855619E+02  0.34788859183E+02  0.50528853172E+02  0.29999979702E+02 0.  0.
         12    1    1    2    0    0 -0.22195397404E+01 -0.20927855619E+02 -0.34788859183E+02  0.40659146828E+02  0.00000000000E+00 0. -1.
         11    1    3    3    0    0  0.57838671207E+01  0.17050183181E+02  0.58372552852E+01  0.18927107938E+02  0.51100000000E-03 0. -1.
        -11    1    3    3    0    0 -0.48997816468E+01  0.71368995394E+01  0.16143713228E+02  0.18318369804E+02  0.51100000000E-03 0.  1.
         12    1    3    3    0    0  0.13354542665E+01 -0.32592271013E+01  0.12807890671E+02  0.13283375430E+02  0.00000000000E+00 0. -1.
</event>
<event>
 7    1  0.2900470E-011  0.5052886E+02  0.7816164E-02  0.1300439E+00
        -11   -1    0    0    0    0  0.00000000000E+00  0.00000000000E+00  0.45593999997E+02  0.45594000000E+02  0.51100000000E-03 0.  1.
         11   -1    0    0    0    0 -0.00000000000E+00 -0.00000000000E+00 -0.45593999997E+02  0.45594000000E+02  0.51100000000E-03 0. -1.
    9900012    2    1    2    0    0 -0.23300537551E+02 -0.19426070505E+02  0.27071724064E+02  0.50528861922E+02  0.30000006298E+02 0.  0.
         12    1    1    2    0    0  0.23300537551E+02  0.19426070505E+02 -0.27071724064E+02  0.40659138078E+02  0.00000000000E+00 0. -1.
         11    1    3    3    0    0  0.33016840845E+01 -0.14117197938E+02  0.64112311392E+01  0.15852453451E+02  0.51100000000E-03 0. -1.
        -11    1    3    3    0    0 -0.24672044750E+02 -0.63865513642E+01  0.19914643078E+02  0.32343327591E+02  0.51100000000E-03 0.  1.
        -12    1    3    3    0    0 -0.19301768855E+01  0.10776787973E+01  0.74584984613E+00  0.23330808800E+01  0.00000000000E+00 0.  1.
</event>
<event>
 7    1  0.2900470E-011  0.5052886E+02  0.7816164E-02  0.1300439E+00
        -11   -1    0    0    0    0  0.00000000000E+00  0.00000000000E+00  0.45593999997E+02  0.45594000000E+02  0.51100000000E-03 0. -1.
         11   -1    0    0    0    0 -0.00000000000E+00 -0.00000000000E+00 -0.45593999997E+02  0.45594000000E+02  0.51100000000E-03 0.  1.
    9900012    2    1    2    0    0 -0.22329365653E+02  0.56966083266E+01 -0.33497971868E+02  0.50528855442E+02  0.29999986602E+02 0.  0.
         12    1    1    2    0    0  0.22329365653E+02 -0.56966083266E+01  0.33497971868E+02  0.40659144558E+02  0.00000000000E+00 0. -1.
         11    1    3    3    0    0 -0.92854382627E+00 -0.18131563100E+01 -0.49653222366E+00  0.20967293464E+01  0.51100000000E-03 0. -1.
        -11    1    3    3    0    0 -0.13642434866E+02  0.15881172480E+02 -0.30082894503E+02  0.36651169290E+02  0.51100000000E-03 0.  1.
        -12    1    3    3    0    0 -0.77583869608E+01 -0.83714078433E+01 -0.29185451416E+01  0.11780956806E+02  0.00000000000E+00 0.  1.
</event>
<event>
 7    1  0.2900470E-011  0.5052887E+02  0.7816164E-02  0.1300439E+00
        -11   -1    0    0    0    0  0.00000000000E+00  0.00000000000E+00  0.45593999997E+02  0.45594000000E+02  0.51100000000E-03 0.  1.
         11   -1    0    0    0    0 -0.00000000000E+00 -0.00000000000E+00 -0.45593999997E+02  0.45594000000E+02  0.51100000000E-03 0. -1.
    9900012    2    1    2    0    0  0.39566622384E+01  0.18664746522E+02  0.35904558482E+02  0.50528865005E+02  0.30000015669E+02 0.  0.
         12    1    1    2    0    0 -0.39566622384E+01 -0.18664746522E+02 -0.35904558482E+02  0.40659134995E+02  0.00000000000E+00 0. -1.
         11    1    3    3    0    0 -0.86823910636E+01 -0.27863626186E-01  0.44433356643E+01  0.97533544512E+01  0.51100000000E-03 0. -1.
        -11    1    3    3    0    0  0.10169153785E+02  0.13693100813E+02  0.30737218607E+02  0.35152372701E+02  0.51100000000E-03 0.  1.
         12    1    3    3    0    0  0.24698995167E+01  0.49995093349E+01  0.72400421096E+00  0.56231378526E+01  0.00000000000E+00 0. -1.
</event>
<event>
 7    1  0.2900470E-011  0.5052886E+02  0.7816164E-02  0.1300439E+00
        -11   -1    0    0    0    0  0.00000000000E+00  0.00000000000E+00  0.45593999997E+02  0.45594000000E+02  0.51100000000E-03 0. -1.
         11   -1    0    0    0    0 -0.00000000000E+00 -0.00000000000E+00 -0.45593999997E+02  0.45594000000E+02  0.51100000000E-03 0.  1.
    9900012    2    1    2    0    0 -0.36526564168E+02 -0.12694472680E+02  0.12562880399E+02  0.50528862153E+02  0.30000007000E+02 0.  0.
         12    1    1    2    0    0  0.36526564168E+02  0.12694472680E+02 -0.12562880399E+02  0.40659137847E+02  0.00000000000E+00 0. -1.
         11    1    3    3    0    0 -0.42002614487E+01  0.71762406161E+01  0.89791121694E+01  0.12237854437E+02  0.51100000000E-03 0. -1.
        -11    1    3    3    0    0 -0.73018580587E+01 -0.61824348712E+01  0.22368110257E+00  0.95702489802E+01  0.51100000000E-03 0.  1.
         12    1    3    3    0    0 -0.25024444661E+02 -0.13688278425E+02  0.33600871268E+01  0.28720758735E+02  0.00000000000E+00 0. -1.
</event>
<event>
 7    1  0.2900470E-011  0.5052886E+02  0.7816164E-02  0.1300439E+00
        -11   -1    0    0    0    0  0.00000000000E+00  0.00000000000E+00  0.45593999997E+02  0.45594000000E+02  0.51100000000E-03 0.  1.
         11   -1    0    0    0    0 -0.00000000000E+00 -0.00000000000E+00 -0.45593999997E+02  0.45594000000E+02  0.51100000000E-03 0. -1.
    9900012    2    1    2    0    0  0.17451282947E+02 -0.25231422786E+02  0.26683207885E+02  0.50528861355E+02  0.30000004576E+02 0.  0.
         12    1    1    2    0    0 -0.17451282947E+02  0.25231422786E+02 -0.26683207885E+02  0.40659138645E+02  0.00000000000E+00 0. -1.
         11    1    3    3    0    0  0.47925774413E+01 -0.10409897873E+02  0.21695992356E+02  0.24536724656E+02  0.51100000000E-03 0. -1.
        -11    1    3    3    0    0  0.15458223230E+02 -0.11865012261E+02  0.78566288405E+01  0.21010992322E+02  0.51100000000E-03 0.  1.
         12    1    3    3    0    0 -0.27995177247E+01 -0.29565126524E+01 -0.28694133117E+01  0.49811443774E+01  0.00000000000E+00 0. -1.
</event>
<event>
 7    1  0.2900470E-011  0.5052887E+02  0.7816164E-02  0.1300439E+00
        -11   -1    0    0    0    0  0.00000000000E+00  0.00000000000E+00  0.45593999997E+02  0.45594000000E+02  0.51100000000E-03 0.  1.
         11   -1    0    0    0    0 -0.00000000000E+00 -0.00000000000E+00 -0.45593999997E+02  0.45594000000E+02  0.51100000000E-03 0. -1.
    9900012    2    1    2    0    0 -0.82810405380E+01  0.35004035425E+02  0.18955391957E+02  0.50528868029E+02  0.30000024860E+02 0.  0.
         12    1    1    2    0    0  0.82810405380E+01 -0.35004035425E+02 -0.18955391957E+02  0.40659131971E+02  0.00000000000E+00 0. -1.
         11    1    3    3    0    0 -0.87737266763E+00 -0.45594731054E+01 -0.14226591090E+01  0.48561854370E+01  0.51100000000E-03 0. -1.
        -11    1    3    3    0    0 -0.22075430912E+01  0.19499129056E+02  0.62721671573E+01  0.20601683464E+02  0.51100000000E-03 0.  1.
         12    1    3    3    0    0 -0.51961247792E+01  0.20064379475E+02  0.14105883908E+02  0.25070999127E+02  0.00000000000E+00 0. -1.
</event>
<event>
 7    1  0.2900470E-011  0.5052880E+02  0.7816164E-02  0.1300439E+00
        -11   -1    0    0    0    0  0.00000000000E+00  0.00000000000E+00  0.45593999997E+02  0.45594000000E+02  0.51100000000E-03 0. -1.
         11   -1    0    0    0    0 -0.00000000000E+00 -0.00000000000E+00 -0.45593999997E+02  0.45594000000E+02  0.51100000000E-03 0.  1.
    9900012    2    1    2    0    0  0.11841095569E+02  0.35606059093E+02 -0.15657827574E+02  0.50528799900E+02  0.29999817775E+02 0.  0.
         12    1    1    2    0    0 -0.11841095569E+02 -0.35606059093E+02  0.15657827574E+02  0.40659200100E+02  0.00000000000E+00 0. -1.
         11    1    3    3    0    0  0.89214639267E+01 -0.51392115335E+00  0.11979482375E+01  0.90161917564E+01  0.51100000000E-03 0. -1.
        -11    1    3    3    0    0  0.71343036963E+01  0.23789311637E+02 -0.12238201114E+02  0.27687600188E+02  0.51100000000E-03 0.  1.
        -12    1    3    3    0    0 -0.42146720540E+01  0.12330668610E+02 -0.46175746975E+01  0.13825007956E+02  0.00000000000E+00 0.  1.
</event>
<event>
 7    1  0.3413523E-011  0.5052890E+02  0.7816164E-02  0.1300439E+00
        -11   -1    0    0    0    0  0.00000000000E+00  0.00000000000E+00  0.45593999997E+02  0.45594000000E+02  0.51100000000E-03 0.  1.
         11   -1    0    0    0    0 -0.00000000000E+00 -0.00000000000E+00 -0.45593999997E+02  0.45594000000E+02  0.51100000000E-03 0. -1.
    9900012    2    1    2    0    0 -0.34290236091E+02  0.14747117268E+02  0.16120325905E+02  0.50528896884E+02  0.30000112570E+02 0.  0.
         12    1    1    2    0    0  0.34290236091E+02 -0.14747117268E+02 -0.16120325905E+02  0.40659103116E+02  0.00000000000E+00 0. -1.
         11    1    3    3    0    0  0.42291243708E+00 -0.44504802467E+00 -0.29593891656E+01  0.30224008947E+01  0.51100000000E-03 0. -1.
        -11    1    3    3    0    0 -0.29603991686E+02  0.23652859650E+01  0.12847733009E+02  0.32358231490E+02  0.51100000000E-03 0.  1.
        -12    1    3    3    0    0 -0.51091568415E+01  0.12826879328E+02  0.62319820615E+01  0.15148264499E+02  0.00000000000E+00 0.  1.
</event>
<event>
 7    1  0.2900470E-011  0.5052885E+02  0.7816164E-02  0.1300439E+00
        -11   -1    0    0    0    0  0.00000000000E+00  0.00000000000E+00  0.45593999997E+02  0.45594000000E+02  0.51100000000E-03 0.  1.
         11   -1    0    0    0    0 -0.00000000000E+00 -0.00000000000E+00 -0.45593999997E+02  0.45594000000E+02  0.51100000000E-03 0. -1.
    9900012    2    1    2    0    0  0.14069530655E+02  0.26237122312E+02  0.27691659291E+02  0.50528852513E+02  0.29999977698E+02 0.  0.
         12    1    1    2    0    0 -0.14069530655E+02 -0.26237122312E+02 -0.27691659291E+02  0.40659147487E+02  0.00000000000E+00 0. -1.
         11    1    3    3    0    0  0.13317730406E+02  0.12202056802E+02  0.15475731766E+01  0.18128626985E+02  0.51100000000E-03 0. -1.
        -11    1    3    3    0    0  0.43677390194E+01  0.45699795549E+01  0.18942250139E+02  0.19969243798E+02  0.51100000000E-03 0.  1.
        -12    1    3    3    0    0 -0.36159387709E+01  0.94650859555E+01  0.72018359759E+01  0.12430981730E+02  0.00000000000E+00 0.  1.
</event>
<event>
 7    1  0.2900470E-011  0.5052885E+02  0.7816164E-02  0.1300439E+00
        -11   -1    0    0    0    0  0.00000000000E+00  0.00000000000E+00  0.45593999997E+02  0.45594000000E+02  0.51100000000E-03 0.  1.
         11   -1    0    0    0    0 -0.00000000000E+00 -0.00000000000E+00 -0.45593999997E+02  0.45594000000E+02  0.51100000000E-03 0. -1.
    9900012    2    1    2    0    0  0.15771645557E+02  0.33924120572E+01  0.37321748791E+02  0.50528853477E+02  0.29999980629E+02 0.  0.
         12    1    1    2    0    0 -0.15771645557E+02 -0.33924120572E+01 -0.37321748791E+02  0.40659146523E+02  0.00000000000E+00 0. -1.
         11    1    3    3    0    0  0.89311180304E+01 -0.12059716046E+02  0.16892135985E+02  0.22595262308E+02  0.51100000000E-03 0. -1.
        -11    1    3    3    0    0  0.38444462079E+01  0.59370665725E+00  0.39787528834E+01  0.55644163224E+01  0.51100000000E-03 0.  1.
         12    1    3    3    0    0  0.29960813191E+01  0.14858421446E+02  0.16450859923E+02  0.22369174847E+02  0.00000000000E+00 0. -1.
</event>
<event>
 7    1  0.2900470E-011  0.5052887E+02  0.7816164E-02  0.1300439E+00
        -11   -1    0    0    0    0  0.00000000000E+00  0.00000000000E+00  0.45593999997E+02  0.45594000000E+02  0.51100000000E-03 0. -1.
         11   -1    0    0    0    0 -0.00000000000E+00 -0.00000000000E+00 -0.45593999997E+02  0.45594000000E+02  0.51100000000E-03 0.  1.
    9900012    2    1    2    0    0  0.14779480297E+02  0.11387045027E+02 -0.36125705720E+02  0.50528874997E+02  0.30000046040E+02 0.  0.
         12    1    1    2    0    0 -0.14779480297E+02 -0.11387045027E+02  0.36125705720E+02  0.40659125003E+02  0.00000000000E+00 0. -1.
         11    1    3    3    0    0 -0.41283022099E+01  0.39721961883E+00 -0.25425040566E+02  0.25761082093E+02  0.51100000000E-03 0. -1.
        -11    1    3    3    0    0  0.46159688568E+01  0.48250834353E+01 -0.42761343386E+01  0.79293079009E+01  0.51100000000E-03 0.  1.
         12    1    3    3    0    0  0.14291813650E+02  0.61647419730E+01 -0.64245308147E+01  0.16838485003E+02  0.00000000000E+00 0. -1.
</event>
<event>
 7    1  0.2900470E-011  0.5052885E+02  0.7816164E-02  0.1300439E+00
        -11   -1    0    0    0    0  0.00000000000E+00  0.00000000000E+00  0.45593999997E+02  0.45594000000E+02  0.51100000000E-03 0.  1.
         11   -1    0    0    0    0 -0.00000000000E+00 -0.00000000000E+00 -0.45593999997E+02  0.45594000000E+02  0.51100000000E-03 0. -1.
    9900012    2    1    2    0    0 -0.83970857469E+01  0.11404937826E+02  0.38112763229E+02  0.50528851254E+02  0.29999973871E+02 0.  0.
         12    1    1    2    0    0  0.83970857469E+01 -0.11404937826E+02 -0.38112763229E+02  0.40659148746E+02  0.00000000000E+00 0. -1.
         11    1    3    3    0    0 -0.24384438665E+01  0.49702374791E+01 -0.40453400068E+01  0.68566788696E+01  0.51100000000E-03 0. -1.
        -11    1    3    3    0    0 -0.36456406409E+01  0.40143202048E+00  0.26201607863E+02  0.26457061406E+02  0.51100000000E-03 0.  1.
         12    1    3    3    0    0 -0.23130012395E+01  0.60332683264E+01  0.15956495372E+02  0.17215110978E+02  0.00000000000E+00 0. -1.
</event>
<event>
 7    1  0.2900470E-011  0.5052887E+02  0.7816164E-02  0.1300439E+00
        -11   -1    0    0    0    0  0.00000000000E+00  0.00000000000E+00  0.45593999997E+02  0.45594000000E+02  0.51100000000E-03 0.  1.
         11   -1    0    0    0    0 -0.00000000000E+00 -0.00000000000E+00 -0.45593999997E+02  0.45594000000E+02  0.51100000000E-03 0. -1.
    9900012    2    1    2    0    0 -0.16360311030E+02  0.24128584194E+01  0.37144091779E+02  0.50528865518E+02  0.30000017228E+02 0.  0.
         12    1    1    2    0    0  0.16360311030E+02 -0.24128584194E+01 -0.37144091779E+02  0.40659134482E+02  0.00000000000E+00 0. -1.
         11    1    3    3    0    0 -0.15993662873E+01  0.61699604605E+01  0.96317566293E+01  0.11549767125E+02  0.51100000000E-03 0. -1.
        -11    1    3    3    0    0 -0.20527972149E+02 -0.51082561964E+01  0.24381946714E+02  0.32279579423E+02  0.51100000000E-03 0.  1.
        -12    1    3    3    0    0  0.57670274071E+01  0.13511541553E+01  0.31303884363E+01  0.66995189698E+01  0.00000000000E+00 0.  1.
</event>
<event>
 7    1  0.2900470E-011  0.5052886E+02  0.7816164E-02  0.1300439E+00
        -11   -1    0    0    0    0  0.00000000000E+00  0.00000000000E+00  0.45593999997E+02  0.45594000000E+02  0.51100000000E-03 0. -1.
         11   -1    0    0    0    0 -0.00000000000E+00 -0.00000000000E+00 -0.45593999997E+02  0.45594000000E+02  0.51100000000E-03 0.  1.
    9900012    2    1    2    0    0 -0.38203010965E+02  0.58148170059E+01  0.12644490718E+02  0.50528864629E+02  0.30000014525E+02 0.  0.
         12    1    1    2    0    0  0.38203010965E+02 -0.58148170059E+01 -0.12644490718E+02  0.40659135371E+02  0.00000000000E+00 0. -1.
         11    1    3    3    0    0 -0.12966737684E+02  0.60297726985E+01  0.38465790793E+01  0.14808464331E+02  0.51100000000E-03 0. -1.
        -11    1    3    3    0    0 -0.22553245350E+02 -0.91456596676E+01  0.10013307277E+02  0.26316502227E+02  0.51100000000E-03 0.  1.
        -12    1    3    3    0    0 -0.26830279311E+01  0.89307039750E+01 -0.12153956381E+01  0.94038980708E+01  0.00000000000E+00 0.  1.
</event>
<event>
 7    1  0.2900470E-011  0.5052886E+02  0.7816164E-02  0.1300439E+00
        -11   -1    0    0    0    0  0.00000000000E+00  0.00000000000E+00  0.45593999997E+02  0.45594000000E+02  0.51100000000E-03 0.  1.
         11   -1    0    0    0    0 -0.00000000000E+00 -0.00000000000E+00 -0.45593999997E+02  0.45594000000E+02  0.51100000000E-03 0. -1.
    9900012    2    1    2    0    0 -0.91657468509E+01  0.13139260249E+02  0.37369971688E+02  0.50528857618E+02  0.29999993217E+02 0.  0.
         12    1    1    2    0    0  0.91657468509E+01 -0.13139260249E+02 -0.37369971688E+02  0.40659142382E+02  0.00000000000E+00 0. -1.
         11    1    3    3    0    0 -0.15081206387E+01 -0.59633869155E+01  0.69600948653E+01  0.92886668667E+01  0.51100000000E-03 0. -1.
        -11    1    3    3    0    0 -0.12830749076E+02  0.14085408691E+02  0.27528423730E+02  0.33478963143E+02  0.51100000000E-03 0.  1.
        -12    1    3    3    0    0  0.51731228635E+01  0.50172384739E+01  0.28814530931E+01  0.77612276086E+01  0.00000000000E+00 0.  1.
</event>
<event>
 7    1  0.2900470E-011  0.5052886E+02  0.7816164E-02  0.1300439E+00
        -11   -1    0    0    0    0  0.00000000000E+00  0.00000000000E+00  0.45593999997E+02  0.45594000000E+02  0.51100000000E-03 0.  1.
         11   -1    0    0    0    0 -0.00000000000E+00 -0.00000000000E+00 -0.45593999997E+02  0.45594000000E+02  0.51100000000E-03 0. -1.
    9900012    2    1    2    0    0 -0.34754774961E+02  0.53241246853E+01  0.20418747555E+02  0.50528856650E+02  0.29999990272E+02 0.  0.
         12    1    1    2    0    0  0.34754774961E+02 -0.53241246853E+01 -0.20418747555E+02  0.40659143350E+02  0.00000000000E+00 0. -1.
         11    1    3    3    0    0 -0.23540560409E+01 -0.42794613097E+01  0.12955443223E+02  0.13845536403E+02  0.51100000000E-03 0. -1.
        -11    1    3    3    0    0 -0.28779137624E+02  0.12316693617E+02  0.56571515380E+01  0.31811052605E+02  0.51100000000E-03 0.  1.
        -12    1    3    3    0    0 -0.36215812957E+01 -0.27131076216E+01  0.18061527949E+01  0.48722676411E+01  0.00000000000E+00 0.  1.
</event>
<event>
 7    1  0.2900470E-011  0.5052886E+02  0.7816164E-02  0.1300439E+00
        -11   -1    0    0    0    0  0.00000000000E+00  0.00000000000E+00  0.45593999997E+02  0.45594000000E+02  0.51100000000E-03 0.  1.
         11   -1    0    0    0    0 -0.00000000000E+00 -0.00000000000E+00 -0.45593999997E+02  0.45594000000E+02  0.51100000000E-03 0. -1.
    9900012    2    1    2    0    0  0.52472000004E+01 -0.10776278072E+02  0.38852338576E+02  0.50528862162E+02  0.30000007028E+02 0.  0.
         12    1    1    2    0    0 -0.52472000004E+01  0.10776278072E+02 -0.38852338576E+02  0.40659137838E+02  0.00000000000E+00 0. -1.
         11    1    3    3    0    0  0.58188144127E+01 -0.82005626475E+00  0.20475122121E+01  0.62228128661E+01  0.51100000000E-03 0. -1.
        -11    1    3    3    0    0 -0.11504939233E+02 -0.40199483305E+01  0.16977299942E+02  0.20898620167E+02  0.51100000000E-03 0.  1.
        -12    1    3    3    0    0  0.10933324820E+02 -0.59362734763E+01  0.19827526422E+02  0.23407429129E+02  0.00000000000E+00 0.  1.
</event>
<event>
 7    1  0.2900470E-011  0.5052886E+02  0.7816164E-02  0.1300439E+00
        -11   -1    0    0    0    0  0.00000000000E+00  0.00000000000E+00  0.45593999997E+02  0.45594000000E+02  0.51100000000E-03 0.  1.
         11   -1    0    0    0    0 -0.00000000000E+00 -0.00000000000E+00 -0.45593999997E+02  0.45594000000E+02  0.51100000000E-03 0. -1.
    9900012    2    1    2    0    0 -0.12935753569E+02  0.27182298816E+02  0.27330477021E+02  0.50528855106E+02  0.29999985579E+02 0.  0.
         12    1    1    2    0    0  0.12935753569E+02 -0.27182298816E+02 -0.27330477021E+02  0.40659144894E+02  0.00000000000E+00 0. -1.
         11    1    3    3    0    0 -0.51084749913E+01  0.29933076170E+01 -0.98344915543E+00  0.60019646558E+01  0.51100000000E-03 0. -1.
        -11    1    3    3    0    0 -0.52981615354E+01  0.27187522887E+02  0.29463497794E+02  0.40439208930E+02  0.51100000000E-03 0.  1.
        -12    1    3    3    0    0 -0.25291170426E+01 -0.29985316881E+01 -0.11495716176E+01  0.40876815193E+01  0.00000000000E+00 0.  1.
</event>
<event>
 7    1  0.2900470E-011  0.5052886E+02  0.7816164E-02  0.1300439E+00
        -11   -1    0    0    0    0  0.00000000000E+00  0.00000000000E+00  0.45593999997E+02  0.45594000000E+02  0.51100000000E-03 0. -1.
         11   -1    0    0    0    0 -0.00000000000E+00 -0.00000000000E+00 -0.45593999997E+02  0.45594000000E+02  0.51100000000E-03 0.  1.
    9900012    2    1    2    0    0 -0.97306632624E+01 -0.14822772424E+02 -0.36589140039E+02  0.50528861315E+02  0.30000004452E+02 0.  0.
         12    1    1    2    0    0  0.97306632624E+01  0.14822772424E+02  0.36589140039E+02  0.40659138685E+02  0.00000000000E+00 0. -1.
         11    1    3    3    0    0 -0.10740642002E+02  0.20263458215E+01 -0.29155520772E+01  0.11312290315E+02  0.51100000000E-03 0. -1.
        -11    1    3    3    0    0  0.12887267813E+01 -0.17878456222E+02 -0.33676907978E+02  0.38150152619E+02  0.51100000000E-03 0.  1.
        -12    1    3    3    0    0 -0.27874804187E+00  0.10293379762E+01  0.33200164300E-02  0.10664183807E+01  0.00000000000E+00 0.  1.
</event>
<event>
 7    1  0.2900470E-011  0.5052887E+02  0.7816164E-02  0.1300439E+00
        -11   -1    0    0    0    0  0.00000000000E+00  0.00000000000E+00  0.45593999997E+02  0.45594000000E+02  0.51100000000E-03 0.  1.
         11   -1    0    0    0    0 -0.00000000000E+00 -0.00000000000E+00 -0.45593999997E+02  0.45594000000E+02  0.51100000000E-03 0. -1.
    9900012    2    1    2    0    0  0.16696521591E+02 -0.10786019075E+02  0.35469043039E+02  0.50528867510E+02  0.30000023284E+02 0.  0.
         12    1    1    2    0    0 -0.16696521591E+02  0.10786019075E+02 -0.35469043039E+02  0.40659132490E+02  0.00000000000E+00 0. -1.
         11    1    3    3    0    0  0.55043885876E+01 -0.16827834308E+01  0.73249648886E+00  0.58022930954E+01  0.51100000000E-03 0. -1.
        -11    1    3    3    0    0  0.10226277765E+02  0.37524626475E+01  0.28285853388E+02  0.30310843522E+02  0.51100000000E-03 0.  1.
        -12    1    3    3    0    0  0.96585523823E+00 -0.12855698292E+02  0.64506931618E+01  0.14415730893E+02  0.00000000000E+00 0.  1.
</event>
<event>
 7    1  0.2900470E-011  0.5052886E+02  0.7816164E-02  0.1300439E+00
        -11   -1    0    0    0    0  0.00000000000E+00  0.00000000000E+00  0.45593999997E+02  0.45594000000E+02  0.51100000000E-03 0.  1.
         11   -1    0    0    0    0 -0.00000000000E+00 -0.00000000000E+00 -0.45593999997E+02  0.45594000000E+02  0.51100000000E-03 0. -1.
    9900012    2    1    2    0    0 -0.15714172567E+02  0.29946078659E+02  0.22571281438E+02  0.50528860901E+02  0.30000003194E+02 0.  0.
         12    1    1    2    0    0  0.15714172567E+02 -0.29946078659E+02 -0.22571281438E+02  0.40659139099E+02  0.00000000000E+00 0. -1.
         11    1    3    3    0    0  0.92297440874E+00 -0.16205443093E+01  0.85220500813E+01  0.87237253205E+01  0.51100000000E-03 0. -1.
        -11    1    3    3    0    0 -0.19316054017E+02  0.21815637456E+02  0.11855315816E+02  0.31457598347E+02  0.51100000000E-03 0.  1.
         12    1    3    3    0    0  0.26789070411E+01  0.97509855123E+01  0.21939155404E+01  0.10347537233E+02  0.00000000000E+00 0. -1.
</event>
<event>
 7    1  0.2900470E-011  0.5052886E+02  0.7816164E-02  0.1300439E+00
        -11   -1    0    0    0    0  0.00000000000E+00  0.00000000000E+00  0.45593999997E+02  0.45594000000E+02  0.51100000000E-03 0.  1.
         11   -1    0    0    0    0 -0.00000000000E+00 -0.00000000000E+00 -0.45593999997E+02  0.45594000000E+02  0.51100000000E-03 0. -1.
    9900012    2    1    2    0    0 -0.29139434852E+02 -0.22408145341E+02  0.17376253682E+02  0.50528857939E+02  0.29999994191E+02 0.  0.
         12    1    1    2    0    0  0.29139434852E+02  0.22408145341E+02 -0.17376253682E+02  0.40659142061E+02  0.00000000000E+00 0. -1.
         11    1    3    3    0    0 -0.67434053738E+00 -0.13982920514E+02  0.97683855197E+00  0.14033211146E+02  0.51100000000E-03 0. -1.
        -11    1    3    3    0    0 -0.14652681080E+02  0.12388863822E+01  0.12239961769E+02  0.19132500272E+02  0.51100000000E-03 0.  1.
        -12    1    3    3    0    0 -0.13812413234E+02 -0.96641112091E+01  0.41594533617E+01  0.17363146520E+02  0.00000000000E+00 0.  1.
</event>
<event>
 7    1  0.2900470E-011  0.5052888E+02  0.7816164E-02  0.1300439E+00
        -11   -1    0    0    0    0  0.00000000000E+00  0.00000000000E+00  0.45593999997E+02  0.45594000000E+02  0.51100000000E-03 0. -1.
         11   -1    0    0    0    0 -0.00000000000E+00 -0.00000000000E+00 -0.45593999997E+02  0.45594000000E+02  0.51100000000E-03 0.  1.
    9900012    2    1    2    0    0  0.12854820223E+02  0.30774683476E+02  0.23255890494E+02  0.50528880620E+02  0.30000063134E+02 0.  0.
         12    1    1    2    0    0 -0.12854820223E+02 -0.30774683476E+02 -0.23255890494E+02  0.40659119380E+02  0.00000000000E+00 0. -1.
         11    1    3    3    0    0  0.17419020281E+00  0.40232221239E+01 -0.51231426780E+01  0.65163831721E+01  0.51100000000E-03 0. -1.
        -11    1    3    3    0    0  0.37606959939E+01  0.19947715873E+02  0.25186884382E+02  0.32348622042E+02  0.51100000000E-03 0.  1.
        -12    1    3    3    0    0  0.89199340264E+01  0.68037454795E+01  0.31921487902E+01  0.11663875406E+02  0.00000000000E+00 0.  1.
</event>
<event>
 7    1  0.2900470E-011  0.5052886E+02  0.7816164E-02  0.1300439E+00
        -11   -1    0    0    0    0  0.00000000000E+00  0.00000000000E+00  0.45593999997E+02  0.45594000000E+02  0.51100000000E-03 0. -1.
         11   -1    0    0    0    0 -0.00000000000E+00 -0.00000000000E+00 -0.45593999997E+02  0.45594000000E+02  0.51100000000E-03 0.  1.
    9900012    2    1    2    0    0  0.18074761954E+02  0.11780881598E+02 -0.34462730473E+02  0.50528856102E+02  0.29999988606E+02 0.  0.
         12    1    1    2    0    0 -0.18074761954E+02 -0.11780881598E+02  0.34462730473E+02  0.40659143898E+02  0.00000000000E+00 0. -1.
         11    1    3    3    0    0  0.39173820702E+01  0.10868035266E+02 -0.12395151440E+02  0.16944021137E+02  0.51100000000E-03 0. -1.
        -11    1    3    3    0    0  0.18812499352E+02 -0.23602601933E+00 -0.11681770721E+02  0.22145645342E+02  0.51100000000E-03 0.  1.
        -12    1    3    3    0    0 -0.46551194681E+01  0.11488723520E+01 -0.10385808311E+02  0.11439189623E+02  0.00000000000E+00 0.  1.
</event>
<event>
 7    1  0.2900470E-011  0.5052886E+02  0.7816164E-02  0.1300439E+00
        -11   -1    0    0    0    0  0.00000000000E+00  0.00000000000E+00  0.45593999997E+02  0.45594000000E+02  0.51100000000E-03 0.  1.
         11   -1    0    0    0    0 -0.00000000000E+00 -0.00000000000E+00 -0.45593999997E+02  0.45594000000E+02  0.51100000000E-03 0. -1.
    9900012    2    1    2    0    0  0.19037472903E+02  0.30642410641E+02  0.18755880914E+02  0.50528858675E+02  0.29999996429E+02 0.  0.
         12    1    1    2    0    0 -0.19037472903E+02 -0.30642410641E+02 -0.18755880914E+02  0.40659141325E+02  0.00000000000E+00 0. -1.
         11    1    3    3    0    0  0.13688225364E+02  0.30746850615E+02  0.14372601552E+02  0.36596557379E+02  0.51100000000E-03 0. -1.
        -11    1    3    3    0    0 -0.45189327377E+00 -0.44965960992E+01  0.48649061718E+01  0.66400976146E+01  0.51100000000E-03 0.  1.
         12    1    3    3    0    0  0.58011408127E+01  0.43921561254E+01 -0.48162680928E+00  0.72922036821E+01  0.00000000000E+00 0. -1.
</event>
<event>
 7    1  0.2900470E-011  0.5052886E+02  0.7816164E-02  0.1300439E+00
        -11   -1    0    0    0    0  0.00000000000E+00  0.00000000000E+00  0.45593999997E+02  0.45594000000E+02  0.51100000000E-03 0.  1.
         11   -1    0    0    0    0 -0.00000000000E+00 -0.00000000000E+00 -0.45593999997E+02  0.45594000000E+02  0.51100000000E-03 0. -1.
    9900012    2    1    2    0    0  0.34154067272E+02 -0.63146474033E+01  0.21137415994E+02  0.50528862798E+02  0.30000008961E+02 0.  0.
         12    1    1    2    0    0 -0.34154067272E+02  0.63146474033E+01 -0.21137415994E+02  0.40659137202E+02  0.00000000000E+00 0. -1.
         11    1    3    3    0    0  0.20589923279E+00 -0.16901207244E+01 -0.33136927070E+00  0.17345628878E+01  0.51100000000E-03 0. -1.
        -11    1    3    3    0    0  0.28752208788E+01  0.93152435868E+01  0.43034103239E+01  0.10656453390E+02  0.51100000000E-03 0.  1.
        -12    1    3    3    0    0  0.31072947161E+02 -0.13939770266E+02  0.17165374941E+02  0.38137846520E+02  0.00000000000E+00 0.  1.
</event>
<event>
 7    1  0.2900470E-011  0.5052886E+02  0.7816164E-02  0.1300439E+00
        -11   -1    0    0    0    0  0.00000000000E+00  0.00000000000E+00  0.45593999997E+02  0.45594000000E+02  0.51100000000E-03 0.  1.
         11   -1    0    0    0    0 -0.00000000000E+00 -0.00000000000E+00 -0.45593999997E+02  0.45594000000E+02  0.51100000000E-03 0. -1.
    9900012    2    1    2    0    0 -0.34766319423E+02  0.19227092791E+02 -0.86479842674E+01  0.50528859633E+02  0.29999999342E+02 0.  0.
         12    1    1    2    0    0  0.34766319423E+02 -0.19227092791E+02  0.86479842674E+01  0.40659140367E+02  0.00000000000E+00 0. -1.
         11    1    3    3    0    0 -0.16804479228E+02 -0.36023107719E+01 -0.14477436480E+01  0.17247119382E+02  0.51100000000E-03 0. -1.
        -11    1    3    3    0    0  0.13953882890E+00  0.87652038889E+01  0.12415061656E+01  0.88537906074E+01  0.51100000000E-03 0.  1.
        -12    1    3    3    0    0 -0.18101379024E+02  0.14064199674E+02 -0.84417467850E+01  0.24427949645E+02  0.00000000000E+00 0.  1.
</event>
<event>
 7    1  0.2900470E-011  0.5052887E+02  0.7816164E-02  0.1300439E+00
        -11   -1    0    0    0    0  0.00000000000E+00  0.00000000000E+00  0.45593999997E+02  0.45594000000E+02  0.51100000000E-03 0.  1.
         11   -1    0    0    0    0 -0.00000000000E+00 -0.00000000000E+00 -0.45593999997E+02  0.45594000000E+02  0.51100000000E-03 0. -1.
    9900012    2    1    2    0    0 -0.14927659794E+02  0.67580363720E+01  0.37211008036E+02  0.50528865705E+02  0.30000017797E+02 0.  0.
         12    1    1    2    0    0  0.14927659794E+02 -0.67580363720E+01 -0.37211008036E+02  0.40659134295E+02  0.00000000000E+00 0. -1.
         11    1    3    3    0    0  0.18179110498E+01  0.39898891936E+01  0.20528470201E+02  0.20991476971E+02  0.51100000000E-03 0. -1.
        -11    1    3    3    0    0 -0.50089469641E+01 -0.39756491554E+01 -0.17858335071E+01  0.66396187746E+01  0.51100000000E-03 0.  1.
         12    1    3    3    0    0 -0.11736623880E+02  0.67437963339E+01  0.18468371342E+02  0.22897769959E+02  0.00000000000E+00 0. -1.
</event>
<event>
 7    1  0.2900470E-011  0.5052886E+02  0.7816164E-02  0.1300439E+00
        -11   -1    0    0    0    0  0.00000000000E+00  0.00000000000E+00  0.45593999997E+02  0.45594000000E+02  0.51100000000E-03 0. -1.
         11   -1    0    0    0    0 -0.00000000000E+00 -0.00000000000E+00 -0.45593999997E+02  0.45594000000E+02  0.51100000000E-03 0.  1.
    9900012    2    1    2    0    0 -0.29639618252E+01 -0.40429758352E+02 -0.31328672314E+01  0.50528864652E+02  0.30000014597E+02 0.  0.
         12    1    1    2    0    0  0.29639618252E+01  0.40429758352E+02  0.31328672314E+01  0.40659135348E+02  0.00000000000E+00 0. -1.
         11    1    3    3    0    0 -0.63489371694E+01 -0.25954805109E+02  0.99236328444E+01  0.28503322622E+02  0.51100000000E-03 0. -1.
        -11    1    3    3    0    0  0.11302776222E+01 -0.12557433121E+02 -0.52152120710E+01  0.13644232896E+02  0.51100000000E-03 0.  1.
         12    1    3    3    0    0  0.22546977220E+01 -0.19175201224E+01 -0.78412880048E+01  0.83813091347E+01  0.00000000000E+00 0. -1.
</event>
<event>
 7    1  0.2900470E-011  0.5052886E+02  0.7816164E-02  0.1300439E+00
        -11   -1    0    0    0    0  0.00000000000E+00  0.00000000000E+00  0.45593999997E+02  0.45594000000E+02  0.51100000000E-03 0.  1.
         11   -1    0    0    0    0 -0.00000000000E+00 -0.00000000000E+00 -0.45593999997E+02  0.45594000000E+02  0.51100000000E-03 0. -1.
    9900012    2    1    2    0    0  0.11066768588E+01  0.22355550321E+02  0.33943637192E+02  0.50528857490E+02  0.29999992828E+02 0.  0.
         12    1    1    2    0    0 -0.11066768588E+01 -0.22355550321E+02 -0.33943637192E+02  0.40659142510E+02  0.00000000000E+00 0. -1.
         11    1    3    3    0    0  0.11140537938E+02  0.45224013196E+01  0.14754034849E+02  0.19032741364E+02  0.51100000000E-03 0. -1.
        -11    1    3    3    0    0 -0.11646789796E+02  0.66655894624E+01  0.80947715682E+01  0.15671730040E+02  0.51100000000E-03 0.  1.
        -12    1    3    3    0    0  0.16129287168E+01  0.11167559539E+02  0.11094830775E+02  0.15824386087E+02  0.00000000000E+00 0.  1.
</event>
<event>
 7    1  0.2900470E-011  0.5052887E+02  0.7816164E-02  0.1300439E+00
        -11   -1    0    0    0    0  0.00000000000E+00  0.00000000000E+00  0.45593999997E+02  0.45594000000E+02  0.51100000000E-03 0.  1.
         11   -1    0    0    0    0 -0.00000000000E+00 -0.00000000000E+00 -0.45593999997E+02  0.45594000000E+02  0.51100000000E-03 0. -1.
    9900012    2    1    2    0    0  0.12560316075E+02  0.26336567584E+02  0.28315866086E+02  0.50528873051E+02  0.30000040126E+02 0.  0.
         12    1    1    2    0    0 -0.12560316075E+02 -0.26336567584E+02 -0.28315866086E+02  0.40659126949E+02  0.00000000000E+00 0. -1.
         11    1    3    3    0    0  0.12049317281E+02  0.18666899321E+02  0.15681475628E+02  0.27194629163E+02  0.51100000000E-03 0.  1.
        -11    1    3    3    0    0 -0.61650778990E+01  0.80021406535E+01  0.13204847414E+02  0.16625595810E+02  0.51100000000E-03 0. -1.
         12    1    3    3    0    0  0.66760766927E+01 -0.33247239054E+00 -0.57045695490E+00  0.67086480780E+01  0.00000000000E+00 0. -1.
</event>
<event>
 7    1  0.2900470E-011  0.5052885E+02  0.7816164E-02  0.1300439E+00
        -11   -1    0    0    0    0  0.00000000000E+00  0.00000000000E+00  0.45593999997E+02  0.45594000000E+02  0.51100000000E-03 0.  1.
         11   -1    0    0    0    0 -0.00000000000E+00 -0.00000000000E+00 -0.45593999997E+02  0.45594000000E+02  0.51100000000E-03 0. -1.
    9900012    2    1    2    0    0 -0.11041803061E+02  0.21322505401E+02  0.32811513640E+02  0.50528854918E+02  0.29999985009E+02 0.  0.
         12    1    1    2    0    0  0.11041803061E+02 -0.21322505401E+02 -0.32811513640E+02  0.40659145082E+02  0.00000000000E+00 0. -1.
         11    1    3    3    0    0 -0.82658704752E+01  0.13935565213E+02  0.11468395333E+02  0.19850659543E+02  0.51100000000E-03 0. -1.
        -11    1    3    3    0    0  0.59930630745E+01 -0.43359643088E+01  0.71698100453E+01  0.10301629378E+02  0.51100000000E-03 0.  1.
        -12    1    3    3    0    0 -0.87689956602E+01  0.11722904497E+02  0.14173308262E+02  0.20376565997E+02  0.00000000000E+00 0.  1.
</event>
<event>
 7    1  0.2900470E-011  0.5052892E+02  0.7816164E-02  0.1300439E+00
        -11   -1    0    0    0    0  0.00000000000E+00  0.00000000000E+00  0.45593999997E+02  0.45594000000E+02  0.51100000000E-03 0.  1.
         11   -1    0    0    0    0 -0.00000000000E+00 -0.00000000000E+00 -0.45593999997E+02  0.45594000000E+02  0.51100000000E-03 0. -1.
    9900012    2    1    2    0    0 -0.34397068726E+02 -0.11177594615E+02  0.18575890236E+02  0.50528921600E+02  0.30000187694E+02 0.  0.
         12    1    1    2    0    0  0.34397068726E+02  0.11177594615E+02 -0.18575890236E+02  0.40659078400E+02  0.00000000000E+00 0. -1.
         11    1    3    3    0    0 -0.24089040966E+02 -0.15566607125E+02  0.73122651072E+01  0.29598485997E+02  0.51100000000E-03 0. -1.
        -11    1    3    3    0    0 -0.72763637739E+01  0.30029160159E+01  0.14363054688E+02  0.16378654236E+02  0.51100000000E-03 0.  1.
        -12    1    3    3    0    0 -0.30316639856E+01  0.13860964948E+01 -0.30994295589E+01  0.45517813661E+01  0.00000000000E+00 0.  1.
</event>
<event>
 7    1  0.2900470E-011  0.5052884E+02  0.7816164E-02  0.1300439E+00
        -11   -1    0    0    0    0  0.00000000000E+00  0.00000000000E+00  0.45593999997E+02  0.45594000000E+02  0.51100000000E-03 0. -1.
         11   -1    0    0    0    0 -0.00000000000E+00 -0.00000000000E+00 -0.45593999997E+02  0.45594000000E+02  0.51100000000E-03 0.  1.
    9900012    2    1    2    0    0 -0.12483302489E+02  0.37294033435E+02  0.10319361521E+02  0.50528843675E+02  0.29999950833E+02 0.  0.
         12    1    1    2    0    0  0.12483302489E+02 -0.37294033435E+02 -0.10319361521E+02  0.40659156325E+02  0.00000000000E+00 0. -1.
         11    1    3    3    0    0 -0.51634897347E+01  0.78720583310E+01  0.13319491290E+02  0.16310725830E+02  0.51100000000E-03 0. -1.
        -11    1    3    3    0    0 -0.11850642595E+02  0.15963446301E+02 -0.14838696123E+01  0.19936680191E+02  0.51100000000E-03 0.  1.
         12    1    3    3    0    0  0.45308298415E+01  0.13458528803E+02 -0.15162601572E+01  0.14281437654E+02  0.00000000000E+00 0. -1.
</event>
<event>
 7    1  0.2900470E-011  0.5052887E+02  0.7816164E-02  0.1300439E+00
        -11   -1    0    0    0    0  0.00000000000E+00  0.00000000000E+00  0.45593999997E+02  0.45594000000E+02  0.51100000000E-03 0. -1.
         11   -1    0    0    0    0 -0.00000000000E+00 -0.00000000000E+00 -0.45593999997E+02  0.45594000000E+02  0.51100000000E-03 0.  1.
    9900012    2    1    2    0    0  0.39736098262E+02  0.33747040982E+01 -0.79258440547E+01  0.50528866502E+02  0.30000020220E+02 0.  0.
         12    1    1    2    0    0 -0.39736098262E+02 -0.33747040982E+01  0.79258440547E+01  0.40659133498E+02  0.00000000000E+00 0. -1.
         11    1    3    3    0    0  0.83475842778E+01 -0.19438806970E+01 -0.34714018270E+01  0.92472410126E+01  0.51100000000E-03 0. -1.
        -11    1    3    3    0    0  0.14262944604E+02  0.29570858851E+01  0.10873653691E+02  0.18177246507E+02  0.51100000000E-03 0.  1.
        -12    1    3    3    0    0  0.17125569380E+02  0.23614989100E+01 -0.15328095919E+02  0.23104378983E+02  0.00000000000E+00 0.  1.
</event>
<event>
 7    1  0.2900470E-011  0.5052886E+02  0.7816164E-02  0.1300439E+00
        -11   -1    0    0    0    0  0.00000000000E+00  0.00000000000E+00  0.45593999997E+02  0.45594000000E+02  0.51100000000E-03 0.  1.
         11   -1    0    0    0    0 -0.00000000000E+00 -0.00000000000E+00 -0.45593999997E+02  0.45594000000E+02  0.51100000000E-03 0. -1.
    9900012    2    1    2    0    0 -0.32658537596E+02 -0.16542490126E+02  0.17689865958E+02  0.50528863080E+02  0.30000009818E+02 0.  0.
         12    1    1    2    0    0  0.32658537596E+02  0.16542490126E+02 -0.17689865958E+02  0.40659136920E+02  0.00000000000E+00 0. -1.
         11    1    3    3    0    0 -0.58712608403E+01  0.54584218971E+01 -0.27026763729E+01  0.84599369560E+01  0.51100000000E-03 0. -1.
        -11    1    3    3    0    0 -0.15879084769E+02 -0.85422785054E+01  0.45569543770E+01  0.18597894736E+02  0.51100000000E-03 0.  1.
         12    1    3    3    0    0 -0.10908191987E+02 -0.13458633517E+02  0.15835587954E+02  0.23471031388E+02  0.00000000000E+00 0. -1.
</event>
<event>
 7    1  0.2900470E-011  0.5052886E+02  0.7816164E-02  0.1300439E+00
        -11   -1    0    0    0    0  0.00000000000E+00  0.00000000000E+00  0.45593999997E+02  0.45594000000E+02  0.51100000000E-03 0. -1.
         11   -1    0    0    0    0 -0.00000000000E+00 -0.00000000000E+00 -0.45593999997E+02  0.45594000000E+02  0.51100000000E-03 0.  1.
    9900012    2    1    2    0    0  0.30877621522E+02 -0.20822752718E+02 -0.16314140276E+02  0.50528859397E+02  0.29999998624E+02 0.  0.
         12    1    1    2    0    0 -0.30877621522E+02  0.20822752718E+02  0.16314140276E+02  0.40659140603E+02  0.00000000000E+00 0. -1.
         11    1    3    3    0    0  0.10806872627E+02  0.32801943470E+01 -0.64127564623E+00  0.11311914322E+02  0.51100000000E-03 0. -1.
        -11    1    3    3    0    0  0.20641510921E+02 -0.20173724916E+02 -0.70310787272E+01  0.29706686426E+02  0.51100000000E-03 0.  1.
         12    1    3    3    0    0 -0.57076202545E+00 -0.39292221494E+01 -0.86417859025E+01  0.95102586492E+01  0.00000000000E+00 0. -1.
</event>
<event>
 7    1  0.2900470E-011  0.5052884E+02  0.7816164E-02  0.1300439E+00
        -11   -1    0    0    0    0  0.00000000000E+00  0.00000000000E+00  0.45593999997E+02  0.45594000000E+02  0.51100000000E-03 0. -1.
         11   -1    0    0    0    0 -0.00000000000E+00 -0.00000000000E+00 -0.45593999997E+02  0.45594000000E+02  0.51100000000E-03 0.  1.
    9900012    2    1    2    0    0 -0.33876006292E+02  0.22446555105E+02  0.13175657011E+01  0.50528835993E+02  0.29999927483E+02 0.  0.
         12    1    1    2    0    0  0.33876006292E+02 -0.22446555105E+02 -0.13175657011E+01  0.40659164007E+02  0.00000000000E+00 0. -1.
         11    1    3    3    0    0 -0.33444269958E+02  0.90072020548E+01  0.53874081784E+01  0.35052432855E+02  0.51100000000E-03 0.  1.
        -11    1    3    3    0    0 -0.12985754451E+01  0.13348144112E+02 -0.48945957148E+01  0.14276425214E+02  0.51100000000E-03 0. -1.
         12    1    3    3    0    0  0.86683911102E+00  0.91208938195E-01  0.82475323753E+00  0.11999779238E+01  0.00000000000E+00 0. -1.
</event>
<event>
 7    1  0.2900470E-011  0.5052886E+02  0.7816164E-02  0.1300439E+00
        -11   -1    0    0    0    0  0.00000000000E+00  0.00000000000E+00  0.45593999997E+02  0.45594000000E+02  0.51100000000E-03 0. -1.
         11   -1    0    0    0    0 -0.00000000000E+00 -0.00000000000E+00 -0.45593999997E+02  0.45594000000E+02  0.51100000000E-03 0.  1.
    9900012    2    1    2    0    0 -0.70187009144E+01  0.30378294949E+02 -0.26097175530E+02  0.50528861579E+02  0.30000005255E+02 0.  0.
         12    1    1    2    0    0  0.70187009144E+01 -0.30378294949E+02  0.26097175530E+02  0.40659138421E+02  0.00000000000E+00 0. -1.
         11    1    3    3    0    0  0.64978079667E+01  0.19010265741E+02 -0.11404985643E+02  0.23101632187E+02  0.51100000000E-03 0.  1.
        -11    1    3    3    0    0 -0.13968823125E+02  0.56965287924E+01 -0.15559469000E+02  0.21671998884E+02  0.51100000000E-03 0. -1.
         12    1    3    3    0    0  0.45231424411E+00  0.56715004157E+01  0.86727911403E+00  0.57552305082E+01  0.00000000000E+00 0. -1.
</event>
<event>
 7    1  0.2900470E-011  0.5052887E+02  0.7816164E-02  0.1300439E+00
        -11   -1    0    0    0    0  0.00000000000E+00  0.00000000000E+00  0.45593999997E+02  0.45594000000E+02  0.51100000000E-03 0.  1.
         11   -1    0    0    0    0 -0.00000000000E+00 -0.00000000000E+00 -0.45593999997E+02  0.45594000000E+02  0.51100000000E-03 0. -1.
    9900012    2    1    2    0    0  0.10018637348E+02 -0.39372188064E+02  0.16195295470E+01  0.50528866178E+02  0.30000019233E+02 0.  0.
         12    1    1    2    0    0 -0.10018637348E+02  0.39372188064E+02 -0.16195295470E+01  0.40659133822E+02  0.00000000000E+00 0. -1.
         11    1    3    3    0    0  0.38461380633E+01  0.12031314249E+01 -0.85323396825E+00  0.41192610616E+01  0.51100000000E-03 0. -1.
        -11    1    3    3    0    0  0.11585317321E+01 -0.31108162368E+02 -0.72272899498E+01  0.31957685804E+02  0.51100000000E-03 0.  1.
        -12    1    3    3    0    0  0.50139675529E+01 -0.94671571208E+01  0.97000534650E+01  0.14451919312E+02  0.00000000000E+00 0.  1.
</event>
<event>
 7    1  0.2900470E-011  0.5052886E+02  0.7816164E-02  0.1300439E+00
        -11   -1    0    0    0    0  0.00000000000E+00  0.00000000000E+00  0.45593999997E+02  0.45594000000E+02  0.51100000000E-03 0. -1.
         11   -1    0    0    0    0 -0.00000000000E+00 -0.00000000000E+00 -0.45593999997E+02  0.45594000000E+02  0.51100000000E-03 0.  1.
    9900012    2    1    2    0    0 -0.35922698159E+02 -0.24700087100E+01 -0.18884496116E+02  0.50528863516E+02  0.30000011142E+02 0.  0.
         12    1    1    2    0    0  0.35922698159E+02  0.24700087100E+01  0.18884496116E+02  0.40659136484E+02  0.00000000000E+00 0. -1.
         11    1    3    3    0    0 -0.55503066666E+01 -0.11366486272E+02 -0.81528188107E+01  0.15048965715E+02  0.51100000000E-03 0. -1.
        -11    1    3    3    0    0 -0.22612641356E+02  0.27465272237E+01 -0.31211257400E+01  0.22991659075E+02  0.51100000000E-03 0.  1.
         12    1    3    3    0    0 -0.77597501373E+01  0.61499503378E+01 -0.76105515658E+01  0.12488238726E+02  0.00000000000E+00 0. -1.
</event>
<event>
 7    1  0.2900470E-011  0.5052887E+02  0.7816164E-02  0.1300439E+00
        -11   -1    0    0    0    0  0.00000000000E+00  0.00000000000E+00  0.45593999997E+02  0.45594000000E+02  0.51100000000E-03 0.  1.
         11   -1    0    0    0    0 -0.00000000000E+00 -0.00000000000E+00 -0.45593999997E+02  0.45594000000E+02  0.51100000000E-03 0. -1.
    9900012    2    1    2    0    0 -0.20780232160E+02 -0.34580799150E+02 -0.50512762977E+01  0.50528866823E+02  0.30000021196E+02 0.  0.
         12    1    1    2    0    0  0.20780232160E+02  0.34580799150E+02  0.50512762977E+01  0.40659133177E+02  0.00000000000E+00 0. -1.
         11    1    3    3    0    0  0.70850108624E+00 -0.13619336866E+00 -0.95828586221E+01  0.96099792952E+01  0.51100000000E-03 0. -1.
        -11    1    3    3    0    0 -0.10179692655E+02 -0.16275743010E+02  0.33342926912E+01  0.19484441513E+02  0.51100000000E-03 0.  1.
         12    1    3    3    0    0 -0.11309040592E+02 -0.18168862771E+02  0.11972896332E+01  0.21434446015E+02  0.00000000000E+00 0. -1.
</event>
<event>
 7    1  0.2900470E-011  0.5052886E+02  0.7816164E-02  0.1300439E+00
        -11   -1    0    0    0    0  0.00000000000E+00  0.00000000000E+00  0.45593999997E+02  0.45594000000E+02  0.51100000000E-03 0. -1.
         11   -1    0    0    0    0 -0.00000000000E+00 -0.00000000000E+00 -0.45593999997E+02  0.45594000000E+02  0.51100000000E-03 0.  1.
    9900012    2    1    2    0    0 -0.26193251474E+02  0.20961678280E+02 -0.22971444079E+02  0.50528860533E+02  0.30000002077E+02 0.  0.
         12    1    1    2    0    0  0.26193251474E+02 -0.20961678280E+02  0.22971444079E+02  0.40659139467E+02  0.00000000000E+00 0. -1.
         11    1    3    3    0    0 -0.13245733703E+02 -0.95574058249E+00 -0.20032418216E+02  0.24034572625E+02  0.51100000000E-03 0. -1.
        -11    1    3    3    0    0 -0.10320884930E+02  0.17623590966E+02 -0.50462528730E+01  0.21037497299E+02  0.51100000000E-03 0.  1.
         12    1    3    3    0    0 -0.26266328407E+01  0.42938278971E+01  0.21072270106E+01  0.54567906102E+01  0.00000000000E+00 0. -1.
</event>
<event>
 7    1  0.2900470E-011  0.5052886E+02  0.7816164E-02  0.1300439E+00
        -11   -1    0    0    0    0  0.00000000000E+00  0.00000000000E+00  0.45593999997E+02  0.45594000000E+02  0.51100000000E-03 0. -1.
         11   -1    0    0    0    0 -0.00000000000E+00 -0.00000000000E+00 -0.45593999997E+02  0.45594000000E+02  0.51100000000E-03 0.  1.
    9900012    2    1    2    0    0 -0.71845613533E+01 -0.21839824863E+02 -0.33534604868E+02  0.50528860861E+02  0.30000003074E+02 0.  0.
         12    1    1    2    0    0  0.71845613533E+01  0.21839824863E+02  0.33534604868E+02  0.40659139139E+02  0.00000000000E+00 0. -1.
         11    1    3    3    0    0 -0.10300077094E+02 -0.73403959803E+00 -0.17723806441E+02  0.20512525864E+02  0.51100000000E-03 0. -1.
        -11    1    3    3    0    0  0.16146956163E+01 -0.22819361399E+02 -0.12714183461E+02  0.26172140874E+02  0.51100000000E-03 0.  1.
        -12    1    3    3    0    0  0.15008201246E+01  0.17135761342E+01 -0.30966149657E+01  0.38441941236E+01  0.00000000000E+00 0.  1.
</event>
<event>
 7    1  0.2900470E-011  0.5052886E+02  0.7816164E-02  0.1300439E+00
        -11   -1    0    0    0    0  0.00000000000E+00  0.00000000000E+00  0.45593999997E+02  0.45594000000E+02  0.51100000000E-03 0.  1.
         11   -1    0    0    0    0 -0.00000000000E+00 -0.00000000000E+00 -0.45593999997E+02  0.45594000000E+02  0.51100000000E-03 0. -1.
    9900012    2    1    2    0    0  0.14858201940E+02  0.62247955703E+01  0.37331643547E+02  0.50528857674E+02  0.29999993385E+02 0.  0.
         12    1    1    2    0    0 -0.14858201940E+02 -0.62247955703E+01 -0.37331643547E+02  0.40659142326E+02  0.00000000000E+00 0. -1.
         11    1    3    3    0    0  0.15183236723E+02  0.11782973063E+01  0.19101378445E+02  0.24429116248E+02  0.51100000000E-03 0. -1.
        -11    1    3    3    0    0  0.34306148273E+01  0.10069506694E+02  0.56556953808E+01  0.12047861787E+02  0.51100000000E-03 0.  1.
         12    1    3    3    0    0 -0.37556496098E+01 -0.50230084297E+01  0.12574569722E+02  0.14051879638E+02  0.00000000000E+00 0. -1.
</event>
<event>
 7    1  0.2900470E-011  0.5052887E+02  0.7816164E-02  0.1300439E+00
        -11   -1    0    0    0    0  0.00000000000E+00  0.00000000000E+00  0.45593999997E+02  0.45594000000E+02  0.51100000000E-03 0.  1.
         11   -1    0    0    0    0 -0.00000000000E+00 -0.00000000000E+00 -0.45593999997E+02  0.45594000000E+02  0.51100000000E-03 0. -1.
    9900012    2    1    2    0    0 -0.15934444210E+02  0.75657001259E+01  0.36633575111E+02  0.50528866264E+02  0.30000019497E+02 0.  0.
         12    1    1    2    0    0  0.15934444210E+02 -0.75657001259E+01 -0.36633575111E+02  0.40659133736E+02  0.00000000000E+00 0. -1.
         11    1    3    3    0    0  0.55835361624E+01  0.86805917753E+01  0.65792184044E+01  0.12239880094E+02  0.51100000000E-03 0.  1.
        -11    1    3    3    0    0 -0.19765832287E+02 -0.27803050375E+01  0.29787634131E+02  0.35856957059E+02  0.51100000000E-03 0. -1.
         12    1    3    3    0    0 -0.17521480857E+01  0.16654133881E+01  0.26672257555E+00  0.24320291116E+01  0.00000000000E+00 0. -1.
</event>
<event>
 7    1  0.2900470E-011  0.5052886E+02  0.7816164E-02  0.1300439E+00
        -11   -1    0    0    0    0  0.00000000000E+00  0.00000000000E+00  0.45593999997E+02  0.45594000000E+02  0.51100000000E-03 0.  1.
         11   -1    0    0    0    0 -0.00000000000E+00 -0.00000000000E+00 -0.45593999997E+02  0.45594000000E+02  0.51100000000E-03 0. -1.
    9900012    2    1    2    0    0 -0.25378425427E+02  0.31411372216E+02  0.47357236107E+01  0.50528857612E+02  0.29999993198E+02 0.  0.
         12    1    1    2    0    0  0.25378425427E+02 -0.31411372216E+02 -0.47357236107E+01  0.40659142388E+02  0.00000000000E+00 0. -1.
         11    1    3    3    0    0 -0.15652075600E+02  0.29441834553E+01  0.10236399010E+02  0.18932499882E+02  0.51100000000E-03 0.  1.
        -11    1    3    3    0    0 -0.10487680889E+02  0.26173346449E+02 -0.34121150315E+01  0.28402078164E+02  0.51100000000E-03 0. -1.
         12    1    3    3    0    0  0.76133106319E+00  0.22938423112E+01 -0.20885603681E+01  0.31942795663E+01  0.00000000000E+00 0. -1.
</event>
<event>
 7    1  0.2900470E-011  0.5052894E+02  0.7816164E-02  0.1300439E+00
        -11   -1    0    0    0    0  0.00000000000E+00  0.00000000000E+00  0.45593999997E+02  0.45594000000E+02  0.51100000000E-03 0.  1.
         11   -1    0    0    0    0 -0.00000000000E+00 -0.00000000000E+00 -0.45593999997E+02  0.45594000000E+02  0.51100000000E-03 0. -1.
    9900012    2    1    2    0    0  0.33460982930E+02 -0.78508062720E+01  0.21722950268E+02  0.50528940664E+02  0.30000245641E+02 0.  0.
         12    1    1    2    0    0 -0.33460982930E+02  0.78508062720E+01 -0.21722950268E+02  0.40659059336E+02  0.00000000000E+00 0. -1.
         11    1    3    3    0    0  0.25611310287E+02 -0.13517590356E+02  0.22120864323E+02  0.36441694558E+02  0.51100000000E-03 0. -1.
        -11    1    3    3    0    0  0.13383146576E+01 -0.25553778275E+01  0.17603257286E+01  0.33793178152E+01  0.51100000000E-03 0.  1.
         12    1    3    3    0    0  0.65113579853E+01  0.82221619113E+01 -0.21582397834E+01  0.10707928290E+02  0.00000000000E+00 0. -1.
</event>
<event>
 7    1  0.2900470E-011  0.5052885E+02  0.7816164E-02  0.1300439E+00
        -11   -1    0    0    0    0  0.00000000000E+00  0.00000000000E+00  0.45593999997E+02  0.45594000000E+02  0.51100000000E-03 0. -1.
         11   -1    0    0    0    0 -0.00000000000E+00 -0.00000000000E+00 -0.45593999997E+02  0.45594000000E+02  0.51100000000E-03 0.  1.
    9900012    2    1    2    0    0  0.16327316334E+02 -0.36983920714E+02  0.43329698778E+01  0.50528852468E+02  0.29999977562E+02 0.  0.
         12    1    1    2    0    0 -0.16327316334E+02  0.36983920714E+02 -0.43329698778E+01  0.40659147532E+02  0.00000000000E+00 0. -1.
         11    1    3    3    0    0  0.97015229886E+01 -0.12095213685E+02  0.13555965833E+02  0.20595580893E+02  0.51100000000E-03 0. -1.
        -11    1    3    3    0    0 -0.16780445825E+01 -0.15085182836E+02 -0.23385661358E+01  0.15357326156E+02  0.51100000000E-03 0.  1.
         12    1    3    3    0    0  0.83038379281E+01 -0.98035241924E+01 -0.68844298196E+01  0.14575945419E+02  0.00000000000E+00 0. -1.
</event>
<event>
 7    1  0.2900470E-011  0.5052886E+02  0.7816164E-02  0.1300439E+00
        -11   -1    0    0    0    0  0.00000000000E+00  0.00000000000E+00  0.45593999997E+02  0.45594000000E+02  0.51100000000E-03 0. -1.
         11   -1    0    0    0    0 -0.00000000000E+00 -0.00000000000E+00 -0.45593999997E+02  0.45594000000E+02  0.51100000000E-03 0.  1.
    9900012    2    1    2    0    0  0.37128690055E+02  0.14689594469E+02 -0.76708240611E+01  0.50528863848E+02  0.30000012151E+02 0.  0.
         12    1    1    2    0    0 -0.37128690055E+02 -0.14689594469E+02  0.76708240611E+01  0.40659136152E+02  0.00000000000E+00 0. -1.
         11    1    3    3    0    0 -0.31874313443E+00 -0.27243567694E+01 -0.48669710587E+01  0.55866917348E+01  0.51100000000E-03 0. -1.
        -11    1    3    3    0    0  0.37109049177E+02  0.19934341343E+02 -0.35988800144E+01  0.42277788888E+02  0.51100000000E-03 0.  1.
        -12    1    3    3    0    0  0.33838401278E+00 -0.25203901048E+01  0.79502701198E+00  0.26643832252E+01  0.00000000000E+00 0.  1.
</event>
<event>
 7    1  0.2900470E-011  0.5052874E+02  0.7816164E-02  0.1300439E+00
        -11   -1    0    0    0    0  0.00000000000E+00  0.00000000000E+00  0.45593999997E+02  0.45594000000E+02  0.51100000000E-03 0.  1.
         11   -1    0    0    0    0 -0.00000000000E+00 -0.00000000000E+00 -0.45593999997E+02  0.45594000000E+02  0.51100000000E-03 0. -1.
    9900012    2    1    2    0    0  0.25332993134E+01  0.31924151911E+02  0.25052075111E+02  0.50528738472E+02  0.29999631058E+02 0.  0.
         12    1    1    2    0    0 -0.25332993134E+01 -0.31924151911E+02 -0.25052075111E+02  0.40659261528E+02  0.00000000000E+00 0. -1.
         11    1    3    3    0    0  0.19574044185E+01 -0.36067180886E+01  0.59182524750E+01  0.72017747845E+01  0.51100000000E-03 0. -1.
        -11    1    3    3    0    0 -0.29561050307E+01  0.12952126261E+02  0.15113895009E+02  0.20122772032E+02  0.51100000000E-03 0.  1.
         12    1    3    3    0    0  0.35319999257E+01  0.22578743739E+02  0.40199276262E+01  0.23204191656E+02  0.00000000000E+00 0. -1.
</event>
<event>
 7    1  0.2900470E-011  0.5052886E+02  0.7816164E-02  0.1300439E+00
        -11   -1    0    0    0    0  0.00000000000E+00  0.00000000000E+00  0.45593999997E+02  0.45594000000E+02  0.51100000000E-03 0.  1.
         11   -1    0    0    0    0 -0.00000000000E+00 -0.00000000000E+00 -0.45593999997E+02  0.45594000000E+02  0.51100000000E-03 0. -1.
    9900012    2    1    2    0    0 -0.14909165068E+02 -0.18219770701E+02  0.33149996680E+02  0.50528861700E+02  0.30000005623E+02 0.  0.
         12    1    1    2    0    0  0.14909165068E+02  0.18219770701E+02 -0.33149996680E+02  0.40659138300E+02  0.00000000000E+00 0. -1.
         11    1    3    3    0    0 -0.33954988980E+01 -0.17227140272E+02  0.33666207417E+01  0.17878420238E+02  0.51100000000E-03 0. -1.
        -11    1    3    3    0    0 -0.78003762649E+01 -0.28950786086E+01  0.13646744000E+02  0.15983146502E+02  0.51100000000E-03 0.  1.
         12    1    3    3    0    0 -0.37132899049E+01  0.19024481797E+01  0.16136631938E+02  0.16667294961E+02  0.00000000000E+00 0. -1.
</event>
<event>
 7    1  0.2900470E-011  0.5052877E+02  0.7816164E-02  0.1300439E+00
        -11   -1    0    0    0    0  0.00000000000E+00  0.00000000000E+00  0.45593999997E+02  0.45594000000E+02  0.51100000000E-03 0. -1.
         11   -1    0    0    0    0 -0.00000000000E+00 -0.00000000000E+00 -0.45593999997E+02  0.45594000000E+02  0.51100000000E-03 0.  1.
    9900012    2    1    2    0    0  0.33810589394E-01 -0.27177172164E+02 -0.30241910083E+02  0.50528770353E+02  0.29999727965E+02 0.  0.
         12    1    1    2    0    0 -0.33810589394E-01  0.27177172164E+02  0.30241910083E+02  0.40659229647E+02  0.00000000000E+00 0. -1.
         11    1    3    3    0    0  0.31302968520E+01 -0.35893897837E+00  0.45208664291E+01  0.55105198578E+01  0.51100000000E-03 0. -1.
        -11    1    3    3    0    0 -0.47070803736E+01 -0.10643483985E+02 -0.97221605796E+01  0.15164457247E+02  0.51100000000E-03 0.  1.
         12    1    3    3    0    0  0.16105941110E+01 -0.16174749201E+02 -0.25040615932E+02  0.29853793249E+02  0.00000000000E+00 0. -1.
</event>
<event>
 7    1  0.2900470E-011  0.5052886E+02  0.7816164E-02  0.1300439E+00
        -11   -1    0    0    0    0  0.00000000000E+00  0.00000000000E+00  0.45593999997E+02  0.45594000000E+02  0.51100000000E-03 0.  1.
         11   -1    0    0    0    0 -0.00000000000E+00 -0.00000000000E+00 -0.45593999997E+02  0.45594000000E+02  0.51100000000E-03 0. -1.
    9900012    2    1    2    0    0 -0.25990618583E+02  0.29679011129E+02  0.98391809313E+01  0.50528862806E+02  0.30000008986E+02 0.  0.
         12    1    1    2    0    0  0.25990618583E+02 -0.29679011129E+02 -0.98391809313E+01  0.40659137194E+02  0.00000000000E+00 0. -1.
         11    1    3    3    0    0 -0.33785448881E+00  0.41834875492E+01  0.18982592493E+01  0.46064196692E+01  0.51100000000E-03 0. -1.
        -11    1    3    3    0    0 -0.96642248649E+01  0.19730125443E+02 -0.72415122492E+01  0.23132544005E+02  0.51100000000E-03 0.  1.
        -12    1    3    3    0    0 -0.15988539229E+02  0.57653981371E+01  0.15182433931E+02  0.22789899132E+02  0.00000000000E+00 0.  1.
</event>
<event>
 7    1  0.2900470E-011  0.5052886E+02  0.7816164E-02  0.1300439E+00
        -11   -1    0    0    0    0  0.00000000000E+00  0.00000000000E+00  0.45593999997E+02  0.45594000000E+02  0.51100000000E-03 0.  1.
         11   -1    0    0    0    0 -0.00000000000E+00 -0.00000000000E+00 -0.45593999997E+02  0.45594000000E+02  0.51100000000E-03 0. -1.
    9900012    2    1    2    0    0 -0.39488102675E+02  0.68541936369E+01  0.68465755204E+01  0.50528858105E+02  0.29999994697E+02 0.  0.
         12    1    1    2    0    0  0.39488102675E+02 -0.68541936369E+01 -0.68465755204E+01  0.40659141895E+02  0.00000000000E+00 0. -1.
         11    1    3    3    0    0 -0.72018510413E+01 -0.14151267748E+01 -0.30397681834E+01  0.79441445782E+01  0.51100000000E-03 0. -1.
        -11    1    3    3    0    0 -0.23667599803E+02  0.16819414521E+02  0.90617975767E+01  0.30416511319E+02  0.51100000000E-03 0.  1.
        -12    1    3    3    0    0 -0.86186518303E+01 -0.85500941093E+01  0.82454612715E+00  0.12168202208E+02  0.00000000000E+00 0.  1.
</event>
<event>
 7    1  0.2900470E-011  0.5052886E+02  0.7816164E-02  0.1300439E+00
        -11   -1    0    0    0    0  0.00000000000E+00  0.00000000000E+00  0.45593999997E+02  0.45594000000E+02  0.51100000000E-03 0. -1.
         11   -1    0    0    0    0 -0.00000000000E+00 -0.00000000000E+00 -0.45593999997E+02  0.45594000000E+02  0.51100000000E-03 0.  1.
    9900012    2    1    2    0    0  0.20095043420E+02  0.12350067421E+02 -0.33118431087E+02  0.50528863105E+02  0.30000009895E+02 0.  0.
         12    1    1    2    0    0 -0.20095043420E+02 -0.12350067421E+02  0.33118431087E+02  0.40659136895E+02  0.00000000000E+00 0. -1.
         11    1    3    3    0    0  0.16239940589E+01 -0.29310148280E+01 -0.66730987478E+01  0.74671582134E+01  0.51100000000E-03 0. -1.
        -11    1    3    3    0    0  0.18196633594E+02  0.14156633316E+02 -0.77383044754E+01  0.24318904116E+02  0.51100000000E-03 0.  1.
        -12    1    3    3    0    0  0.27441576711E+00  0.11244489330E+01 -0.18707027864E+02  0.18742800776E+02  0.00000000000E+00 0.  1.
</event>
<event>
 7    1  0.2900470E-011  0.5052886E+02  0.7816164E-02  0.1300439E+00
        -11   -1    0    0    0    0  0.00000000000E+00  0.00000000000E+00  0.45593999997E+02  0.45594000000E+02  0.51100000000E-03 0.  1.
         11   -1    0    0    0    0 -0.00000000000E+00 -0.00000000000E+00 -0.45593999997E+02  0.45594000000E+02  0.51100000000E-03 0. -1.
    9900012    2    1    2    0    0  0.39358711965E+01  0.30831229836E-01  0.40468181528E+02  0.50528858976E+02  0.29999997342E+02 0.  0.
         12    1    1    2    0    0 -0.39358711965E+01 -0.30831229836E-01 -0.40468181528E+02  0.40659141024E+02  0.00000000000E+00 0. -1.
         11    1    3    3    0    0  0.16797132080E+02 -0.25709978425E+01  0.22577524020E+02  0.28257711640E+02  0.51100000000E-03 0. -1.
        -11    1    3    3    0    0 -0.39226873329E+01  0.15508658190E+01  0.65910971675E+01  0.78252937858E+01  0.51100000000E-03 0.  1.
         12    1    3    3    0    0 -0.89385735507E+01  0.10509632533E+01  0.11299560341E+02  0.14445853550E+02  0.00000000000E+00 0. -1.
</event>
<event>
 7    1  0.2900470E-011  0.5052886E+02  0.7816164E-02  0.1300439E+00
        -11   -1    0    0    0    0  0.00000000000E+00  0.00000000000E+00  0.45593999997E+02  0.45594000000E+02  0.51100000000E-03 0. -1.
         11   -1    0    0    0    0 -0.00000000000E+00 -0.00000000000E+00 -0.45593999997E+02  0.45594000000E+02  0.51100000000E-03 0.  1.
    9900012    2    1    2    0    0 -0.19995196667E+02 -0.16331306694E+02 -0.31410931249E+02  0.50528855025E+02  0.29999985335E+02 0.  0.
         12    1    1    2    0    0  0.19995196667E+02  0.16331306694E+02  0.31410931249E+02  0.40659144975E+02  0.00000000000E+00 0. -1.
         11    1    3    3    0    0  0.14210432776E+01  0.66373970424E+00 -0.64553182392E+00  0.16960619059E+01  0.51100000000E-03 0. -1.
        -11    1    3    3    0    0 -0.26075855376E+02 -0.18672935612E+02 -0.22430893361E+02  0.39137881077E+02  0.51100000000E-03 0.  1.
        -12    1    3    3    0    0  0.46596154311E+01  0.16778892131E+01 -0.83345060643E+01  0.96949120426E+01  0.00000000000E+00 0.  1.
</event>
<event>
 7    1  0.2900470E-011  0.5052885E+02  0.7816164E-02  0.1300439E+00
        -11   -1    0    0    0    0  0.00000000000E+00  0.00000000000E+00  0.45593999997E+02  0.45594000000E+02  0.51100000000E-03 0.  1.
         11   -1    0    0    0    0 -0.00000000000E+00 -0.00000000000E+00 -0.45593999997E+02  0.45594000000E+02  0.51100000000E-03 0. -1.
    9900012    2    1    2    0    0 -0.40186475500E+02  0.51867161801E+01  0.33632757992E+01  0.50528850206E+02  0.29999970687E+02 0.  0.
         12    1    1    2    0    0  0.40186475500E+02 -0.51867161801E+01 -0.33632757992E+01  0.40659149794E+02  0.00000000000E+00 0. -1.
         11    1    3    3    0    0 -0.40108275621E+01 -0.35323669387E+01  0.19056690051E+01  0.56741456221E+01  0.51100000000E-03 0. -1.
        -11    1    3    3    0    0 -0.17835304540E+02  0.16423794817E+02  0.47070231852E+01  0.24698080730E+02  0.51100000000E-03 0.  1.
        -12    1    3    3    0    0 -0.18340343398E+02 -0.77047116982E+01 -0.32494163910E+01  0.20156623854E+02  0.00000000000E+00 0.  1.
</event>
<event>
 7    1  0.2900470E-011  0.5052886E+02  0.7816164E-02  0.1300439E+00
        -11   -1    0    0    0    0  0.00000000000E+00  0.00000000000E+00  0.45593999997E+02  0.45594000000E+02  0.51100000000E-03 0.  1.
         11   -1    0    0    0    0 -0.00000000000E+00 -0.00000000000E+00 -0.45593999997E+02  0.45594000000E+02  0.51100000000E-03 0. -1.
    9900012    2    1    2    0    0 -0.30674510826E+02 -0.17437265187E+02  0.20203517717E+02  0.50528856382E+02  0.29999989459E+02 0.  0.
         12    1    1    2    0    0  0.30674510826E+02  0.17437265187E+02 -0.20203517717E+02  0.40659143618E+02  0.00000000000E+00 0. -1.
         11    1    3    3    0    0 -0.21706708962E+02 -0.64433287299E+01  0.16312621283E+02  0.27906976054E+02  0.51100000000E-03 0.  1.
        -11    1    3    3    0    0 -0.12224924520E+01 -0.61732486492E+01 -0.63270709169E+01  0.89238620187E+01  0.51100000000E-03 0. -1.
         12    1    3    3    0    0 -0.77453094119E+01 -0.48206878079E+01  0.10217967351E+02  0.13698018310E+02  0.00000000000E+00 0. -1.
</event>
<event>
 7    1  0.2900470E-011  0.5052885E+02  0.7816164E-02  0.1300439E+00
        -11   -1    0    0    0    0  0.00000000000E+00  0.00000000000E+00  0.45593999997E+02  0.45594000000E+02  0.51100000000E-03 0.  1.
         11   -1    0    0    0    0 -0.00000000000E+00 -0.00000000000E+00 -0.45593999997E+02  0.45594000000E+02  0.51100000000E-03 0. -1.
    9900012    2    1    2    0    0  0.25821032883E+02 -0.23069352953E+02  0.21313032183E+02  0.50528854342E+02  0.29999983259E+02 0.  0.
         12    1    1    2    0    0 -0.25821032883E+02  0.23069352953E+02 -0.21313032183E+02  0.40659145658E+02  0.00000000000E+00 0. -1.
         11    1    3    3    0    0  0.61319420157E+01 -0.78996522022E+01  0.20920079434E+02  0.23187387554E+02  0.51100000000E-03 0. -1.
        -11    1    3    3    0    0  0.94925608486E+01 -0.13666842434E+02  0.24850578547E+01  0.16824589338E+02  0.51100000000E-03 0.  1.
         12    1    3    3    0    0  0.10196530018E+02 -0.15028583167E+01 -0.20921051057E+01  0.10516877450E+02  0.00000000000E+00 0. -1.
</event>
<event>
 7    1  0.2900470E-011  0.5052885E+02  0.7816164E-02  0.1300439E+00
        -11   -1    0    0    0    0  0.00000000000E+00  0.00000000000E+00  0.45593999997E+02  0.45594000000E+02  0.51100000000E-03 0.  1.
         11   -1    0    0    0    0 -0.00000000000E+00 -0.00000000000E+00 -0.45593999997E+02  0.45594000000E+02  0.51100000000E-03 0. -1.
    9900012    2    1    2    0    0 -0.17958216105E+02 -0.35790454454E+02 -0.70506928871E+01  0.50528850650E+02  0.29999972034E+02 0.  0.
         12    1    1    2    0    0  0.17958216105E+02  0.35790454454E+02  0.70506928871E+01  0.40659149350E+02  0.00000000000E+00 0. -1.
         11    1    3    3    0    0 -0.22797817578E+02 -0.24224909296E+02 -0.38971887532E+01  0.33492906669E+02  0.51100000000E-03 0. -1.
        -11    1    3    3    0    0  0.74297110538E+01 -0.96120449738E+01  0.48847697081E+00  0.12158561795E+02  0.51100000000E-03 0.  1.
        -12    1    3    3    0    0 -0.25901095813E+01 -0.19535001848E+01 -0.36419811047E+01  0.48773821854E+01  0.00000000000E+00 0.  1.
</event>
<event>
 7    1  0.2900470E-011  0.5052886E+02  0.7816164E-02  0.1300439E+00
        -11   -1    0    0    0    0  0.00000000000E+00  0.00000000000E+00  0.45593999997E+02  0.45594000000E+02  0.51100000000E-03 0. -1.
         11   -1    0    0    0    0 -0.00000000000E+00 -0.00000000000E+00 -0.45593999997E+02  0.45594000000E+02  0.51100000000E-03 0.  1.
    9900012    2    1    2    0    0  0.10442835810E+02  0.14924835535E+02 -0.36350544703E+02  0.50528860367E+02  0.30000001573E+02 0.  0.
         12    1    1    2    0    0 -0.10442835810E+02 -0.14924835535E+02  0.36350544703E+02  0.40659139633E+02  0.00000000000E+00 0. -1.
         11    1    3    3    0    0 -0.54082392051E+01  0.17648062630E+02 -0.20257503709E+02  0.27405649467E+02  0.51100000000E-03 0. -1.
        -11    1    3    3    0    0  0.84125666265E+01  0.64598076973E+00 -0.82934332706E+01  0.11830875034E+02  0.51100000000E-03 0.  1.
         12    1    3    3    0    0  0.74385083889E+01 -0.33692078654E+01 -0.77996077228E+01  0.11292335866E+02  0.00000000000E+00 0. -1.
</event>
<event>
 7    1  0.2900470E-011  0.5052886E+02  0.7816164E-02  0.1300439E+00
        -11   -1    0    0    0    0  0.00000000000E+00  0.00000000000E+00  0.45593999997E+02  0.45594000000E+02  0.51100000000E-03 0. -1.
         11   -1    0    0    0    0 -0.00000000000E+00 -0.00000000000E+00 -0.45593999997E+02  0.45594000000E+02  0.51100000000E-03 0.  1.
    9900012    2    1    2    0    0 -0.16676034846E+02  0.33230720122E+02 -0.16455838463E+02  0.50528861820E+02  0.30000005988E+02 0.  0.
         12    1    1    2    0    0  0.16676034846E+02 -0.33230720122E+02  0.16455838463E+02  0.40659138180E+02  0.00000000000E+00 0. -1.
         11    1    3    3    0    0 -0.19423786409E+02  0.15303006477E+02 -0.17140922260E+01  0.24787165996E+02  0.51100000000E-03 0. -1.
        -11    1    3    3    0    0  0.40454775604E+01  0.15685189785E+02 -0.71248139268E+01  0.17696158934E+02  0.51100000000E-03 0.  1.
        -12    1    3    3    0    0 -0.12977259973E+01  0.22425238607E+01 -0.76169323100E+01  0.80455368898E+01  0.00000000000E+00 0.  1.
</event>
<event>
 7    1  0.2900470E-011  0.5052886E+02  0.7816164E-02  0.1300439E+00
        -11   -1    0    0    0    0  0.00000000000E+00  0.00000000000E+00  0.45593999997E+02  0.45594000000E+02  0.51100000000E-03 0.  1.
         11   -1    0    0    0    0 -0.00000000000E+00 -0.00000000000E+00 -0.45593999997E+02  0.45594000000E+02  0.51100000000E-03 0. -1.
    9900012    2    1    2    0    0  0.21483384495E+02  0.26075734738E+02  0.22620475349E+02  0.50528860111E+02  0.30000000794E+02 0.  0.
         12    1    1    2    0    0 -0.21483384495E+02 -0.26075734738E+02 -0.22620475349E+02  0.40659139889E+02  0.00000000000E+00 0. -1.
         11    1    3    3    0    0 -0.95331256752E+00  0.11400362991E+01 -0.60254084904E+01  0.62059677208E+01  0.51100000000E-03 0. -1.
        -11    1    3    3    0    0  0.15881975360E+02  0.16244108750E+02  0.16948319166E+02  0.28343495431E+02  0.51100000000E-03 0.  1.
         12    1    3    3    0    0  0.65547217020E+01  0.86915896885E+01  0.11697564673E+02  0.15979396959E+02  0.00000000000E+00 0. -1.
</event>
<event>
 7    1  0.2900470E-011  0.5052886E+02  0.7816164E-02  0.1300439E+00
        -11   -1    0    0    0    0  0.00000000000E+00  0.00000000000E+00  0.45593999997E+02  0.45594000000E+02  0.51100000000E-03 0.  1.
         11   -1    0    0    0    0 -0.00000000000E+00 -0.00000000000E+00 -0.45593999997E+02  0.45594000000E+02  0.51100000000E-03 0. -1.
    9900012    2    1    2    0    0 -0.32211645530E+02 -0.78855152495E+01  0.23524334899E+02  0.50528858458E+02  0.29999995768E+02 0.  0.
         12    1    1    2    0    0  0.32211645530E+02  0.78855152495E+01 -0.23524334899E+02  0.40659141542E+02  0.00000000000E+00 0. -1.
         11    1    3    3    0    0 -0.80287500558E+01  0.35394884390E+01  0.57342859306E+00  0.87930442101E+01  0.51100000000E-03 0. -1.
        -11    1    3    3    0    0 -0.17423113446E+02 -0.10638148228E+02  0.26975688243E+02  0.33829319182E+02  0.51100000000E-03 0.  1.
        -12    1    3    3    0    0 -0.67597820288E+01 -0.78685546019E+00 -0.40247819367E+01  0.79064950661E+01  0.00000000000E+00 0.  1.
</event>
<event>
 7    1  0.2900470E-011  0.5052886E+02  0.7816164E-02  0.1300439E+00
        -11   -1    0    0    0    0  0.00000000000E+00  0.00000000000E+00  0.45593999997E+02  0.45594000000E+02  0.51100000000E-03 0.  1.
         11   -1    0    0    0    0 -0.00000000000E+00 -0.00000000000E+00 -0.45593999997E+02  0.45594000000E+02  0.51100000000E-03 0. -1.
    9900012    2    1    2    0    0 -0.34693874369E+02  0.46301700433E+01  0.20689673534E+02  0.50528856080E+02  0.29999988541E+02 0.  0.
         12    1    1    2    0    0  0.34693874369E+02 -0.46301700433E+01 -0.20689673534E+02  0.40659143920E+02  0.00000000000E+00 0. -1.
         11    1    3    3    0    0 -0.21899866041E+02  0.11844336269E+02  0.76792606303E+01  0.26055008700E+02  0.51100000000E-03 0. -1.
        -11    1    3    3    0    0  0.19908023600E+01  0.65754157093E+00  0.59288023983E+01  0.62885891179E+01  0.51100000000E-03 0.  1.
         12    1    3    3    0    0 -0.14784810688E+02 -0.78717077970E+01  0.70816105054E+01  0.18185258262E+02  0.00000000000E+00 0. -1.
</event>
<event>
 7    1  0.2900470E-011  0.5052885E+02  0.7816164E-02  0.1300439E+00
        -11   -1    0    0    0    0  0.00000000000E+00  0.00000000000E+00  0.45593999997E+02  0.45594000000E+02  0.51100000000E-03 0.  1.
         11   -1    0    0    0    0 -0.00000000000E+00 -0.00000000000E+00 -0.45593999997E+02  0.45594000000E+02  0.51100000000E-03 0. -1.
    9900012    2    1    2    0    0  0.34284802639E+01 -0.31240258156E+02  0.25796471991E+02  0.50528853750E+02  0.29999981459E+02 0.  0.
         12    1    1    2    0    0 -0.34284802639E+01  0.31240258156E+02 -0.25796471991E+02  0.40659146250E+02  0.00000000000E+00 0. -1.
         11    1    3    3    0    0  0.50761437614E+01  0.12983544428E+01  0.86647844168E+01  0.10125781402E+02  0.51100000000E-03 0. -1.
        -11    1    3    3    0    0 -0.63383939235E+01 -0.29430596339E+02  0.17395742893E+02  0.34769916731E+02  0.51100000000E-03 0.  1.
         12    1    3    3    0    0  0.46907304260E+01 -0.31080162602E+01 -0.26405531885E+00  0.56331556179E+01  0.00000000000E+00 0. -1.
</event>
<event>
 7    1  0.2900470E-011  0.5052885E+02  0.7816164E-02  0.1300439E+00
        -11   -1    0    0    0    0  0.00000000000E+00  0.00000000000E+00  0.45593999997E+02  0.45594000000E+02  0.51100000000E-03 0.  1.
         11   -1    0    0    0    0 -0.00000000000E+00 -0.00000000000E+00 -0.45593999997E+02  0.45594000000E+02  0.51100000000E-03 0. -1.
    9900012    2    1    2    0    0 -0.26425849711E+02  0.93039791372E+01  0.29466538550E+02  0.50528850293E+02  0.29999970952E+02 0.  0.
         12    1    1    2    0    0  0.26425849711E+02 -0.93039791372E+01 -0.29466538550E+02  0.40659149707E+02  0.00000000000E+00 0. -1.
         11    1    3    3    0    0 -0.48643022846E+01  0.10318916277E+02  0.22859465201E+02  0.25547927889E+02  0.51100000000E-03 0. -1.
        -11    1    3    3    0    0 -0.79221434151E+00 -0.17229619171E+01  0.34833084346E+01  0.39660609227E+01  0.51100000000E-03 0.  1.
         12    1    3    3    0    0 -0.20769333085E+02  0.70802477732E+00  0.31237649143E+01  0.21014861482E+02  0.00000000000E+00 0. -1.
</event>
<event>
 7    1  0.2900470E-011  0.5052885E+02  0.7816164E-02  0.1300439E+00
        -11   -1    0    0    0    0  0.00000000000E+00  0.00000000000E+00  0.45593999997E+02  0.45594000000E+02  0.51100000000E-03 0. -1.
         11   -1    0    0    0    0 -0.00000000000E+00 -0.00000000000E+00 -0.45593999997E+02  0.45594000000E+02  0.51100000000E-03 0.  1.
    9900012    2    1    2    0    0  0.17223117350E+02 -0.35652590823E+02  0.92424631173E+01  0.50528854312E+02  0.29999983166E+02 0.  0.
         12    1    1    2    0    0 -0.17223117350E+02  0.35652590823E+02 -0.92424631173E+01  0.40659145688E+02  0.00000000000E+00 0. -1.
         11    1    3    3    0    0  0.66934547462E+01 -0.10216359291E+02  0.13551417070E+02  0.18243279269E+02  0.51100000000E-03 0. -1.
        -11    1    3    3    0    0  0.14922519621E+02 -0.20045041220E+02 -0.26015580278E+01  0.25124756194E+02  0.51100000000E-03 0.  1.
         12    1    3    3    0    0 -0.43928570175E+01 -0.53911903109E+01 -0.17073959247E+01  0.71608188490E+01  0.00000000000E+00 0. -1.
</event>
<event>
 7    1  0.2900470E-011  0.5052886E+02  0.7816164E-02  0.1300439E+00
        -11   -1    0    0    0    0  0.00000000000E+00  0.00000000000E+00  0.45593999997E+02  0.45594000000E+02  0.51100000000E-03 0.  1.
         11   -1    0    0    0    0 -0.00000000000E+00 -0.00000000000E+00 -0.45593999997E+02  0.45594000000E+02  0.51100000000E-03 0. -1.
    9900012    2    1    2    0    0  0.15689152966E+01 -0.11583316480E+02  0.38942664429E+02  0.50528857993E+02  0.29999994357E+02 0.  0.
         12    1    1    2    0    0 -0.15689152966E+01  0.11583316480E+02 -0.38942664429E+02  0.40659142007E+02  0.00000000000E+00 0. -1.
         11    1    3    3    0    0  0.14305532620E+01 -0.64440056769E+00 -0.34060677935E+01  0.37500710397E+01  0.51100000000E-03 0. -1.
        -11    1    3    3    0    0 -0.91717764247E+00 -0.15110837412E+02  0.28421648853E+02  0.32201999098E+02  0.51100000000E-03 0.  1.
        -12    1    3    3    0    0  0.10555396770E+01  0.41719214999E+01  0.13927083370E+02  0.14576787856E+02  0.00000000000E+00 0.  1.
</event>
<event>
 7    1  0.2900470E-011  0.5052883E+02  0.7816164E-02  0.1300439E+00
        -11   -1    0    0    0    0  0.00000000000E+00  0.00000000000E+00  0.45593999997E+02  0.45594000000E+02  0.51100000000E-03 0.  1.
         11   -1    0    0    0    0 -0.00000000000E+00 -0.00000000000E+00 -0.45593999997E+02  0.45594000000E+02  0.51100000000E-03 0. -1.
    9900012    2    1    2    0    0 -0.14853512521E+02  0.58426095935E+01  0.37395261323E+02  0.50528825261E+02  0.29999894862E+02 0.  0.
         12    1    1    2    0    0  0.14853512521E+02 -0.58426095935E+01 -0.37395261323E+02  0.40659174739E+02  0.00000000000E+00 0. -1.
         11    1    3    3    0    0  0.16248008860E+01  0.11049602434E+02  0.18134290311E+02  0.21297562706E+02  0.51100000000E-03 0. -1.
        -11    1    3    3    0    0 -0.13552963727E+02 -0.52891755115E+01  0.21206417438E+02  0.25717121615E+02  0.51100000000E-03 0.  1.
         12    1    3    3    0    0 -0.29253496800E+01  0.82182670593E-01 -0.19454464262E+01  0.35141409389E+01  0.00000000000E+00 0. -1.
</event>
<event>
 7    1  0.2900470E-011  0.5052885E+02  0.7816164E-02  0.1300439E+00
        -11   -1    0    0    0    0  0.00000000000E+00  0.00000000000E+00  0.45593999997E+02  0.45594000000E+02  0.51100000000E-03 0.  1.
         11   -1    0    0    0    0 -0.00000000000E+00 -0.00000000000E+00 -0.45593999997E+02  0.45594000000E+02  0.51100000000E-03 0. -1.
    9900012    2    1    2    0    0 -0.27798125487E+02  0.10286959705E+02  0.27831796048E+02  0.50528853528E+02  0.29999980785E+02 0.  0.
         12    1    1    2    0    0  0.27798125487E+02 -0.10286959705E+02 -0.27831796048E+02  0.40659146472E+02  0.00000000000E+00 0. -1.
         11    1    3    3    0    0  0.17591531815E+01  0.70130992530E+01 -0.37820415301E+00  0.72402499743E+01  0.51100000000E-03 0. -1.
        -11    1    3    3    0    0 -0.18974821152E+02  0.25171278680E+01  0.26269171885E+02  0.32503063890E+02  0.51100000000E-03 0.  1.
        -12    1    3    3    0    0 -0.10582457516E+02  0.75673258396E+00  0.19408283157E+01  0.10785539664E+02  0.00000000000E+00 0.  1.
</event>
<event>
 7    1  0.2900470E-011  0.5052889E+02  0.7816164E-02  0.1300439E+00
        -11   -1    0    0    0    0  0.00000000000E+00  0.00000000000E+00  0.45593999997E+02  0.45594000000E+02  0.51100000000E-03 0.  1.
         11   -1    0    0    0    0 -0.00000000000E+00 -0.00000000000E+00 -0.45593999997E+02  0.45594000000E+02  0.51100000000E-03 0. -1.
    9900012    2    1    2    0    0  0.32576448468E+02  0.47831601306E+01  0.23854970893E+02  0.50528889681E+02  0.30000090673E+02 0.  0.
         12    1    1    2    0    0 -0.32576448468E+02 -0.47831601306E+01 -0.23854970893E+02  0.40659110319E+02  0.00000000000E+00 0. -1.
         11    1    3    3    0    0  0.66772616707E+01 -0.30299190951E+01  0.95211746611E+00  0.73941031283E+01  0.51100000000E-03 0. -1.
        -11    1    3    3    0    0  0.58865087601E+01 -0.18241252777E+01  0.19763218309E+02  0.20701768442E+02  0.51100000000E-03 0.  1.
        -12    1    3    3    0    0  0.20012678038E+02  0.96372045035E+01  0.31396351181E+01  0.22433018111E+02  0.00000000000E+00 0.  1.
</event>
<event>
 7    1  0.2900470E-011  0.5052886E+02  0.7816164E-02  0.1300439E+00
        -11   -1    0    0    0    0  0.00000000000E+00  0.00000000000E+00  0.45593999997E+02  0.45594000000E+02  0.51100000000E-03 0. -1.
         11   -1    0    0    0    0 -0.00000000000E+00 -0.00000000000E+00 -0.45593999997E+02  0.45594000000E+02  0.51100000000E-03 0.  1.
    9900012    2    1    2    0    0  0.28281200931E+02 -0.33835093490E+01 -0.29015365003E+02  0.50528857512E+02  0.29999992893E+02 0.  0.
         12    1    1    2    0    0 -0.28281200931E+02  0.33835093490E+01  0.29015365003E+02  0.40659142488E+02  0.00000000000E+00 0. -1.
         11    1    3    3    0    0  0.10270234168E+02  0.29927890758E+01 -0.26915625808E+02  0.28963518592E+02  0.51100000000E-03 0.  1.
        -11    1    3    3    0    0  0.10148275542E+02 -0.59586672566E+01  0.30498886701E+01  0.12157098055E+02  0.51100000000E-03 0. -1.
         12    1    3    3    0    0  0.78626912217E+01 -0.41763116829E+00 -0.51496278647E+01  0.94082408656E+01  0.00000000000E+00 0. -1.
</event>
<event>
 7    1  0.2900470E-011  0.5052885E+02  0.7816164E-02  0.1300439E+00
        -11   -1    0    0    0    0  0.00000000000E+00  0.00000000000E+00  0.45593999997E+02  0.45594000000E+02  0.51100000000E-03 0.  1.
         11   -1    0    0    0    0 -0.00000000000E+00 -0.00000000000E+00 -0.45593999997E+02  0.45594000000E+02  0.51100000000E-03 0. -1.
    9900012    2    1    2    0    0 -0.89555433111E+01 -0.18230268191E+02  0.35222464248E+02  0.50528850698E+02  0.29999972180E+02 0.  0.
         12    1    1    2    0    0  0.89555433111E+01  0.18230268191E+02 -0.35222464248E+02  0.40659149302E+02  0.00000000000E+00 0. -1.
         11    1    3    3    0    0  0.37706108942E+01  0.31188040767E+01  0.10593329603E+02  0.11668893595E+02  0.51100000000E-03 0. -1.
        -11    1    3    3    0    0 -0.34899927932E+01 -0.14667328351E+02  0.45121179642E+01  0.15737527743E+02  0.51100000000E-03 0.  1.
        -12    1    3    3    0    0 -0.92361614121E+01 -0.66817439162E+01  0.20117016681E+02  0.23122429360E+02  0.00000000000E+00 0.  1.
</event>
<event>
 7    1  0.2900470E-011  0.5052882E+02  0.7816164E-02  0.1300439E+00
        -11   -1    0    0    0    0  0.00000000000E+00  0.00000000000E+00  0.45593999997E+02  0.45594000000E+02  0.51100000000E-03 0.  1.
         11   -1    0    0    0    0 -0.00000000000E+00 -0.00000000000E+00 -0.45593999997E+02  0.45594000000E+02  0.51100000000E-03 0. -1.
    9900012    2    1    2    0    0  0.34757257462E+02 -0.10618353485E+02  0.18230531687E+02  0.50528823144E+02  0.29999888429E+02 0.  0.
         12    1    1    2    0    0 -0.34757257462E+02  0.10618353485E+02 -0.18230531687E+02  0.40659176856E+02  0.00000000000E+00 0. -1.
         11    1    3    3    0    0  0.13562209132E+02 -0.11316916703E+02  0.22237455329E+01  0.17803122328E+02  0.51100000000E-03 0. -1.
        -11    1    3    3    0    0  0.12711899236E+02  0.65509850052E+01  0.17180009395E+02  0.22353087254E+02  0.51100000000E-03 0.  1.
        -12    1    3    3    0    0  0.84831490940E+01 -0.58524217874E+01 -0.11732232408E+01  0.10372613562E+02  0.00000000000E+00 0.  1.
</event>
<event>
 7    1  0.2900470E-011  0.5052887E+02  0.7816164E-02  0.1300439E+00
        -11   -1    0    0    0    0  0.00000000000E+00  0.00000000000E+00  0.45593999997E+02  0.45594000000E+02  0.51100000000E-03 0.  1.
         11   -1    0    0    0    0 -0.00000000000E+00 -0.00000000000E+00 -0.45593999997E+02  0.45594000000E+02  0.51100000000E-03 0. -1.
    9900012    2    1    2    0    0 -0.29513915746E+02  0.24473735616E+02 -0.13532562927E+02  0.50528865515E+02  0.30000017220E+02 0.  0.
         12    1    1    2    0    0  0.29513915746E+02 -0.24473735616E+02  0.13532562927E+02  0.40659134485E+02  0.00000000000E+00 0. -1.
         11    1    3    3    0    0 -0.85529100636E+01  0.13658586011E+02 -0.18981921085E+02  0.24900252423E+02  0.51100000000E-03 0. -1.
        -11    1    3    3    0    0 -0.19071419493E+02  0.11797921683E+02  0.63632278427E+01  0.23310955930E+02  0.51100000000E-03 0.  1.
        -12    1    3    3    0    0 -0.18895861896E+01 -0.98277207807E+00 -0.91386968470E+00  0.23176571632E+01  0.00000000000E+00 0.  1.
</event>
<event>
 7    1  0.2900470E-011  0.5052886E+02  0.7816164E-02  0.1300439E+00
        -11   -1    0    0    0    0  0.00000000000E+00  0.00000000000E+00  0.45593999997E+02  0.45594000000E+02  0.51100000000E-03 0.  1.
         11   -1    0    0    0    0 -0.00000000000E+00 -0.00000000000E+00 -0.45593999997E+02  0.45594000000E+02  0.51100000000E-03 0. -1.
    9900012    2    1    2    0    0 -0.37362932092E+02 -0.15592099383E+02 -0.37501677051E+01  0.50528855696E+02  0.29999987375E+02 0.  0.
         12    1    1    2    0    0  0.37362932092E+02  0.15592099383E+02  0.37501677051E+01  0.40659144304E+02  0.00000000000E+00 0. -1.
         11    1    3    3    0    0  0.13651056575E+01  0.45743583408E+01 -0.64165784146E+00  0.48166370771E+01  0.51100000000E-03 0. -1.
        -11    1    3    3    0    0 -0.15404320205E+02 -0.12260944274E+02 -0.67590091888E+01  0.20816052482E+02  0.51100000000E-03 0.  1.
         12    1    3    3    0    0 -0.23323717545E+02 -0.79055134496E+01  0.36504993252E+01  0.24896166137E+02  0.00000000000E+00 0. -1.
</event>
<event>
 7    1  0.2900470E-011  0.5052886E+02  0.7816164E-02  0.1300439E+00
        -11   -1    0    0    0    0  0.00000000000E+00  0.00000000000E+00  0.45593999997E+02  0.45594000000E+02  0.51100000000E-03 0. -1.
         11   -1    0    0    0    0 -0.00000000000E+00 -0.00000000000E+00 -0.45593999997E+02  0.45594000000E+02  0.51100000000E-03 0.  1.
    9900012    2    1    2    0    0 -0.12867892838E+02  0.20493642090E+02 -0.32674046785E+02  0.50528863690E+02  0.30000011671E+02 0.  0.
         12    1    1    2    0    0  0.12867892838E+02 -0.20493642090E+02  0.32674046785E+02  0.40659136310E+02  0.00000000000E+00 0. -1.
         11    1    3    3    0    0  0.25983776709E+01 -0.11565639901E+01 -0.49411615424E+01  0.57012528827E+01  0.51100000000E-03 0. -1.
        -11    1    3    3    0    0 -0.12516155365E+02  0.23904985378E+02 -0.30099996801E+02  0.40424154645E+02  0.51100000000E-03 0.  1.
        -12    1    3    3    0    0 -0.29501151433E+01 -0.22547792979E+01  0.23671115585E+01  0.44034561621E+01  0.00000000000E+00 0.  1.
</event>
<event>
 7    1  0.2900470E-011  0.5052887E+02  0.7816164E-02  0.1300439E+00
        -11   -1    0    0    0    0  0.00000000000E+00  0.00000000000E+00  0.45593999997E+02  0.45594000000E+02  0.51100000000E-03 0.  1.
         11   -1    0    0    0    0 -0.00000000000E+00 -0.00000000000E+00 -0.45593999997E+02  0.45594000000E+02  0.51100000000E-03 0. -1.
    9900012    2    1    2    0    0 -0.10768672037E+01  0.20571602620E+02  0.35054453904E+02  0.50528865530E+02  0.30000017265E+02 0.  0.
         12    1    1    2    0    0  0.10768672037E+01 -0.20571602620E+02 -0.35054453904E+02  0.40659134470E+02  0.00000000000E+00 0. -1.
         11    1    3    3    0    0 -0.32193875352E+01 -0.87166770494E+00  0.42079030445E+01  0.53694235243E+01  0.51100000000E-03 0. -1.
        -11    1    3    3    0    0  0.12459205712E+02  0.16929997727E+02  0.15464598512E+02  0.26096176682E+02  0.51100000000E-03 0.  1.
        -12    1    3    3    0    0 -0.10316685381E+02  0.45132725976E+01  0.15381952348E+02  0.19063265324E+02  0.00000000000E+00 0.  1.
</event>
<event>
 7    1  0.2900470E-011  0.5052886E+02  0.7816164E-02  0.1300439E+00
        -11   -1    0    0    0    0  0.00000000000E+00  0.00000000000E+00  0.45593999997E+02  0.45594000000E+02  0.51100000000E-03 0. -1.
         11   -1    0    0    0    0 -0.00000000000E+00 -0.00000000000E+00 -0.45593999997E+02  0.45594000000E+02  0.51100000000E-03 0.  1.
    9900012    2    1    2    0    0  0.40943399915E+01 -0.24671641259E+02 -0.32057951127E+02  0.50528859173E+02  0.29999997941E+02 0.  0.
         12    1    1    2    0    0 -0.40943399915E+01  0.24671641259E+02  0.32057951127E+02  0.40659140827E+02  0.00000000000E+00 0. -1.
         11    1    3    3    0    0  0.15247362094E+01 -0.62168151268E+01  0.39174848253E+01  0.75046850997E+01  0.51100000000E-03 0. -1.
        -11    1    3    3    0    0  0.75940843815E+01 -0.12439917152E+02 -0.16412752929E+02  0.21949945679E+02  0.51100000000E-03 0.  1.
         12    1    3    3    0    0 -0.50244805994E+01 -0.60149089801E+01 -0.19562683023E+02  0.21074228394E+02  0.00000000000E+00 0. -1.
</event>
<event>
 7    1  0.2900470E-011  0.5052887E+02  0.7816164E-02  0.1300439E+00
        -11   -1    0    0    0    0  0.00000000000E+00  0.00000000000E+00  0.45593999997E+02  0.45594000000E+02  0.51100000000E-03 0.  1.
         11   -1    0    0    0    0 -0.00000000000E+00 -0.00000000000E+00 -0.45593999997E+02  0.45594000000E+02  0.51100000000E-03 0. -1.
    9900012    2    1    2    0    0 -0.81006056265E+01 -0.34557000841E+02  0.19833275357E+02  0.50528869045E+02  0.30000027949E+02 0.  0.
         12    1    1    2    0    0  0.81006056265E+01  0.34557000841E+02 -0.19833275357E+02  0.40659130955E+02  0.00000000000E+00 0. -1.
         11    1    3    3    0    0 -0.14132653250E+01 -0.57141526894E+01  0.18888970780E+02  0.19784895178E+02  0.51100000000E-03 0.  1.
        -11    1    3    3    0    0 -0.56486199041E+01 -0.10442584946E+02 -0.21234708021E+01  0.12060829809E+02  0.51100000000E-03 0. -1.
         12    1    3    3    0    0 -0.10387203974E+01 -0.18400263206E+02  0.30677753798E+01  0.18683144058E+02  0.00000000000E+00 0. -1.
</event>
<event>
 7    1  0.2900470E-011  0.5052886E+02  0.7816164E-02  0.1300439E+00
        -11   -1    0    0    0    0  0.00000000000E+00  0.00000000000E+00  0.45593999997E+02  0.45594000000E+02  0.51100000000E-03 0. -1.
         11   -1    0    0    0    0 -0.00000000000E+00 -0.00000000000E+00 -0.45593999997E+02  0.45594000000E+02  0.51100000000E-03 0.  1.
    9900012    2    1    2    0    0  0.14997805442E+02 -0.10269277735E+02 -0.36369952380E+02  0.50528859952E+02  0.30000000311E+02 0.  0.
         12    1    1    2    0    0 -0.14997805442E+02  0.10269277735E+02  0.36369952380E+02  0.40659140048E+02  0.00000000000E+00 0. -1.
         11    1    3    3    0    0 -0.57628702702E+01  0.55159402592E+01 -0.61531392268E+01  0.10074591471E+02  0.51100000000E-03 0. -1.
        -11    1    3    3    0    0  0.88885594900E+01 -0.69029281096E+01 -0.18064659023E+02  0.21283533827E+02  0.51100000000E-03 0.  1.
         12    1    3    3    0    0  0.11872116222E+02 -0.88822898843E+01 -0.12152154130E+02  0.19170734654E+02  0.00000000000E+00 0. -1.
</event>
<event>
 7    1  0.2900470E-011  0.5052880E+02  0.7816164E-02  0.1300439E+00
        -11   -1    0    0    0    0  0.00000000000E+00  0.00000000000E+00  0.45593999997E+02  0.45594000000E+02  0.51100000000E-03 0. -1.
         11   -1    0    0    0    0 -0.00000000000E+00 -0.00000000000E+00 -0.45593999997E+02  0.45594000000E+02  0.51100000000E-03 0.  1.
    9900012    2    1    2    0    0 -0.13746907381E+01  0.30874546869E+02 -0.26420501154E+02  0.50528803006E+02  0.29999827216E+02 0.  0.
         12    1    1    2    0    0  0.13746907381E+01 -0.30874546869E+02  0.26420501154E+02  0.40659196994E+02  0.00000000000E+00 0. -1.
         11    1    3    3    0    0 -0.66531733051E+00  0.19757126530E+02  0.14576598865E+01  0.19821994564E+02  0.51100000000E-03 0. -1.
        -11    1    3    3    0    0 -0.15202494470E+01  0.28880350360E+01 -0.15367457640E+02  0.15710208761E+02  0.51100000000E-03 0.  1.
         12    1    3    3    0    0  0.81087603941E+00  0.82293853025E+01 -0.12510703401E+02  0.14996599681E+02  0.00000000000E+00 0. -1.
</event>
<event>
 7    1  0.2900470E-011  0.5052886E+02  0.7816164E-02  0.1300439E+00
        -11   -1    0    0    0    0  0.00000000000E+00  0.00000000000E+00  0.45593999997E+02  0.45594000000E+02  0.51100000000E-03 0. -1.
         11   -1    0    0    0    0 -0.00000000000E+00 -0.00000000000E+00 -0.45593999997E+02  0.45594000000E+02  0.51100000000E-03 0.  1.
    9900012    2    1    2    0    0  0.16096858534E+02  0.37139046205E+02 -0.38403528154E+01  0.50528856903E+02  0.29999991041E+02 0.  0.
         12    1    1    2    0    0 -0.16096858534E+02 -0.37139046205E+02  0.38403528154E+01  0.40659143097E+02  0.00000000000E+00 0. -1.
         11    1    3    3    0    0  0.12543533323E+02  0.33241358697E+02  0.50262095563E+01  0.35883017418E+02  0.51100000000E-03 0. -1.
        -11    1    3    3    0    0  0.35653050682E+01  0.21148759490E+01 -0.11064607128E+02  0.11815651978E+02  0.51100000000E-03 0.  1.
        -12    1    3    3    0    0 -0.11979856481E-01  0.17828115588E+01  0.21980447566E+01  0.28301875067E+01  0.00000000000E+00 0.  1.
</event>
<event>
 7    1  0.2900470E-011  0.5052886E+02  0.7816164E-02  0.1300439E+00
        -11   -1    0    0    0    0  0.00000000000E+00  0.00000000000E+00  0.45593999997E+02  0.45594000000E+02  0.51100000000E-03 0. -1.
         11   -1    0    0    0    0 -0.00000000000E+00 -0.00000000000E+00 -0.45593999997E+02  0.45594000000E+02  0.51100000000E-03 0.  1.
    9900012    2    1    2    0    0  0.25142187881E+02 -0.29028023448E+02 -0.13357006733E+02  0.50528863443E+02  0.30000010921E+02 0.  0.
         12    1    1    2    0    0 -0.25142187881E+02  0.29028023448E+02  0.13357006733E+02  0.40659136557E+02  0.00000000000E+00 0. -1.
         11    1    3    3    0    0 -0.34308203967E+01  0.15683114979E+01 -0.27592820349E+01  0.46737316096E+01  0.51100000000E-03 0. -1.
        -11    1    3    3    0    0  0.98543343480E+01 -0.18357989381E+02  0.59950532603E+00  0.20844257877E+02  0.51100000000E-03 0.  1.
        -12    1    3    3    0    0  0.18718673930E+02 -0.12238345565E+02 -0.11197230024E+02  0.25010873956E+02  0.00000000000E+00 0.  1.
</event>
<event>
 7    1  0.2900470E-011  0.5052884E+02  0.7816164E-02  0.1300439E+00
        -11   -1    0    0    0    0  0.00000000000E+00  0.00000000000E+00  0.45593999997E+02  0.45594000000E+02  0.51100000000E-03 0.  1.
         11   -1    0    0    0    0 -0.00000000000E+00 -0.00000000000E+00 -0.45593999997E+02  0.45594000000E+02  0.51100000000E-03 0. -1.
    9900012    2    1    2    0    0 -0.30114624689E+02 -0.11602489633E+02  0.24731731787E+02  0.50528844291E+02  0.29999952706E+02 0.  0.
         12    1    1    2    0    0  0.30114624689E+02  0.11602489633E+02 -0.24731731787E+02  0.40659155709E+02  0.00000000000E+00 0. -1.
         11    1    3    3    0    0 -0.23611593029E+02 -0.20571879618E+01  0.16851304590E+02  0.29081021548E+02  0.51100000000E-03 0. -1.
        -11    1    3    3    0    0 -0.64194873128E+01 -0.14047169770E+02  0.60392549623E+01  0.16583286666E+02  0.51100000000E-03 0.  1.
         12    1    3    3    0    0 -0.83544347164E-01  0.45018680987E+01  0.18411722348E+01  0.48645360759E+01  0.00000000000E+00 0. -1.
</event>
<event>
 7    1  0.2900470E-011  0.5052888E+02  0.7816164E-02  0.1300439E+00
        -11   -1    0    0    0    0  0.00000000000E+00  0.00000000000E+00  0.45593999997E+02  0.45594000000E+02  0.51100000000E-03 0.  1.
         11   -1    0    0    0    0 -0.00000000000E+00 -0.00000000000E+00 -0.45593999997E+02  0.45594000000E+02  0.51100000000E-03 0. -1.
    9900012    2    1    2    0    0  0.40541101527E+02  0.15491877477E+01 -0.26800890384E+01  0.50528883273E+02  0.30000071198E+02 0.  0.
         12    1    1    2    0    0 -0.40541101527E+02 -0.15491877477E+01  0.26800890384E+01  0.40659116727E+02  0.00000000000E+00 0. -1.
         11    1    3    3    0    0  0.10411243010E+02  0.62519002969E+01 -0.82061578280E+01  0.14656782215E+02  0.51100000000E-03 0. -1.
        -11    1    3    3    0    0  0.18525052576E+02  0.30316839799E+01  0.99444075589E+01  0.21242879340E+02  0.51100000000E-03 0.  1.
        -12    1    3    3    0    0  0.11604805942E+02 -0.77343965291E+01 -0.44183387694E+01  0.14629221719E+02  0.00000000000E+00 0.  1.
</event>
<event>
 7    1  0.2900470E-011  0.5052886E+02  0.7816164E-02  0.1300439E+00
        -11   -1    0    0    0    0  0.00000000000E+00  0.00000000000E+00  0.45593999997E+02  0.45594000000E+02  0.51100000000E-03 0.  1.
         11   -1    0    0    0    0 -0.00000000000E+00 -0.00000000000E+00 -0.45593999997E+02  0.45594000000E+02  0.51100000000E-03 0. -1.
    9900012    2    1    2    0    0  0.31968515285E+02 -0.17977734133E+01  0.25058881998E+02  0.50528861718E+02  0.30000005679E+02 0.  0.
         12    1    1    2    0    0 -0.31968515285E+02  0.17977734133E+01 -0.25058881998E+02  0.40659138282E+02  0.00000000000E+00 0. -1.
         11    1    3    3    0    0  0.13746484526E+02 -0.73035297721E+01 -0.31399847511E+01  0.15879763488E+02  0.51100000000E-03 0. -1.
        -11    1    3    3    0    0  0.15640863720E+02  0.25771556294E+01  0.25000627933E+02  0.29602529392E+02  0.51100000000E-03 0.  1.
        -12    1    3    3    0    0  0.25811670395E+01  0.29286007294E+01  0.31982388161E+01  0.50465688386E+01  0.00000000000E+00 0.  1.
</event>
<event>
 7    1  0.2900470E-011  0.5052886E+02  0.7816164E-02  0.1300439E+00
        -11   -1    0    0    0    0  0.00000000000E+00  0.00000000000E+00  0.45593999997E+02  0.45594000000E+02  0.51100000000E-03 0. -1.
         11   -1    0    0    0    0 -0.00000000000E+00 -0.00000000000E+00 -0.45593999997E+02  0.45594000000E+02  0.51100000000E-03 0.  1.
    9900012    2    1    2    0    0 -0.38576103965E+02  0.95944682383E+01 -0.85437691949E+01  0.50528860684E+02  0.30000002535E+02 0.  0.
         12    1    1    2    0    0  0.38576103965E+02 -0.95944682383E+01  0.85437691949E+01  0.40659139316E+02  0.00000000000E+00 0. -1.
         11    1    3    3    0    0 -0.15228301700E+01  0.21053874129E+01  0.23504415009E+01  0.35037470508E+01  0.51100000000E-03 0. -1.
        -11    1    3    3    0    0 -0.22888191953E+02 -0.50478172024E+01 -0.14786443531E+02  0.27712609078E+02  0.51100000000E-03 0.  1.
        -12    1    3    3    0    0 -0.14165081842E+02  0.12536898028E+02  0.38922328349E+01  0.19312504555E+02  0.00000000000E+00 0.  1.
</event>
<event>
 7    1  0.2900470E-011  0.5052886E+02  0.7816164E-02  0.1300439E+00
        -11   -1    0    0    0    0  0.00000000000E+00  0.00000000000E+00  0.45593999997E+02  0.45594000000E+02  0.51100000000E-03 0.  1.
         11   -1    0    0    0    0 -0.00000000000E+00 -0.00000000000E+00 -0.45593999997E+02  0.45594000000E+02  0.51100000000E-03 0. -1.
    9900012    2    1    2    0    0  0.17129729059E+01 -0.24808295199E+02  0.32167995268E+02  0.50528859497E+02  0.29999998927E+02 0.  0.
         12    1    1    2    0    0 -0.17129729059E+01  0.24808295199E+02 -0.32167995268E+02  0.40659140503E+02  0.00000000000E+00 0. -1.
         11    1    3    3    0    0 -0.15051610413E+01 -0.20970538485E+02  0.35230668299E+02  0.41027173717E+02  0.51100000000E-03 0. -1.
        -11    1    3    3    0    0  0.73721467071E+00 -0.52761161881E+01 -0.29460094061E-01  0.53274530180E+01  0.51100000000E-03 0.  1.
         12    1    3    3    0    0  0.24809192765E+01  0.14383594735E+01 -0.30332129370E+01  0.41742327622E+01  0.00000000000E+00 0. -1.
</event>
<event>
 7    1  0.2900470E-011  0.5052885E+02  0.7816164E-02  0.1300439E+00
        -11   -1    0    0    0    0  0.00000000000E+00  0.00000000000E+00  0.45593999997E+02  0.45594000000E+02  0.51100000000E-03 0. -1.
         11   -1    0    0    0    0 -0.00000000000E+00 -0.00000000000E+00 -0.45593999997E+02  0.45594000000E+02  0.51100000000E-03 0.  1.
    9900012    2    1    2    0    0  0.10576492547E+02  0.31711860890E+02 -0.23144371707E+02  0.50528852721E+02  0.29999978332E+02 0.  0.
         12    1    1    2    0    0 -0.10576492547E+02 -0.31711860890E+02  0.23144371707E+02  0.40659147279E+02  0.00000000000E+00 0. -1.
         11    1    3    3    0    0  0.14271006391E+01  0.25445222368E+02 -0.40451700906E+01  0.25804250792E+02  0.51100000000E-03 0. -1.
        -11    1    3    3    0    0  0.10183624790E+02  0.68264582473E+01 -0.10787896132E+02  0.16330506706E+02  0.51100000000E-03 0.  1.
         12    1    3    3    0    0 -0.10342328813E+01 -0.55981972502E+00 -0.83113054841E+01  0.83940952238E+01  0.00000000000E+00 0. -1.
</event>
<event>
 7    1  0.2900470E-011  0.5052886E+02  0.7816164E-02  0.1300439E+00
        -11   -1    0    0    0    0  0.00000000000E+00  0.00000000000E+00  0.45593999997E+02  0.45594000000E+02  0.51100000000E-03 0. -1.
         11   -1    0    0    0    0 -0.00000000000E+00 -0.00000000000E+00 -0.45593999997E+02  0.45594000000E+02  0.51100000000E-03 0.  1.
    9900012    2    1    2    0    0  0.27247771446E+02  0.22664479210E+02 -0.19926007980E+02  0.50528862520E+02  0.30000008117E+02 0.  0.
         12    1    1    2    0    0 -0.27247771446E+02 -0.22664479210E+02  0.19926007980E+02  0.40659137480E+02  0.00000000000E+00 0. -1.
         11    1    3    3    0    0  0.75601165390E+01 -0.71585059354E+01 -0.60539096413E+01  0.12043645275E+02  0.51100000000E-03 0. -1.
        -11    1    3    3    0    0  0.14225657033E+02  0.22108461673E+02 -0.11757687174E+02  0.28799246579E+02  0.51100000000E-03 0.  1.
         12    1    3    3    0    0  0.54619978736E+01  0.77145234720E+01 -0.21144111639E+01  0.96859706660E+01  0.00000000000E+00 0. -1.
</event>
<event>
 7    1  0.2900470E-011  0.5052884E+02  0.7816164E-02  0.1300439E+00
        -11   -1    0    0    0    0  0.00000000000E+00  0.00000000000E+00  0.45593999997E+02  0.45594000000E+02  0.51100000000E-03 0. -1.
         11   -1    0    0    0    0 -0.00000000000E+00 -0.00000000000E+00 -0.45593999997E+02  0.45594000000E+02  0.51100000000E-03 0.  1.
    9900012    2    1    2    0    0 -0.37525760835E+01  0.32816664877E+02 -0.23709737493E+02  0.50528843923E+02  0.29999951589E+02 0.  0.
         12    1    1    2    0    0  0.37525760835E+01 -0.32816664877E+02  0.23709737493E+02  0.40659156077E+02  0.00000000000E+00 0. -1.
         11    1    3    3    0    0  0.40387536760E+01 -0.36263053371E+01 -0.36193045982E+00  0.54399095188E+01  0.51100000000E-03 0. -1.
        -11    1    3    3    0    0 -0.60825815768E+01  0.36351553490E+02 -0.22158323783E+02  0.43004936379E+02  0.51100000000E-03 0.  1.
        -12    1    3    3    0    0 -0.17087481827E+01  0.91416723268E-01 -0.11894832501E+01  0.20839980258E+01  0.00000000000E+00 0.  1.
</event>
<event>
 7    1  0.2900470E-011  0.5052886E+02  0.7816164E-02  0.1300439E+00
        -11   -1    0    0    0    0  0.00000000000E+00  0.00000000000E+00  0.45593999997E+02  0.45594000000E+02  0.51100000000E-03 0.  1.
         11   -1    0    0    0    0 -0.00000000000E+00 -0.00000000000E+00 -0.45593999997E+02  0.45594000000E+02  0.51100000000E-03 0. -1.
    9900012    2    1    2    0    0 -0.17202641782E+02 -0.17956482220E+02  0.32168305409E+02  0.50528855754E+02  0.29999987549E+02 0.  0.
         12    1    1    2    0    0  0.17202641782E+02  0.17956482220E+02 -0.32168305409E+02  0.40659144246E+02  0.00000000000E+00 0. -1.
         11    1    3    3    0    0 -0.15756698125E+02 -0.30993221199E+01  0.18662169405E+01  0.16166697231E+02  0.51100000000E-03 0. -1.
        -11    1    3    3    0    0  0.19642274142E-02 -0.62336628900E+01  0.19455942757E+02  0.20430180267E+02  0.51100000000E-03 0.  1.
        -12    1    3    3    0    0 -0.14479078836E+01 -0.86234972098E+01  0.10846145711E+02  0.13931978257E+02  0.00000000000E+00 0.  1.
</event>
<event>
 7    1  0.2900470E-011  0.5052887E+02  0.7816164E-02  0.1300439E+00
        -11   -1    0    0    0    0  0.00000000000E+00  0.00000000000E+00  0.45593999997E+02  0.45594000000E+02  0.51100000000E-03 0. -1.
         11   -1    0    0    0    0 -0.00000000000E+00 -0.00000000000E+00 -0.45593999997E+02  0.45594000000E+02  0.51100000000E-03 0.  1.
    9900012    2    1    2    0    0  0.11459860178E+02  0.26954921346E+02 -0.28200513384E+02  0.50528866522E+02  0.30000020280E+02 0.  0.
         12    1    1    2    0    0 -0.11459860178E+02 -0.26954921346E+02  0.28200513384E+02  0.40659133478E+02  0.00000000000E+00 0. -1.
         11    1    3    3    0    0 -0.17112410116E+01  0.26619708308E+01  0.12644265992E+01  0.34078159266E+01  0.51100000000E-03 0. -1.
        -11    1    3    3    0    0  0.14458215178E+02  0.27659989347E+02 -0.30213729547E+02  0.43439434276E+02  0.51100000000E-03 0.  1.
        -12    1    3    3    0    0 -0.12871139882E+01 -0.33670388319E+01  0.74878956339E+00  0.36816163196E+01  0.00000000000E+00 0.  1.
</event>
<event>
 7    1  0.2900470E-011  0.5052887E+02  0.7816164E-02  0.1300439E+00
        -11   -1    0    0    0    0  0.00000000000E+00  0.00000000000E+00  0.45593999997E+02  0.45594000000E+02  0.51100000000E-03 0.  1.
         11   -1    0    0    0    0 -0.00000000000E+00 -0.00000000000E+00 -0.45593999997E+02  0.45594000000E+02  0.51100000000E-03 0. -1.
    9900012    2    1    2    0    0  0.14335005970E+02 -0.36664799274E+02 -0.10166852836E+02  0.50528870662E+02  0.30000032863E+02 0.  0.
         12    1    1    2    0    0 -0.14335005970E+02  0.36664799274E+02  0.10166852836E+02  0.40659129338E+02  0.00000000000E+00 0. -1.
         11    1    3    3    0    0  0.13686923274E+02 -0.37648927321E+02 -0.49817384592E+01  0.40368196832E+02  0.51100000000E-03 0.  1.
        -11    1    3    3    0    0 -0.29343492752E+01  0.38502045976E+00 -0.57671237944E+01  0.64821573218E+01  0.51100000000E-03 0. -1.
        -12    1    3    3    0    0  0.35824319716E+01  0.59910758781E+00  0.58200941778E+00  0.36785165074E+01  0.00000000000E+00 0.  1.
</event>
<event>
 7    1  0.2900470E-011  0.5052886E+02  0.7816164E-02  0.1300439E+00
        -11   -1    0    0    0    0  0.00000000000E+00  0.00000000000E+00  0.45593999997E+02  0.45594000000E+02  0.51100000000E-03 0. -1.
         11   -1    0    0    0    0 -0.00000000000E+00 -0.00000000000E+00 -0.45593999997E+02  0.45594000000E+02  0.51100000000E-03 0.  1.
    9900012    2    1    2    0    0 -0.37716294257E+02 -0.13912125781E+02 -0.60909702743E+01  0.50528855702E+02  0.29999987390E+02 0.  0.
         12    1    1    2    0    0  0.37716294257E+02  0.13912125781E+02  0.60909702743E+01  0.40659144298E+02  0.00000000000E+00 0. -1.
         11    1    3    3    0    0 -0.51179607587E+01  0.12271278159E+01  0.31660191594E+01  0.61419087084E+01  0.51100000000E-03 0. -1.
        -11    1    3    3    0    0 -0.32846805872E+02 -0.10764872844E+02 -0.14560770754E+02  0.37507481768E+02  0.51100000000E-03 0.  1.
        -12    1    3    3    0    0  0.24847237412E+00 -0.43743807535E+01  0.53037813202E+01  0.68794652256E+01  0.00000000000E+00 0.  1.
</event>
<event>
 7    1  0.2900470E-011  0.5052886E+02  0.7816164E-02  0.1300439E+00
        -11   -1    0    0    0    0  0.00000000000E+00  0.00000000000E+00  0.45593999997E+02  0.45594000000E+02  0.51100000000E-03 0. -1.
         11   -1    0    0    0    0 -0.00000000000E+00 -0.00000000000E+00 -0.45593999997E+02  0.45594000000E+02  0.51100000000E-03 0.  1.
    9900012    2    1    2    0    0  0.39046626889E+02  0.10908377246E+02 -0.30877220922E+01  0.50528858429E+02  0.29999995681E+02 0.  0.
         12    1    1    2    0    0 -0.39046626889E+02 -0.10908377246E+02  0.30877220922E+01  0.40659141571E+02  0.00000000000E+00 0. -1.
         11    1    3    3    0    0  0.18123052915E+01 -0.57736274586E+01  0.90762593147E+00  0.61190693404E+01  0.51100000000E-03 0. -1.
        -11    1    3    3    0    0  0.30959263238E+02  0.16255373609E+02 -0.92989078415E+01  0.36182631727E+02  0.51100000000E-03 0.  1.
        -12    1    3    3    0    0  0.62750583597E+01  0.42663109504E+00  0.53035598178E+01  0.82271573614E+01  0.00000000000E+00 0.  1.
</event>
<event>
 7    1  0.2900470E-011  0.5052886E+02  0.7816164E-02  0.1300439E+00
        -11   -1    0    0    0    0  0.00000000000E+00  0.00000000000E+00  0.45593999997E+02  0.45594000000E+02  0.51100000000E-03 0. -1.
         11   -1    0    0    0    0 -0.00000000000E+00 -0.00000000000E+00 -0.45593999997E+02  0.45594000000E+02  0.51100000000E-03 0.  1.
    9900012    2    1    2    0    0  0.20863842472E+02  0.32255198624E+02  0.13321717878E+02  0.50528856769E+02  0.29999990637E+02 0.  0.
         12    1    1    2    0    0 -0.20863842472E+02 -0.32255198624E+02 -0.13321717878E+02  0.40659143231E+02  0.00000000000E+00 0. -1.
         11    1    3    3    0    0 -0.73618429787E+00 -0.11553224040E+01  0.31216724997E+01  0.34090433605E+01  0.51100000000E-03 0. -1.
        -11    1    3    3    0    0  0.24189743937E+02  0.33444678121E+02  0.13029999114E+02  0.43283612182E+02  0.51100000000E-03 0.  1.
        -12    1    3    3    0    0 -0.25897171668E+01 -0.34157092170E-01 -0.28299537354E+01  0.38362012272E+01  0.00000000000E+00 0.  1.
</event>
<event>
 7    1  0.2900470E-011  0.5052886E+02  0.7816164E-02  0.1300439E+00
        -11   -1    0    0    0    0  0.00000000000E+00  0.00000000000E+00  0.45593999997E+02  0.45594000000E+02  0.51100000000E-03 0.  1.
         11   -1    0    0    0    0 -0.00000000000E+00 -0.00000000000E+00 -0.45593999997E+02  0.45594000000E+02  0.51100000000E-03 0. -1.
    9900012    2    1    2    0    0 -0.41244931553E+00 -0.16957159246E+02  0.36951997815E+02  0.50528861954E+02  0.30000006396E+02 0.  0.
         12    1    1    2    0    0  0.41244931553E+00  0.16957159246E+02 -0.36951997815E+02  0.40659138046E+02  0.00000000000E+00 0. -1.
         11    1    3    3    0    0 -0.62061339104E+01 -0.32110401995E+01 -0.15762639363E+01  0.71632035804E+01  0.51100000000E-03 0. -1.
        -11    1    3    3    0    0  0.34193781125E+00 -0.12694265682E+02  0.17533566131E+02  0.21649185763E+02  0.51100000000E-03 0.  1.
         12    1    3    3    0    0  0.54517467836E+01 -0.10518533651E+01  0.20994695620E+02  0.21716472611E+02  0.00000000000E+00 0. -1.
</event>
<event>
 7    1  0.2900470E-011  0.5052889E+02  0.7816164E-02  0.1300439E+00
        -11   -1    0    0    0    0  0.00000000000E+00  0.00000000000E+00  0.45593999997E+02  0.45594000000E+02  0.51100000000E-03 0.  1.
         11   -1    0    0    0    0 -0.00000000000E+00 -0.00000000000E+00 -0.45593999997E+02  0.45594000000E+02  0.51100000000E-03 0. -1.
    9900012    2    1    2    0    0  0.16031357877E+02  0.27497478387E+02  0.25299153096E+02  0.50528894004E+02  0.30000103814E+02 0.  0.
         12    1    1    2    0    0 -0.16031357877E+02 -0.27497478387E+02 -0.25299153096E+02  0.40659105996E+02  0.00000000000E+00 0. -1.
         11    1    3    3    0    0 -0.21153960550E+01 -0.44512810256E+01  0.26725126574E+00  0.49356080414E+01  0.51100000000E-03 0. -1.
        -11    1    3    3    0    0  0.27247881504E+01  0.10667704244E+02  0.11904913860E+02  0.16215774992E+02  0.51100000000E-03 0.  1.
         12    1    3    3    0    0  0.15421965782E+02  0.21281055168E+02  0.13126987971E+02  0.29377510971E+02  0.00000000000E+00 0. -1.
</event>
<event>
 7    1  0.2900470E-011  0.5052886E+02  0.7816164E-02  0.1300439E+00
        -11   -1    0    0    0    0  0.00000000000E+00  0.00000000000E+00  0.45593999997E+02  0.45594000000E+02  0.51100000000E-03 0.  1.
         11   -1    0    0    0    0 -0.00000000000E+00 -0.00000000000E+00 -0.45593999997E+02  0.45594000000E+02  0.51100000000E-03 0. -1.
    9900012    2    1    2    0    0  0.36977179210E+02  0.14524146138E+02  0.86546739367E+01  0.50528856080E+02  0.29999988540E+02 0.  0.
         12    1    1    2    0    0 -0.36977179210E+02 -0.14524146138E+02 -0.86546739367E+01  0.40659143920E+02  0.00000000000E+00 0. -1.
         11    1    3    3    0    0  0.32545172248E+02 -0.37196407906E+00  0.68297712003E+01  0.33256162870E+02  0.51100000000E-03 0. -1.
        -11    1    3    3    0    0  0.60019709252E+01  0.76487219971E+01  0.46536173303E+00  0.97336100692E+01  0.51100000000E-03 0.  1.
         12    1    3    3    0    0 -0.15699639632E+01  0.72473882201E+01  0.13595410033E+01  0.75390831404E+01  0.00000000000E+00 0. -1.
</event>
<event>
 7    1  0.2900470E-011  0.5052886E+02  0.7816164E-02  0.1300439E+00
        -11   -1    0    0    0    0  0.00000000000E+00  0.00000000000E+00  0.45593999997E+02  0.45594000000E+02  0.51100000000E-03 0.  1.
         11   -1    0    0    0    0 -0.00000000000E+00 -0.00000000000E+00 -0.45593999997E+02  0.45594000000E+02  0.51100000000E-03 0. -1.
    9900012    2    1    2    0    0  0.12625249008E+02  0.11582956314E+02  0.36872803586E+02  0.50528862850E+02  0.30000009120E+02 0.  0.
         12    1    1    2    0    0 -0.12625249008E+02 -0.11582956314E+02 -0.36872803586E+02  0.40659137150E+02  0.00000000000E+00 0. -1.
         11    1    3    3    0    0  0.16211530411E+02  0.10209276817E+02  0.31834600862E+02  0.37154876714E+02  0.51100000000E-03 0.  1.
        -11    1    3    3    0    0 -0.29937647454E+01  0.61726742548E+01  0.73245117655E+00  0.68993492298E+01  0.51100000000E-03 0. -1.
        -12    1    3    3    0    0 -0.59251665714E+00 -0.47989947582E+01  0.43057515475E+01  0.64746369062E+01  0.00000000000E+00 0.  1.
</event>
<event>
 7    1  0.2900470E-011  0.5052885E+02  0.7816164E-02  0.1300439E+00
        -11   -1    0    0    0    0  0.00000000000E+00  0.00000000000E+00  0.45593999997E+02  0.45594000000E+02  0.51100000000E-03 0. -1.
         11   -1    0    0    0    0 -0.00000000000E+00 -0.00000000000E+00 -0.45593999997E+02  0.45594000000E+02  0.51100000000E-03 0.  1.
    9900012    2    1    2    0    0 -0.13084481377E+02  0.26930678992E+02 -0.27508201148E+02  0.50528852760E+02  0.29999978449E+02 0.  0.
         12    1    1    2    0    0  0.13084481377E+02 -0.26930678992E+02  0.27508201148E+02  0.40659147240E+02  0.00000000000E+00 0. -1.
         11    1    3    3    0    0 -0.75364175830E+01  0.55450783597E-01 -0.13222382559E+02  0.15219463380E+02  0.51100000000E-03 0.  1.
        -11    1    3    3    0    0  0.18667786494E+01  0.17650945425E+02 -0.15296576967E+02  0.23431303935E+02  0.51100000000E-03 0. -1.
         12    1    3    3    0    0 -0.74148424434E+01  0.92242827834E+01  0.10107583781E+01  0.11878085445E+02  0.00000000000E+00 0. -1.
</event>
<event>
 7    1  0.2900470E-011  0.5052885E+02  0.7816164E-02  0.1300439E+00
        -11   -1    0    0    0    0  0.00000000000E+00  0.00000000000E+00  0.45593999997E+02  0.45594000000E+02  0.51100000000E-03 0. -1.
         11   -1    0    0    0    0 -0.00000000000E+00 -0.00000000000E+00 -0.45593999997E+02  0.45594000000E+02  0.51100000000E-03 0.  1.
    9900012    2    1    2    0    0 -0.10020696179E+02 -0.33404532771E+02 -0.20901895530E+02  0.50528850989E+02  0.29999973065E+02 0.  0.
         12    1    1    2    0    0  0.10020696179E+02  0.33404532771E+02  0.20901895530E+02  0.40659149011E+02  0.00000000000E+00 0. -1.
         11    1    3    3    0    0  0.74402968973E+00  0.26822920985E+01  0.15181682598E+00  0.27877086811E+01  0.51100000000E-03 0. -1.
        -11    1    3    3    0    0 -0.58200497953E+01 -0.35105049070E+02 -0.12319404809E+02  0.37656409613E+02  0.51100000000E-03 0.  1.
        -12    1    3    3    0    0 -0.49446760730E+01 -0.98177579948E+00 -0.87343075469E+01  0.10084732694E+02  0.00000000000E+00 0.  1.
</event>
<event>
 7    1  0.2900470E-011  0.5052886E+02  0.7816164E-02  0.1300439E+00
        -11   -1    0    0    0    0  0.00000000000E+00  0.00000000000E+00  0.45593999997E+02  0.45594000000E+02  0.51100000000E-03 0.  1.
         11   -1    0    0    0    0 -0.00000000000E+00 -0.00000000000E+00 -0.45593999997E+02  0.45594000000E+02  0.51100000000E-03 0. -1.
    9900012    2    1    2    0    0  0.32566217007E+02 -0.14170754554E+02  0.19793863646E+02  0.50528858189E+02  0.29999994951E+02 0.  0.
         12    1    1    2    0    0 -0.32566217007E+02  0.14170754554E+02 -0.19793863646E+02  0.40659141811E+02  0.00000000000E+00 0. -1.
         11    1    3    3    0    0  0.25512217013E+02 -0.11369788177E+02  0.58935308859E+00  0.27937298320E+02  0.51100000000E-03 0. -1.
        -11    1    3    3    0    0  0.78838447684E+01 -0.17089168633E+01  0.19573962844E+02  0.21171098858E+02  0.51100000000E-03 0.  1.
         12    1    3    3    0    0 -0.82984477432E+00 -0.10920495139E+01 -0.36945228699E+00  0.14204610106E+01  0.00000000000E+00 0. -1.
</event>
<event>
 7    1  0.2900470E-011  0.5052886E+02  0.7816164E-02  0.1300439E+00
        -11   -1    0    0    0    0  0.00000000000E+00  0.00000000000E+00  0.45593999997E+02  0.45594000000E+02  0.51100000000E-03 0.  1.
         11   -1    0    0    0    0 -0.00000000000E+00 -0.00000000000E+00 -0.45593999997E+02  0.45594000000E+02  0.51100000000E-03 0. -1.
    9900012    2    1    2    0    0  0.26120482951E+02 -0.27761648916E+02  0.14148384814E+02  0.50528861138E+02  0.30000003916E+02 0.  0.
         12    1    1    2    0    0 -0.26120482951E+02  0.27761648916E+02 -0.14148384814E+02  0.40659138862E+02  0.00000000000E+00 0. -1.
         11    1    3    3    0    0  0.11411203490E+01 -0.18009440123E+01  0.10267977162E+02  0.10486987664E+02  0.51100000000E-03 0. -1.
        -11    1    3    3    0    0  0.29950026317E+01 -0.13937363789E+02 -0.17416374742E+01  0.14361526782E+02  0.51100000000E-03 0.  1.
         12    1    3    3    0    0  0.21984359971E+02 -0.12023341114E+02  0.56220451255E+01  0.25680346693E+02  0.00000000000E+00 0. -1.
</event>
<event>
 7    1  0.2900470E-011  0.5052885E+02  0.7816164E-02  0.1300439E+00
        -11   -1    0    0    0    0  0.00000000000E+00  0.00000000000E+00  0.45593999997E+02  0.45594000000E+02  0.51100000000E-03 0.  1.
         11   -1    0    0    0    0 -0.00000000000E+00 -0.00000000000E+00 -0.45593999997E+02  0.45594000000E+02  0.51100000000E-03 0. -1.
    9900012    2    1    2    0    0  0.22064524807E+02  0.14281455820E+02  0.31021975692E+02  0.50528853291E+02  0.29999980062E+02 0.  0.
         12    1    1    2    0    0 -0.22064524807E+02 -0.14281455820E+02 -0.31021975692E+02  0.40659146709E+02  0.00000000000E+00 0. -1.
         11    1    3    3    0    0  0.32262433194E-01  0.15163339978E+01  0.22483676960E+02  0.22534774007E+02  0.51100000000E-03 0. -1.
        -11    1    3    3    0    0  0.69972043606E+01  0.47422696208E+01  0.68293420280E+01  0.10866917816E+02  0.51100000000E-03 0.  1.
         12    1    3    3    0    0  0.15035058014E+02  0.80228522013E+01  0.17089567037E+01  0.17127161467E+02  0.00000000000E+00 0. -1.
</event>
<event>
 7    1  0.2900470E-011  0.5052885E+02  0.7816164E-02  0.1300439E+00
        -11   -1    0    0    0    0  0.00000000000E+00  0.00000000000E+00  0.45593999997E+02  0.45594000000E+02  0.51100000000E-03 0.  1.
         11   -1    0    0    0    0 -0.00000000000E+00 -0.00000000000E+00 -0.45593999997E+02  0.45594000000E+02  0.51100000000E-03 0. -1.
    9900012    2    1    2    0    0  0.17866865561E+02 -0.25077631423E+02  0.26552851542E+02  0.50528850872E+02  0.29999972711E+02 0.  0.
         12    1    1    2    0    0 -0.17866865561E+02  0.25077631423E+02 -0.26552851542E+02  0.40659149128E+02  0.00000000000E+00 0. -1.
         11    1    3    3    0    0  0.49229121695E+01  0.44271044748E+01  0.58213630723E+01  0.88160414325E+01  0.51100000000E-03 0. -1.
        -11    1    3    3    0    0  0.74862681595E+01 -0.14619295837E+02  0.10756555089E+01  0.16459801237E+02  0.51100000000E-03 0.  1.
        -12    1    3    3    0    0  0.54576852321E+01 -0.14885440061E+02  0.19655832961E+02  0.25253008202E+02  0.00000000000E+00 0.  1.
</event>
<event>
 7    1  0.2900470E-011  0.5052880E+02  0.7816164E-02  0.1300439E+00
        -11   -1    0    0    0    0  0.00000000000E+00  0.00000000000E+00  0.45593999997E+02  0.45594000000E+02  0.51100000000E-03 0.  1.
         11   -1    0    0    0    0 -0.00000000000E+00 -0.00000000000E+00 -0.45593999997E+02  0.45594000000E+02  0.51100000000E-03 0. -1.
    9900012    2    1    2    0    0 -0.11933237578E+02 -0.38794021256E+02  0.24066836348E+01  0.50528802142E+02  0.29999824591E+02 0.  0.
         12    1    1    2    0    0  0.11933237578E+02  0.38794021256E+02 -0.24066836348E+01  0.40659197858E+02  0.00000000000E+00 0. -1.
         11    1    3    3    0    0 -0.13703821349E+02 -0.31679574807E+02  0.35099067333E+00  0.34518304915E+02  0.51100000000E-03 0. -1.
        -11    1    3    3    0    0 -0.33442244646E+01 -0.35641568062E+01  0.66641748265E+01  0.82642771849E+01  0.51100000000E-03 0.  1.
         12    1    3    3    0    0  0.51148082357E+01 -0.35502896430E+01 -0.46084818651E+01  0.77462200419E+01  0.00000000000E+00 0. -1.
</event>
<event>
 7    1  0.2900470E-011  0.5052886E+02  0.7816164E-02  0.1300439E+00
        -11   -1    0    0    0    0  0.00000000000E+00  0.00000000000E+00  0.45593999997E+02  0.45594000000E+02  0.51100000000E-03 0.  1.
         11   -1    0    0    0    0 -0.00000000000E+00 -0.00000000000E+00 -0.45593999997E+02  0.45594000000E+02  0.51100000000E-03 0. -1.
    9900012    2    1    2    0    0 -0.75478437829E+01  0.36929678358E+02  0.15244486619E+02  0.50528862507E+02  0.30000008076E+02 0.  0.
         12    1    1    2    0    0  0.75478437829E+01 -0.36929678358E+02 -0.15244486619E+02  0.40659137493E+02  0.00000000000E+00 0. -1.
         11    1    3    3    0    0  0.33027142100E+01 -0.27403257704E+01  0.57998620053E+01  0.72149640348E+01  0.51100000000E-03 0. -1.
        -11    1    3    3    0    0 -0.10190543271E+01  0.18857794857E+02  0.71056462389E+01  0.20177837033E+02  0.51100000000E-03 0.  1.
         12    1    3    3    0    0 -0.98315036657E+01  0.20812209272E+02  0.23389783748E+01  0.23136061439E+02  0.00000000000E+00 0. -1.
</event>
<event>
 7    1  0.2900470E-011  0.5052886E+02  0.7816164E-02  0.1300439E+00
        -11   -1    0    0    0    0  0.00000000000E+00  0.00000000000E+00  0.45593999997E+02  0.45594000000E+02  0.51100000000E-03 0. -1.
         11   -1    0    0    0    0 -0.00000000000E+00 -0.00000000000E+00 -0.45593999997E+02  0.45594000000E+02  0.51100000000E-03 0.  1.
    9900012    2    1    2    0    0  0.72854840569E+01 -0.17885894695E+02 -0.35779635264E+02  0.50528858265E+02  0.29999995182E+02 0.  0.
         12    1    1    2    0    0 -0.72854840569E+01  0.17885894695E+02  0.35779635264E+02  0.40659141735E+02  0.00000000000E+00 0. -1.
         11    1    3    3    0    0  0.94013532047E+01 -0.71438774873E+01 -0.53149539405E+01  0.12948712804E+02  0.51100000000E-03 0. -1.
        -11    1    3    3    0    0  0.32942175856E+01 -0.14839743879E+02 -0.20388587194E+02  0.25431562200E+02  0.51100000000E-03 0.  1.
        -12    1    3    3    0    0 -0.54100867333E+01  0.40977266710E+01 -0.10076094129E+02  0.12148583261E+02  0.00000000000E+00 0.  1.
</event>
<event>
 7    1  0.2900470E-011  0.5052886E+02  0.7816164E-02  0.1300439E+00
        -11   -1    0    0    0    0  0.00000000000E+00  0.00000000000E+00  0.45593999997E+02  0.45594000000E+02  0.51100000000E-03 0.  1.
         11   -1    0    0    0    0 -0.00000000000E+00 -0.00000000000E+00 -0.45593999997E+02  0.45594000000E+02  0.51100000000E-03 0. -1.
    9900012    2    1    2    0    0  0.23382650410E+02 -0.13937601679E+02  0.30201995457E+02  0.50528860679E+02  0.30000002519E+02 0.  0.
         12    1    1    2    0    0 -0.23382650410E+02  0.13937601679E+02 -0.30201995457E+02  0.40659139321E+02  0.00000000000E+00 0. -1.
         11    1    3    3    0    0  0.99490208909E+00 -0.67363424964E+01  0.38748905231E+01  0.78347250892E+01  0.51100000000E-03 0. -1.
        -11    1    3    3    0    0  0.12183076733E+02  0.37225043534E+01  0.37502901961E+00  0.12744608444E+02  0.51100000000E-03 0.  1.
        -12    1    3    3    0    0  0.10204671587E+02 -0.10923763536E+02  0.25952075915E+02  0.29949527146E+02  0.00000000000E+00 0.  1.
</event>
<event>
 7    1  0.2900470E-011  0.5052883E+02  0.7816164E-02  0.1300439E+00
        -11   -1    0    0    0    0  0.00000000000E+00  0.00000000000E+00  0.45593999997E+02  0.45594000000E+02  0.51100000000E-03 0. -1.
         11   -1    0    0    0    0 -0.00000000000E+00 -0.00000000000E+00 -0.45593999997E+02  0.45594000000E+02  0.51100000000E-03 0.  1.
    9900012    2    1    2    0    0 -0.76726492257E+01  0.39682552960E+02 -0.44264271275E+01  0.50528833596E+02  0.29999920198E+02 0.  0.
         12    1    1    2    0    0  0.76726492257E+01 -0.39682552960E+02  0.44264271275E+01  0.40659166404E+02  0.00000000000E+00 0. -1.
         11    1    3    3    0    0 -0.34465799739E+01  0.15022659765E+02  0.21590834844E+01  0.15563446331E+02  0.51100000000E-03 0. -1.
        -11    1    3    3    0    0  0.13512559889E+01  0.50254611461E+00 -0.98532364913E+01  0.99581481692E+01  0.51100000000E-03 0.  1.
        -12    1    3    3    0    0 -0.55773252407E+01  0.24157347080E+02  0.32677258795E+01  0.25007239096E+02  0.00000000000E+00 0.  1.
</event>
<event>
 7    1  0.2900470E-011  0.5052876E+02  0.7816164E-02  0.1300439E+00
        -11   -1    0    0    0    0  0.00000000000E+00  0.00000000000E+00  0.45593999997E+02  0.45594000000E+02  0.51100000000E-03 0.  1.
         11   -1    0    0    0    0 -0.00000000000E+00 -0.00000000000E+00 -0.45593999997E+02  0.45594000000E+02  0.51100000000E-03 0. -1.
    9900012    2    1    2    0    0 -0.24813299832E+02  0.19564509815E+02  0.25587182369E+02  0.50528760036E+02  0.29999696603E+02 0.  0.
         12    1    1    2    0    0  0.24813299832E+02 -0.19564509815E+02 -0.25587182369E+02  0.40659239964E+02  0.00000000000E+00 0. -1.
         11    1    3    3    0    0  0.51671575359E+01 -0.10604913676E+01  0.82096420668E+01  0.97581956359E+01  0.51100000000E-03 0. -1.
        -11    1    3    3    0    0 -0.24586639061E+02  0.13958962457E+02  0.14063832406E+02  0.31577631884E+02  0.51100000000E-03 0.  1.
         12    1    3    3    0    0 -0.53938183074E+01  0.66660387258E+01  0.33137078958E+01  0.91929325161E+01  0.00000000000E+00 0. -1.
</event>
<event>
 7    1  0.2900470E-011  0.5052887E+02  0.7816164E-02  0.1300439E+00
        -11   -1    0    0    0    0  0.00000000000E+00  0.00000000000E+00  0.45593999997E+02  0.45594000000E+02  0.51100000000E-03 0.  1.
         11   -1    0    0    0    0 -0.00000000000E+00 -0.00000000000E+00 -0.45593999997E+02  0.45594000000E+02  0.51100000000E-03 0. -1.
    9900012    2    1    2    0    0  0.32167305076E+02 -0.43352292123E+01  0.24487451627E+02  0.50528867996E+02  0.30000024759E+02 0.  0.
         12    1    1    2    0    0 -0.32167305076E+02  0.43352292123E+01 -0.24487451627E+02  0.40659132004E+02  0.00000000000E+00 0. -1.
         11    1    3    3    0    0  0.32929772067E+02 -0.61797811537E+01  0.18925505468E+02  0.38480311082E+02  0.51100000000E-03 0.  1.
        -11    1    3    3    0    0 -0.79422762535E+00  0.59061011371E+01  0.53055025292E+01  0.79787959938E+01  0.51100000000E-03 0. -1.
        -12    1    3    3    0    0  0.31760634043E-01 -0.40615491957E+01  0.25644363020E+00  0.40697609196E+01  0.00000000000E+00 0.  1.
</event>
<event>
 7    1  0.2900470E-011  0.5052885E+02  0.7816164E-02  0.1300439E+00
        -11   -1    0    0    0    0  0.00000000000E+00  0.00000000000E+00  0.45593999997E+02  0.45594000000E+02  0.51100000000E-03 0.  1.
         11   -1    0    0    0    0 -0.00000000000E+00 -0.00000000000E+00 -0.45593999997E+02  0.45594000000E+02  0.51100000000E-03 0. -1.
    9900012    2    1    2    0    0  0.36538832557E+02 -0.15189500222E+02  0.93466353996E+01  0.50528846112E+02  0.29999958242E+02 0.  0.
         12    1    1    2    0    0 -0.36538832557E+02  0.15189500222E+02 -0.93466353996E+01  0.40659153888E+02  0.00000000000E+00 0. -1.
         11    1    3    3    0    0 -0.43092555755E+01 -0.75539471994E+00  0.19670534893E+00  0.43793832960E+01  0.51100000000E-03 0. -1.
        -11    1    3    3    0    0  0.11280244829E+02  0.17818944885E+01  0.35933893394E+01  0.11972114207E+02  0.51100000000E-03 0.  1.
         12    1    3    3    0    0  0.29567843303E+02 -0.16215999991E+02  0.55565407112E+01  0.34177348609E+02  0.00000000000E+00 0. -1.
</event>
<event>
 7    1  0.2900470E-011  0.5052886E+02  0.7816164E-02  0.1300439E+00
        -11   -1    0    0    0    0  0.00000000000E+00  0.00000000000E+00  0.45593999997E+02  0.45594000000E+02  0.51100000000E-03 0.  1.
         11   -1    0    0    0    0 -0.00000000000E+00 -0.00000000000E+00 -0.45593999997E+02  0.45594000000E+02  0.51100000000E-03 0. -1.
    9900012    2    1    2    0    0  0.42692336273E+01 -0.88973439754E+01  0.39443338757E+02  0.50528855175E+02  0.29999985791E+02 0.  0.
         12    1    1    2    0    0 -0.42692336273E+01  0.88973439754E+01 -0.39443338757E+02  0.40659144825E+02  0.00000000000E+00 0. -1.
         11    1    3    3    0    0 -0.75345954763E+01  0.24729034529E+01  0.11722294858E+02  0.14152652666E+02  0.51100000000E-03 0. -1.
        -11    1    3    3    0    0  0.13222510407E+02 -0.13844791310E+02  0.27510227863E+02  0.33516050859E+02  0.51100000000E-03 0.  1.
        -12    1    3    3    0    0 -0.14186813033E+01  0.24745438813E+01  0.21081603549E+00  0.28601516501E+01  0.00000000000E+00 0.  1.
</event>
<event>
 7    1  0.2900470E-011  0.5052885E+02  0.7816164E-02  0.1300439E+00
        -11   -1    0    0    0    0  0.00000000000E+00  0.00000000000E+00  0.45593999997E+02  0.45594000000E+02  0.51100000000E-03 0.  1.
         11   -1    0    0    0    0 -0.00000000000E+00 -0.00000000000E+00 -0.45593999997E+02  0.45594000000E+02  0.51100000000E-03 0. -1.
    9900012    2    1    2    0    0  0.19290123536E+02  0.12724525586E+02  0.33453614938E+02  0.50528846420E+02  0.29999959179E+02 0.  0.
         12    1    1    2    0    0 -0.19290123536E+02 -0.12724525586E+02 -0.33453614938E+02  0.40659153580E+02  0.00000000000E+00 0. -1.
         11    1    3    3    0    0 -0.24654679217E+01  0.35390668356E+01  0.20676790334E+02  0.21121865091E+02  0.51100000000E-03 0.  1.
        -11    1    3    3    0    0  0.23122268677E+02  0.90729199866E+01  0.12971840063E+02  0.28021881107E+02  0.51100000000E-03 0. -1.
         12    1    3    3    0    0 -0.13666772202E+01  0.11253876335E+00 -0.19501545890E+00  0.13851002226E+01  0.00000000000E+00 0. -1.
</event>
<event>
 7    1  0.2900470E-011  0.5052885E+02  0.7816164E-02  0.1300439E+00
        -11   -1    0    0    0    0  0.00000000000E+00  0.00000000000E+00  0.45593999997E+02  0.45594000000E+02  0.51100000000E-03 0. -1.
         11   -1    0    0    0    0 -0.00000000000E+00 -0.00000000000E+00 -0.45593999997E+02  0.45594000000E+02  0.51100000000E-03 0.  1.
    9900012    2    1    2    0    0  0.19712076049E+02 -0.19812631678E+02 -0.29530658436E+02  0.50528854610E+02  0.29999984072E+02 0.  0.
         12    1    1    2    0    0 -0.19712076049E+02  0.19812631678E+02  0.29530658436E+02  0.40659145390E+02  0.00000000000E+00 0. -1.
         11    1    3    3    0    0  0.52626410021E+00  0.18687238869E+01 -0.97056379168E+00  0.21705016018E+01  0.51100000000E-03 0. -1.
        -11    1    3    3    0    0  0.23356332357E+02 -0.15779785956E+02 -0.29808114870E+02  0.41024914605E+02  0.51100000000E-03 0.  1.
        -12    1    3    3    0    0 -0.41705204077E+01 -0.59015696094E+01  0.12480202262E+01  0.73334384030E+01  0.00000000000E+00 0.  1.
</event>
<event>
 7    1  0.2900470E-011  0.5052886E+02  0.7816164E-02  0.1300439E+00
        -11   -1    0    0    0    0  0.00000000000E+00  0.00000000000E+00  0.45593999997E+02  0.45594000000E+02  0.51100000000E-03 0. -1.
         11   -1    0    0    0    0 -0.00000000000E+00 -0.00000000000E+00 -0.45593999997E+02  0.45594000000E+02  0.51100000000E-03 0.  1.
    9900012    2    1    2    0    0 -0.13397887372E+02 -0.33697259655E+02 -0.18389041614E+02  0.50528861473E+02  0.30000004934E+02 0.  0.
         12    1    1    2    0    0  0.13397887372E+02  0.33697259655E+02  0.18389041614E+02  0.40659138527E+02  0.00000000000E+00 0. -1.
         11    1    3    3    0    0 -0.23088191364E+01 -0.46651852365E+01  0.49456333076E+01  0.71801036323E+01  0.51100000000E-03 0. -1.
        -11    1    3    3    0    0 -0.13583900223E+02 -0.29681709681E+02 -0.17654100227E+02  0.37110557662E+02  0.51100000000E-03 0.  1.
        -12    1    3    3    0    0  0.24948319877E+01  0.64963526280E+00 -0.56805746939E+01  0.62382001791E+01  0.00000000000E+00 0.  1.
</event>
<event>
 7    1  0.2900470E-011  0.5052884E+02  0.7816164E-02  0.1300439E+00
        -11   -1    0    0    0    0  0.00000000000E+00  0.00000000000E+00  0.45593999997E+02  0.45594000000E+02  0.51100000000E-03 0. -1.
         11   -1    0    0    0    0 -0.00000000000E+00 -0.00000000000E+00 -0.45593999997E+02  0.45594000000E+02  0.51100000000E-03 0.  1.
    9900012    2    1    2    0    0  0.17979586871E+02  0.10279196408E+02 -0.34989136199E+02  0.50528842670E+02  0.29999947778E+02 0.  0.
         12    1    1    2    0    0 -0.17979586871E+02 -0.10279196408E+02  0.34989136199E+02  0.40659157330E+02  0.00000000000E+00 0. -1.
         11    1    3    3    0    0  0.14405394932E+02 -0.45695596122E+01 -0.92532507811E+01  0.17720579237E+02  0.51100000000E-03 0. -1.
        -11    1    3    3    0    0 -0.85900261116E+00  0.98139837722E-01 -0.12413556284E+02  0.12443628763E+02  0.51100000000E-03 0.  1.
         12    1    3    3    0    0  0.44331945505E+01  0.14750616183E+02 -0.13322329134E+02  0.20364634670E+02  0.00000000000E+00 0. -1.
</event>
<event>
 7    1  0.2900470E-011  0.5052888E+02  0.7816164E-02  0.1300439E+00
        -11   -1    0    0    0    0  0.00000000000E+00  0.00000000000E+00  0.45593999997E+02  0.45594000000E+02  0.51100000000E-03 0. -1.
         11   -1    0    0    0    0 -0.00000000000E+00 -0.00000000000E+00 -0.45593999997E+02  0.45594000000E+02  0.51100000000E-03 0.  1.
    9900012    2    1    2    0    0  0.11817336158E+02  0.14456865612E+02 -0.36118053537E+02  0.50528878163E+02  0.30000055666E+02 0.  0.
         12    1    1    2    0    0 -0.11817336158E+02 -0.14456865612E+02  0.36118053537E+02  0.40659121837E+02  0.00000000000E+00 0. -1.
         11    1    3    3    0    0  0.69626027461E+01  0.51601305002E+00  0.21596022879E+01  0.73080769544E+01  0.51100000000E-03 0. -1.
        -11    1    3    3    0    0  0.31226538358E+01  0.15972444694E+02 -0.26134979092E+02  0.30788099793E+02  0.51100000000E-03 0.  1.
         12    1    3    3    0    0  0.17320795764E+01 -0.20315921321E+01 -0.12142676733E+02  0.12432701416E+02  0.00000000000E+00 0. -1.
</event>
<event>
 7    1  0.2900470E-011  0.5052886E+02  0.7816164E-02  0.1300439E+00
        -11   -1    0    0    0    0  0.00000000000E+00  0.00000000000E+00  0.45593999997E+02  0.45594000000E+02  0.51100000000E-03 0. -1.
         11   -1    0    0    0    0 -0.00000000000E+00 -0.00000000000E+00 -0.45593999997E+02  0.45594000000E+02  0.51100000000E-03 0.  1.
    9900012    2    1    2    0    0 -0.22441174529E+02 -0.33725996368E+02 -0.34808647732E+01  0.50528861239E+02  0.30000004221E+02 0.  0.
         12    1    1    2    0    0  0.22441174529E+02  0.33725996368E+02  0.34808647732E+01  0.40659138761E+02  0.00000000000E+00 0. -1.
         11    1    3    3    0    0  0.61973050875E+01 -0.11641905090E+02  0.17777246673E+01  0.13307924321E+02  0.51100000000E-03 0. -1.
        -11    1    3    3    0    0 -0.18317651087E+02 -0.11102779906E+02 -0.52995891908E+00  0.21426360393E+02  0.51100000000E-03 0.  1.
         12    1    3    3    0    0 -0.10320828530E+02 -0.10981311371E+02 -0.47286305214E+01  0.15794576524E+02  0.00000000000E+00 0. -1.
</event>
<event>
 7    1  0.2900470E-011  0.5052886E+02  0.7816164E-02  0.1300439E+00
        -11   -1    0    0    0    0  0.00000000000E+00  0.00000000000E+00  0.45593999997E+02  0.45594000000E+02  0.51100000000E-03 0. -1.
         11   -1    0    0    0    0 -0.00000000000E+00 -0.00000000000E+00 -0.45593999997E+02  0.45594000000E+02  0.51100000000E-03 0.  1.
    9900012    2    1    2    0    0  0.18424146318E+02  0.84053555416E+01 -0.35257147994E+02  0.50528860142E+02  0.30000000888E+02 0.  0.
         12    1    1    2    0    0 -0.18424146318E+02 -0.84053555416E+01  0.35257147994E+02  0.40659139858E+02  0.00000000000E+00 0. -1.
         11    1    3    3    0    0  0.39367764550E+01  0.18476884024E+00  0.46145558174E+01  0.60684820206E+01  0.51100000000E-03 0. -1.
        -11    1    3    3    0    0  0.11289407017E+02  0.10592826097E+02 -0.28843905700E+02  0.32735753723E+02  0.51100000000E-03 0.  1.
         12    1    3    3    0    0  0.31979628454E+01 -0.23722393953E+01 -0.11027798111E+02  0.11724624398E+02  0.00000000000E+00 0. -1.
</event>
<event>
 7    1  0.2900470E-011  0.5052886E+02  0.7816164E-02  0.1300439E+00
        -11   -1    0    0    0    0  0.00000000000E+00  0.00000000000E+00  0.45593999997E+02  0.45594000000E+02  0.51100000000E-03 0.  1.
         11   -1    0    0    0    0 -0.00000000000E+00 -0.00000000000E+00 -0.45593999997E+02  0.45594000000E+02  0.51100000000E-03 0. -1.
    9900012    2    1    2    0    0  0.58149289918E+01 -0.37070938005E+02  0.15655595449E+02  0.50528861881E+02  0.30000006172E+02 0.  0.
         12    1    1    2    0    0 -0.58149289918E+01  0.37070938005E+02 -0.15655595449E+02  0.40659138119E+02  0.00000000000E+00 0. -1.
         11    1    3    3    0    0 -0.17808999215E+01 -0.13831339080E+02  0.15042669686E+02  0.20512422012E+02  0.51100000000E-03 0. -1.
        -11    1    3    3    0    0  0.13242597799E+02 -0.17340550377E+02  0.99426617957E+00  0.21841466282E+02  0.51100000000E-03 0.  1.
         12    1    3    3    0    0 -0.56467688861E+01 -0.58990485476E+01 -0.38134041621E+00  0.81749735861E+01  0.00000000000E+00 0. -1.
</event>
<event>
 7    1  0.2900470E-011  0.5052886E+02  0.7816164E-02  0.1300439E+00
        -11   -1    0    0    0    0  0.00000000000E+00  0.00000000000E+00  0.45593999997E+02  0.45594000000E+02  0.51100000000E-03 0.  1.
         11   -1    0    0    0    0 -0.00000000000E+00 -0.00000000000E+00 -0.45593999997E+02  0.45594000000E+02  0.51100000000E-03 0. -1.
    9900012    2    1    2    0    0  0.27755224574E+02 -0.16087661311E+02  0.24979998902E+02  0.50528859789E+02  0.29999999813E+02 0.  0.
         12    1    1    2    0    0 -0.27755224574E+02  0.16087661311E+02 -0.24979998902E+02  0.40659140211E+02  0.00000000000E+00 0. -1.
         11    1    3    3    0    0  0.27119729740E+01  0.16945580891E+01  0.10959653427E+02  0.11416668868E+02  0.51100000000E-03 0. -1.
        -11    1    3    3    0    0  0.89115757959E+01 -0.17797605708E+02  0.10859462702E+02  0.22673748754E+02  0.51100000000E-03 0.  1.
         12    1    3    3    0    0  0.16131675804E+02  0.15386308390E-01  0.31608827726E+01  0.16438442167E+02  0.00000000000E+00 0. -1.
</event>
<event>
 7    1  0.2900470E-011  0.5052887E+02  0.7816164E-02  0.1300439E+00
        -11   -1    0    0    0    0  0.00000000000E+00  0.00000000000E+00  0.45593999997E+02  0.45594000000E+02  0.51100000000E-03 0.  1.
         11   -1    0    0    0    0 -0.00000000000E+00 -0.00000000000E+00 -0.45593999997E+02  0.45594000000E+02  0.51100000000E-03 0. -1.
    9900012    2    1    2    0    0 -0.83113248144E+01 -0.29297501669E+02  0.26939626839E+02  0.50528865498E+02  0.30000017167E+02 0.  0.
         12    1    1    2    0    0  0.83113248144E+01  0.29297501669E+02 -0.26939626839E+02  0.40659134502E+02  0.00000000000E+00 0. -1.
         11    1    3    3    0    0 -0.49395179905E+00  0.31216042817E+01 -0.30830461867E+01  0.44151529670E+01  0.51100000000E-03 0. -1.
        -11    1    3    3    0    0 -0.95411554754E+01 -0.31711730286E+02  0.28035133578E+02  0.43389355844E+02  0.51100000000E-03 0.  1.
        -12    1    3    3    0    0  0.17237824600E+01 -0.70737566523E+00  0.19875394479E+01  0.27243566870E+01  0.00000000000E+00 0.  1.
</event>
<event>
 7    1  0.2900470E-011  0.5052885E+02  0.7816164E-02  0.1300439E+00
        -11   -1    0    0    0    0  0.00000000000E+00  0.00000000000E+00  0.45593999997E+02  0.45594000000E+02  0.51100000000E-03 0. -1.
         11   -1    0    0    0    0 -0.00000000000E+00 -0.00000000000E+00 -0.45593999997E+02  0.45594000000E+02  0.51100000000E-03 0.  1.
    9900012    2    1    2    0    0 -0.29803227821E+02 -0.42382295049E+01 -0.27330771970E+02  0.50528854973E+02  0.29999985176E+02 0.  0.
         12    1    1    2    0    0  0.29803227821E+02  0.42382295049E+01  0.27330771970E+02  0.40659145027E+02  0.00000000000E+00 0. -1.
         11    1    3    3    0    0  0.28291726534E+01  0.59459348498E+00  0.25839970541E+01  0.38774734495E+01  0.51100000000E-03 0. -1.
        -11    1    3    3    0    0 -0.18726949621E+02  0.42307796098E+01 -0.16008946415E+02  0.24997689969E+02  0.51100000000E-03 0.  1.
         12    1    3    3    0    0 -0.13905450853E+02 -0.90636025997E+01 -0.13905822608E+02  0.21653691554E+02  0.00000000000E+00 0. -1.
</event>
<event>
 7    1  0.2900470E-011  0.5052886E+02  0.7816164E-02  0.1300439E+00
        -11   -1    0    0    0    0  0.00000000000E+00  0.00000000000E+00  0.45593999997E+02  0.45594000000E+02  0.51100000000E-03 0.  1.
         11   -1    0    0    0    0 -0.00000000000E+00 -0.00000000000E+00 -0.45593999997E+02  0.45594000000E+02  0.51100000000E-03 0. -1.
    9900012    2    1    2    0    0 -0.23972569050E+02  0.32839127500E+02 -0.27130082177E+00  0.50528856305E+02  0.29999989225E+02 0.  0.
         12    1    1    2    0    0  0.23972569050E+02 -0.32839127500E+02  0.27130082177E+00  0.40659143695E+02  0.00000000000E+00 0. -1.
         11    1    3    3    0    0 -0.12281613350E+02  0.13510805149E+01 -0.95683919891E+01  0.15627462064E+02  0.51100000000E-03 0. -1.
        -11    1    3    3    0    0 -0.81232853989E+01  0.21410650730E+02  0.72209905371E+01  0.24011381363E+02  0.51100000000E-03 0.  1.
         12    1    3    3    0    0 -0.35676703012E+01  0.10077396255E+02  0.20761006303E+01  0.10890012878E+02  0.00000000000E+00 0. -1.
</event>
<event>
 7    1  0.2900470E-011  0.5052887E+02  0.7816164E-02  0.1300439E+00
        -11   -1    0    0    0    0  0.00000000000E+00  0.00000000000E+00  0.45593999997E+02  0.45594000000E+02  0.51100000000E-03 0.  1.
         11   -1    0    0    0    0 -0.00000000000E+00 -0.00000000000E+00 -0.45593999997E+02  0.45594000000E+02  0.51100000000E-03 0. -1.
    9900012    2    1    2    0    0  0.25215823955E+02 -0.14159646531E+01  0.31864117134E+02  0.50528871943E+02  0.30000036758E+02 0.  0.
         12    1    1    2    0    0 -0.25215823955E+02  0.14159646531E+01 -0.31864117134E+02  0.40659128057E+02  0.00000000000E+00 0. -1.
         11    1    3    3    0    0 -0.20825070183E+01 -0.25057395654E+01  0.91314400616E+01  0.96952959785E+01  0.51100000000E-03 0. -1.
        -11    1    3    3    0    0  0.21263779937E+02  0.94316342463E+01  0.12911067274E+02  0.26604505637E+02  0.51100000000E-03 0.  1.
        -12    1    3    3    0    0  0.60345510359E+01 -0.83418593340E+01  0.98216097983E+01  0.14229070327E+02  0.00000000000E+00 0.  1.
</event>
<event>
 7    1  0.2900470E-011  0.5052886E+02  0.7816164E-02  0.1300439E+00
        -11   -1    0    0    0    0  0.00000000000E+00  0.00000000000E+00  0.45593999997E+02  0.45594000000E+02  0.51100000000E-03 0. -1.
         11   -1    0    0    0    0 -0.00000000000E+00 -0.00000000000E+00 -0.45593999997E+02  0.45594000000E+02  0.51100000000E-03 0.  1.
    9900012    2    1    2    0    0 -0.31132195092E+02  0.10236074691E+02 -0.24066051433E+02  0.50528860463E+02  0.30000001864E+02 0.  0.
         12    1    1    2    0    0  0.31132195092E+02 -0.10236074691E+02  0.24066051433E+02  0.40659139537E+02  0.00000000000E+00 0. -1.
         11    1    3    3    0    0 -0.95669355002E+01  0.56892803483E+01  0.41776746574E+01  0.11888949977E+02  0.51100000000E-03 0. -1.
        -11    1    3    3    0    0 -0.22037296437E+02  0.61520077493E+01 -0.28884358034E+02  0.36848280460E+02  0.51100000000E-03 0.  1.
         12    1    3    3    0    0  0.47203684516E+00 -0.16052134065E+01  0.64063194369E+00  0.17916300262E+01  0.00000000000E+00 0. -1.
</event>
<event>
 7    1  0.2900470E-011  0.5052886E+02  0.7816164E-02  0.1300439E+00
        -11   -1    0    0    0    0  0.00000000000E+00  0.00000000000E+00  0.45593999997E+02  0.45594000000E+02  0.51100000000E-03 0. -1.
         11   -1    0    0    0    0 -0.00000000000E+00 -0.00000000000E+00 -0.45593999997E+02  0.45594000000E+02  0.51100000000E-03 0.  1.
    9900012    2    1    2    0    0  0.97101788082E+01 -0.39102530877E+02  0.54653443782E+01  0.50528862249E+02  0.30000007293E+02 0.  0.
         12    1    1    2    0    0 -0.97101788082E+01  0.39102530877E+02 -0.54653443782E+01  0.40659137751E+02  0.00000000000E+00 0. -1.
         11    1    3    3    0    0 -0.16032106763E+01 -0.22303717041E+01  0.10719182059E+02  0.11065518816E+02  0.51100000000E-03 0. -1.
        -11    1    3    3    0    0  0.61959309414E+01 -0.12846629062E+02  0.35297933430E+00  0.14267096171E+02  0.51100000000E-03 0.  1.
         12    1    3    3    0    0  0.51174585431E+01 -0.24025530111E+02 -0.56068170146E+01  0.25196247262E+02  0.00000000000E+00 0. -1.
</event>
<event>
 7    1  0.2900470E-011  0.5052887E+02  0.7816164E-02  0.1300439E+00
        -11   -1    0    0    0    0  0.00000000000E+00  0.00000000000E+00  0.45593999997E+02  0.45594000000E+02  0.51100000000E-03 0.  1.
         11   -1    0    0    0    0 -0.00000000000E+00 -0.00000000000E+00 -0.45593999997E+02  0.45594000000E+02  0.51100000000E-03 0. -1.
    9900012    2    1    2    0    0  0.33664534843E+02  0.14911273752E+02  0.17248715918E+02  0.50528865825E+02  0.30000018161E+02 0.  0.
         12    1    1    2    0    0 -0.33664534843E+02 -0.14911273752E+02 -0.17248715918E+02  0.40659134175E+02  0.00000000000E+00 0. -1.
         11    1    3    3    0    0  0.67498945342E+00  0.53016502445E+01  0.42169082165E+01  0.68077471490E+01  0.51100000000E-03 0. -1.
        -11    1    3    3    0    0  0.30664887574E+02  0.78325563410E+01  0.19112808666E+02  0.36972742989E+02  0.51100000000E-03 0.  1.
        -12    1    3    3    0    0  0.23246578157E+01  0.17770671660E+01 -0.60810009650E+01  0.67483756868E+01  0.00000000000E+00 0.  1.
</event>
<event>
 7    1  0.2900470E-011  0.5052888E+02  0.7816164E-02  0.1300439E+00
        -11   -1    0    0    0    0  0.00000000000E+00  0.00000000000E+00  0.45593999997E+02  0.45594000000E+02  0.51100000000E-03 0. -1.
         11   -1    0    0    0    0 -0.00000000000E+00 -0.00000000000E+00 -0.45593999997E+02  0.45594000000E+02  0.51100000000E-03 0.  1.
    9900012    2    1    2    0    0  0.25878863555E+02 -0.23562925926E+01  0.31271328523E+02  0.50528884401E+02  0.30000074625E+02 0.  0.
         12    1    1    2    0    0 -0.25878863555E+02  0.23562925926E+01 -0.31271328523E+02  0.40659115599E+02  0.00000000000E+00 0. -1.
         11    1    3    3    0    0  0.72129453691E+01 -0.76003806812E+01  0.11986100287E+02  0.15920394711E+02  0.51100000000E-03 0. -1.
        -11    1    3    3    0    0  0.10555752838E+02  0.14852690568E+01 -0.25964669054E+01  0.10971398398E+02  0.51100000000E-03 0.  1.
        -12    1    3    3    0    0  0.81101653480E+01  0.37588190317E+01  0.21881695141E+02  0.23637091292E+02  0.00000000000E+00 0.  1.
</event>
<event>
 7    1  0.2900470E-011  0.5052886E+02  0.7816164E-02  0.1300439E+00
        -11   -1    0    0    0    0  0.00000000000E+00  0.00000000000E+00  0.45593999997E+02  0.45594000000E+02  0.51100000000E-03 0.  1.
         11   -1    0    0    0    0 -0.00000000000E+00 -0.00000000000E+00 -0.45593999997E+02  0.45594000000E+02  0.51100000000E-03 0. -1.
    9900012    2    1    2    0    0  0.36943004647E+02  0.47705689839E+01  0.16297914564E+02  0.50528856626E+02  0.29999990200E+02 0.  0.
         12    1    1    2    0    0 -0.36943004647E+02 -0.47705689839E+01 -0.16297914564E+02  0.40659143374E+02  0.00000000000E+00 0. -1.
         11    1    3    3    0    0  0.16402703514E+02  0.95424511761E+01 -0.11939985925E+00  0.18976862586E+02  0.51100000000E-03 0. -1.
        -11    1    3    3    0    0  0.21351909724E+02 -0.85060963205E+01  0.12890765252E+02  0.26352031279E+02  0.51100000000E-03 0.  1.
        -12    1    3    3    0    0 -0.81160859050E+00  0.37342141283E+01  0.35265491717E+01  0.51999627615E+01  0.00000000000E+00 0.  1.
</event>
<event>
 7    1  0.2900470E-011  0.5052889E+02  0.7816164E-02  0.1300439E+00
        -11   -1    0    0    0    0  0.00000000000E+00  0.00000000000E+00  0.45593999997E+02  0.45594000000E+02  0.51100000000E-03 0.  1.
         11   -1    0    0    0    0 -0.00000000000E+00 -0.00000000000E+00 -0.45593999997E+02  0.45594000000E+02  0.51100000000E-03 0. -1.
    9900012    2    1    2    0    0  0.14538897824E+02 -0.27259775600E+02  0.26432709405E+02  0.50528892260E+02  0.30000098513E+02 0.  0.
         12    1    1    2    0    0 -0.14538897824E+02  0.27259775600E+02 -0.26432709405E+02  0.40659107740E+02  0.00000000000E+00 0. -1.
         11    1    3    3    0    0 -0.50661699468E+01 -0.84222699777E+01  0.75396897197E+01  0.12387398066E+02  0.51100000000E-03 0. -1.
        -11    1    3    3    0    0  0.20817256574E+02 -0.81246587858E+01  0.12411232686E+02  0.25561826005E+02  0.51100000000E-03 0.  1.
        -12    1    3    3    0    0 -0.12121888038E+01 -0.10712846837E+02  0.64817869992E+01  0.12579668189E+02  0.00000000000E+00 0.  1.
</event>
<event>
 7    1  0.2900470E-011  0.5052880E+02  0.7816164E-02  0.1300439E+00
        -11   -1    0    0    0    0  0.00000000000E+00  0.00000000000E+00  0.45593999997E+02  0.45594000000E+02  0.51100000000E-03 0.  1.
         11   -1    0    0    0    0 -0.00000000000E+00 -0.00000000000E+00 -0.45593999997E+02  0.45594000000E+02  0.51100000000E-03 0. -1.
    9900012    2    1    2    0    0  0.18122686456E+02 -0.33039950565E+02  0.15267614115E+02  0.50528804994E+02  0.29999833260E+02 0.  0.
         12    1    1    2    0    0 -0.18122686456E+02  0.33039950565E+02 -0.15267614115E+02  0.40659195006E+02  0.00000000000E+00 0. -1.
         11    1    3    3    0    0 -0.22876297707E+01  0.38736040985E+01 -0.77053964065E-02  0.44986796190E+01  0.51100000000E-03 0. -1.
        -11    1    3    3    0    0  0.13794625978E+02 -0.15516908216E+02  0.98814799497E+01  0.22993690281E+02  0.51100000000E-03 0.  1.
         12    1    3    3    0    0  0.66156902493E+01 -0.21396646447E+02  0.53938395615E+01  0.23036435095E+02  0.00000000000E+00 0. -1.
</event>
<event>
 7    1  0.2900470E-011  0.5052891E+02  0.7816164E-02  0.1300439E+00
        -11   -1    0    0    0    0  0.00000000000E+00  0.00000000000E+00  0.45593999997E+02  0.45594000000E+02  0.51100000000E-03 0.  1.
         11   -1    0    0    0    0 -0.00000000000E+00 -0.00000000000E+00 -0.45593999997E+02  0.45594000000E+02  0.51100000000E-03 0. -1.
    9900012    2    1    2    0    0  0.37772380019E+02  0.39890197785E+01  0.14508491607E+02  0.50528913687E+02  0.30000163642E+02 0.  0.
         12    1    1    2    0    0 -0.37772380019E+02 -0.39890197785E+01 -0.14508491607E+02  0.40659086313E+02  0.00000000000E+00 0. -1.
         11    1    3    3    0    0 -0.41020932034E+01 -0.42788966175E+00 -0.29733311100E+00  0.41350532586E+01  0.51100000000E-03 0. -1.
        -11    1    3    3    0    0  0.23105074881E+02 -0.21909659999E+01  0.33951858496E+01  0.23455747792E+02  0.51100000000E-03 0.  1.
         12    1    3    3    0    0  0.18769398342E+02  0.66078754402E+01  0.11410638868E+02  0.22938112637E+02  0.00000000000E+00 0. -1.
</event>
<event>
 7    1  0.2900470E-011  0.5052886E+02  0.7816164E-02  0.1300439E+00
        -11   -1    0    0    0    0  0.00000000000E+00  0.00000000000E+00  0.45593999997E+02  0.45594000000E+02  0.51100000000E-03 0.  1.
         11   -1    0    0    0    0 -0.00000000000E+00 -0.00000000000E+00 -0.45593999997E+02  0.45594000000E+02  0.51100000000E-03 0. -1.
    9900012    2    1    2    0    0  0.21098339177E+02 -0.34247993228E+02  0.59245938689E+01  0.50528858732E+02  0.29999996602E+02 0.  0.
         12    1    1    2    0    0 -0.21098339177E+02  0.34247993228E+02 -0.59245938689E+01  0.40659141268E+02  0.00000000000E+00 0. -1.
         11    1    3    3    0    0  0.39041162186E+00  0.29284214903E+01  0.33872490379E+01  0.44946112140E+01  0.51100000000E-03 0. -1.
        -11    1    3    3    0    0  0.19278582867E+02 -0.37264746683E+02 -0.12607227653E+01  0.41975165572E+02  0.51100000000E-03 0.  1.
         12    1    3    3    0    0  0.14293446880E+01  0.88331964704E-01  0.37980675963E+01  0.40590819454E+01  0.00000000000E+00 0. -1.
</event>
<event>
 7    1  0.2900470E-011  0.5052886E+02  0.7816164E-02  0.1300439E+00
        -11   -1    0    0    0    0  0.00000000000E+00  0.00000000000E+00  0.45593999997E+02  0.45594000000E+02  0.51100000000E-03 0.  1.
         11   -1    0    0    0    0 -0.00000000000E+00 -0.00000000000E+00 -0.45593999997E+02  0.45594000000E+02  0.51100000000E-03 0. -1.
    9900012    2    1    2    0    0  0.36509826332E+02 -0.21962518034E+01 -0.17758788483E+02  0.50528861923E+02  0.30000006302E+02 0.  0.
         12    1    1    2    0    0 -0.36509826332E+02  0.21962518034E+01  0.17758788483E+02  0.40659138077E+02  0.00000000000E+00 0. -1.
         11    1    3    3    0    0  0.36837121013E+01  0.11191177498E+01 -0.12462923447E+02  0.13044026238E+02  0.51100000000E-03 0. -1.
        -11    1    3    3    0    0  0.27582337313E+02 -0.85752255204E+01 -0.99387350008E+00  0.28901688691E+02  0.51100000000E-03 0.  1.
        -12    1    3    3    0    0  0.52437769176E+01  0.52598559672E+01 -0.43019915352E+01  0.85831469943E+01  0.00000000000E+00 0.  1.
</event>
<event>
 7    1  0.2900470E-011  0.5052886E+02  0.7816164E-02  0.1300439E+00
        -11   -1    0    0    0    0  0.00000000000E+00  0.00000000000E+00  0.45593999997E+02  0.45594000000E+02  0.51100000000E-03 0. -1.
         11   -1    0    0    0    0 -0.00000000000E+00 -0.00000000000E+00 -0.45593999997E+02  0.45594000000E+02  0.51100000000E-03 0.  1.
    9900012    2    1    2    0    0 -0.34041103583E+01  0.39174731862E+02 -0.10340116216E+02  0.50528860964E+02  0.30000003386E+02 0.  0.
         12    1    1    2    0    0  0.34041103583E+01 -0.39174731862E+02  0.10340116216E+02  0.40659139036E+02  0.00000000000E+00 0. -1.
         11    1    3    3    0    0  0.11330296592E+00 -0.19916025071E+01 -0.42887650272E-01  0.19952838695E+01  0.51100000000E-03 0. -1.
        -11    1    3    3    0    0 -0.96175425363E+01  0.36817148599E+02 -0.31555769160E+01  0.38183206012E+02  0.51100000000E-03 0.  1.
        -12    1    3    3    0    0  0.61001292121E+01  0.43491857700E+01 -0.71416516495E+01  0.10350371083E+02  0.00000000000E+00 0.  1.
</event>
<event>
 7    1  0.2900470E-011  0.5052886E+02  0.7816164E-02  0.1300439E+00
        -11   -1    0    0    0    0  0.00000000000E+00  0.00000000000E+00  0.45593999997E+02  0.45594000000E+02  0.51100000000E-03 0. -1.
         11   -1    0    0    0    0 -0.00000000000E+00 -0.00000000000E+00 -0.45593999997E+02  0.45594000000E+02  0.51100000000E-03 0.  1.
    9900012    2    1    2    0    0 -0.17605620290E+02  0.36287434991E+02 -0.51409930870E+01  0.50528860634E+02  0.30000002383E+02 0.  0.
         12    1    1    2    0    0  0.17605620290E+02 -0.36287434991E+02  0.51409930870E+01  0.40659139366E+02  0.00000000000E+00 0. -1.
         11    1    3    3    0    0 -0.49592927361E+00  0.22696196882E+00  0.32565315467E+01  0.33018866660E+01  0.51100000000E-03 0. -1.
        -11    1    3    3    0    0 -0.14386059352E+02  0.34978251403E+02  0.53608316625E+00  0.37824914544E+02  0.51100000000E-03 0.  1.
        -12    1    3    3    0    0 -0.27236316650E+01  0.10822216200E+01 -0.89336077999E+01  0.94020594236E+01  0.00000000000E+00 0.  1.
</event>
<event>
 7    1  0.2900470E-011  0.5052885E+02  0.7816164E-02  0.1300439E+00
        -11   -1    0    0    0    0  0.00000000000E+00  0.00000000000E+00  0.45593999997E+02  0.45594000000E+02  0.51100000000E-03 0.  1.
         11   -1    0    0    0    0 -0.00000000000E+00 -0.00000000000E+00 -0.45593999997E+02  0.45594000000E+02  0.51100000000E-03 0. -1.
    9900012    2    1    2    0    0 -0.29261108817E+02  0.17531391117E+02  0.22126997277E+02  0.50528853770E+02  0.29999981518E+02 0.  0.
         12    1    1    2    0    0  0.29261108817E+02 -0.17531391117E+02 -0.22126997277E+02  0.40659146230E+02  0.00000000000E+00 0. -1.
         11    1    3    3    0    0  0.17927357718E+01  0.11212186913E+02  0.33055464369E+01  0.11825974566E+02  0.51100000000E-03 0. -1.
        -11    1    3    3    0    0 -0.12617946234E+02  0.41410721294E+01  0.14460692704E+02  0.19633458159E+02  0.51100000000E-03 0.  1.
         12    1    3    3    0    0 -0.18435898354E+02  0.21781320744E+01  0.43607581363E+01  0.19069421045E+02  0.00000000000E+00 0. -1.
</event>
<event>
 7    1  0.2900470E-011  0.5052886E+02  0.7816164E-02  0.1300439E+00
        -11   -1    0    0    0    0  0.00000000000E+00  0.00000000000E+00  0.45593999997E+02  0.45594000000E+02  0.51100000000E-03 0.  1.
         11   -1    0    0    0    0 -0.00000000000E+00 -0.00000000000E+00 -0.45593999997E+02  0.45594000000E+02  0.51100000000E-03 0. -1.
    9900012    2    1    2    0    0 -0.19669874257E+02 -0.14509796872E+01  0.35554978911E+02  0.50528858092E+02  0.29999994656E+02 0.  0.
         12    1    1    2    0    0  0.19669874257E+02  0.14509796872E+01 -0.35554978911E+02  0.40659141908E+02  0.00000000000E+00 0. -1.
         11    1    3    3    0    0 -0.77823383231E+01  0.89884927204E+01  0.23536758222E+02  0.26369239258E+02  0.51100000000E-03 0.  1.
        -11    1    3    3    0    0 -0.46366995046E+01 -0.10993869563E+02  0.11950602457E+02  0.16887304391E+02  0.51100000000E-03 0. -1.
        -12    1    3    3    0    0 -0.72508364298E+01  0.55439715503E+00  0.67618232005E-01  0.72723144433E+01  0.00000000000E+00 0.  1.
</event>
<event>
 7    1  0.2900470E-011  0.5052886E+02  0.7816164E-02  0.1300439E+00
        -11   -1    0    0    0    0  0.00000000000E+00  0.00000000000E+00  0.45593999997E+02  0.45594000000E+02  0.51100000000E-03 0. -1.
         11   -1    0    0    0    0 -0.00000000000E+00 -0.00000000000E+00 -0.45593999997E+02  0.45594000000E+02  0.51100000000E-03 0.  1.
    9900012    2    1    2    0    0  0.10457442465E+02  0.27457086569E+02  0.28105448995E+02  0.50528856269E+02  0.29999989114E+02 0.  0.
         12    1    1    2    0    0 -0.10457442465E+02 -0.27457086569E+02 -0.28105448995E+02  0.40659143731E+02  0.00000000000E+00 0. -1.
         11    1    3    3    0    0 -0.25286392064E+01  0.69788316981E-01  0.29696877224E+01  0.39010168001E+01  0.51100000000E-03 0. -1.
        -11    1    3    3    0    0  0.20186632168E+02  0.17809084326E+02  0.20256611302E+02  0.33689670591E+02  0.51100000000E-03 0.  1.
        -12    1    3    3    0    0 -0.72005504971E+01  0.95782139258E+01  0.48791499712E+01  0.12938168878E+02  0.00000000000E+00 0.  1.
</event>
<event>
 7    1  0.2900470E-011  0.5052886E+02  0.7816164E-02  0.1300439E+00
        -11   -1    0    0    0    0  0.00000000000E+00  0.00000000000E+00  0.45593999997E+02  0.45594000000E+02  0.51100000000E-03 0.  1.
         11   -1    0    0    0    0 -0.00000000000E+00 -0.00000000000E+00 -0.45593999997E+02  0.45594000000E+02  0.51100000000E-03 0. -1.
    9900012    2    1    2    0    0  0.18825445745E+02 -0.11858692221E+02  0.34031448847E+02  0.50528862044E+02  0.30000006670E+02 0.  0.
         12    1    1    2    0    0 -0.18825445745E+02  0.11858692221E+02 -0.34031448847E+02  0.40659137956E+02  0.00000000000E+00 0. -1.
         11    1    3    3    0    0  0.67892807088E+01  0.53928842255E+01  0.93428070599E+01  0.12746198525E+02  0.51100000000E-03 0. -1.
        -11    1    3    3    0    0  0.11293765188E+02 -0.19224290502E+02  0.26757373480E+02  0.34829291024E+02  0.51100000000E-03 0.  1.
        -12    1    3    3    0    0  0.74239984792E+00  0.19727140554E+01 -0.20687316934E+01  0.29533724956E+01  0.00000000000E+00 0.  1.
</event>
<event>
 7    1  0.2900470E-011  0.5052887E+02  0.7816164E-02  0.1300439E+00
        -11   -1    0    0    0    0  0.00000000000E+00  0.00000000000E+00  0.45593999997E+02  0.45594000000E+02  0.51100000000E-03 0. -1.
         11   -1    0    0    0    0 -0.00000000000E+00 -0.00000000000E+00 -0.45593999997E+02  0.45594000000E+02  0.51100000000E-03 0.  1.
    9900012    2    1    2    0    0 -0.39547713972E+02 -0.82935141682E+01  0.45123377300E+01  0.50528865116E+02  0.30000016008E+02 0.  0.
         12    1    1    2    0    0  0.39547713972E+02  0.82935141682E+01 -0.45123377300E+01  0.40659134884E+02  0.00000000000E+00 0. -1.
         11    1    3    3    0    0  0.25366016449E+01  0.36327879409E+00 -0.23361964795E+00  0.25731105278E+01  0.51100000000E-03 0. -1.
        -11    1    3    3    0    0 -0.31749296729E+02  0.20156530608E+01  0.78749259221E+01  0.32773391015E+02  0.51100000000E-03 0.  1.
        -12    1    3    3    0    0 -0.10335018888E+02 -0.10672446023E+02 -0.31289685442E+01  0.15182363574E+02  0.00000000000E+00 0.  1.
</event>
<event>
 7    1  0.2900470E-011  0.5052886E+02  0.7816164E-02  0.1300439E+00
        -11   -1    0    0    0    0  0.00000000000E+00  0.00000000000E+00  0.45593999997E+02  0.45594000000E+02  0.51100000000E-03 0.  1.
         11   -1    0    0    0    0 -0.00000000000E+00 -0.00000000000E+00 -0.45593999997E+02  0.45594000000E+02  0.51100000000E-03 0. -1.
    9900012    2    1    2    0    0  0.24362183501E+02 -0.22604051337E+02  0.23424487779E+02  0.50528858968E+02  0.29999997319E+02 0.  0.
         12    1    1    2    0    0 -0.24362183501E+02  0.22604051337E+02 -0.23424487779E+02  0.40659141032E+02  0.00000000000E+00 0. -1.
         11    1    3    3    0    0 -0.60389371052E+01 -0.94850758663E+01  0.50288382812E+01  0.12317655632E+02  0.51100000000E-03 0. -1.
        -11    1    3    3    0    0  0.23722763680E+02 -0.98637323874E+01  0.11781839535E+02  0.28264367609E+02  0.51100000000E-03 0.  1.
         12    1    3    3    0    0  0.66783569260E+01 -0.32552430832E+01  0.66138099629E+01  0.99468357273E+01  0.00000000000E+00 0. -1.
</event>
<event>
 7    1  0.2900470E-011  0.5052885E+02  0.7816164E-02  0.1300439E+00
        -11   -1    0    0    0    0  0.00000000000E+00  0.00000000000E+00  0.45593999997E+02  0.45594000000E+02  0.51100000000E-03 0. -1.
         11   -1    0    0    0    0 -0.00000000000E+00 -0.00000000000E+00 -0.45593999997E+02  0.45594000000E+02  0.51100000000E-03 0.  1.
    9900012    2    1    2    0    0 -0.10195390900E+02  0.21426783398E+02 -0.33016860968E+02  0.50528854036E+02  0.29999982328E+02 0.  0.
         12    1    1    2    0    0  0.10195390900E+02 -0.21426783398E+02  0.33016860968E+02  0.40659145964E+02  0.00000000000E+00 0. -1.
         11    1    3    3    0    0 -0.16365516563E+01  0.12844680690E+02  0.95913000227E+00  0.12983992220E+02  0.51100000000E-03 0. -1.
        -11    1    3    3    0    0 -0.93592544621E+01  0.69104954981E+01 -0.33724133539E+02  0.35674469517E+02  0.51100000000E-03 0.  1.
        -12    1    3    3    0    0  0.80041521853E+00  0.16716072099E+01 -0.25185743056E+00  0.18703922988E+01  0.00000000000E+00 0.  1.
</event>
<event>
 7    1  0.2900470E-011  0.5052885E+02  0.7816164E-02  0.1300439E+00
        -11   -1    0    0    0    0  0.00000000000E+00  0.00000000000E+00  0.45593999997E+02  0.45594000000E+02  0.51100000000E-03 0. -1.
         11   -1    0    0    0    0 -0.00000000000E+00 -0.00000000000E+00 -0.45593999997E+02  0.45594000000E+02  0.51100000000E-03 0.  1.
    9900012    2    1    2    0    0  0.17224287078E+02 -0.21714204036E+01 -0.36766495577E+02  0.50528851842E+02  0.29999975658E+02 0.  0.
         12    1    1    2    0    0 -0.17224287078E+02  0.21714204036E+01  0.36766495577E+02  0.40659148158E+02  0.00000000000E+00 0. -1.
         11    1    3    3    0    0 -0.15051772048E+01 -0.50820756692E+01  0.17487177529E+01  0.55813139641E+01  0.51100000000E-03 0. -1.
        -11    1    3    3    0    0  0.12081382843E+02  0.45719119022E+01 -0.34870165273E+02  0.37185892705E+02  0.51100000000E-03 0.  1.
        -12    1    3    3    0    0  0.66480814404E+01 -0.16612566366E+01 -0.36450480571E+01  0.77616451729E+01  0.00000000000E+00 0.  1.
</event>
<event>
 7    1  0.2900470E-011  0.5052888E+02  0.7816164E-02  0.1300439E+00
        -11   -1    0    0    0    0  0.00000000000E+00  0.00000000000E+00  0.45593999997E+02  0.45594000000E+02  0.51100000000E-03 0.  1.
         11   -1    0    0    0    0 -0.00000000000E+00 -0.00000000000E+00 -0.45593999997E+02  0.45594000000E+02  0.51100000000E-03 0. -1.
    9900012    2    1    2    0    0  0.27888977273E+01 -0.32632526633E+02  0.24093659975E+02  0.50528878072E+02  0.30000055386E+02 0.  0.
         12    1    1    2    0    0 -0.27888977273E+01  0.32632526633E+02 -0.24093659975E+02  0.40659121928E+02  0.00000000000E+00 0. -1.
         11    1    3    3    0    0 -0.58178085705E+01 -0.43291874418E+00 -0.34599141597E+01  0.67827222747E+01  0.51100000000E-03 0. -1.
        -11    1    3    3    0    0  0.82025123129E+01 -0.23533637959E+02  0.17422342856E+02  0.30408080417E+02  0.51100000000E-03 0.  1.
         12    1    3    3    0    0  0.40419398486E+00 -0.86659699306E+01  0.10131231279E+02  0.13338075380E+02  0.00000000000E+00 0. -1.
</event>
<event>
 7    1  0.2900470E-011  0.5052885E+02  0.7816164E-02  0.1300439E+00
        -11   -1    0    0    0    0  0.00000000000E+00  0.00000000000E+00  0.45593999997E+02  0.45594000000E+02  0.51100000000E-03 0.  1.
         11   -1    0    0    0    0 -0.00000000000E+00 -0.00000000000E+00 -0.45593999997E+02  0.45594000000E+02  0.51100000000E-03 0. -1.
    9900012    2    1    2    0    0  0.19350877473E+02  0.48845711800E+01  0.35423874493E+02  0.50528851230E+02  0.29999973799E+02 0.  0.
         12    1    1    2    0    0 -0.19350877473E+02 -0.48845711800E+01 -0.35423874493E+02  0.40659148770E+02  0.00000000000E+00 0. -1.
         11    1    3    3    0    0  0.85465503810E+01  0.67585486925E+01  0.12957378508E+01  0.10972713460E+02  0.51100000000E-03 0. -1.
        -11    1    3    3    0    0 -0.11922429359E+00  0.35854990641E+01  0.22190969635E+02  0.22479082534E+02  0.51100000000E-03 0.  1.
        -12    1    3    3    0    0  0.10923551386E+02 -0.54594765766E+01  0.11937167008E+02  0.17077055236E+02  0.00000000000E+00 0.  1.
</event>
<event>
 7    1  0.2900470E-011  0.5052886E+02  0.7816164E-02  0.1300439E+00
        -11   -1    0    0    0    0  0.00000000000E+00  0.00000000000E+00  0.45593999997E+02  0.45594000000E+02  0.51100000000E-03 0.  1.
         11   -1    0    0    0    0 -0.00000000000E+00 -0.00000000000E+00 -0.45593999997E+02  0.45594000000E+02  0.51100000000E-03 0. -1.
    9900012    2    1    2    0    0  0.21715978079E+01 -0.34265478821E+02  0.21779045922E+02  0.50528859365E+02  0.29999998527E+02 0.  0.
         12    1    1    2    0    0 -0.21715978079E+01  0.34265478821E+02 -0.21779045922E+02  0.40659140635E+02  0.00000000000E+00 0. -1.
         11    1    3    3    0    0 -0.49210467371E+01 -0.64336094597E+00  0.57121782410E+01  0.75670069918E+01  0.51100000000E-03 0. -1.
        -11    1    3    3    0    0  0.33799376945E+01 -0.35116741664E+02  0.12020836985E+02  0.37270766641E+02  0.51100000000E-03 0.  1.
        -12    1    3    3    0    0  0.37127068504E+01  0.14946237887E+01  0.40460306960E+01  0.56910857330E+01  0.00000000000E+00 0.  1.
</event>
<event>
 7    1  0.2900470E-011  0.5052887E+02  0.7816164E-02  0.1300439E+00
        -11   -1    0    0    0    0  0.00000000000E+00  0.00000000000E+00  0.45593999997E+02  0.45594000000E+02  0.51100000000E-03 0.  1.
         11   -1    0    0    0    0 -0.00000000000E+00 -0.00000000000E+00 -0.45593999997E+02  0.45594000000E+02  0.51100000000E-03 0. -1.
    9900012    2    1    2    0    0 -0.25181239420E+02  0.27970508906E+02  0.15385730527E+02  0.50528869524E+02  0.30000029405E+02 0.  0.
         12    1    1    2    0    0  0.25181239420E+02 -0.27970508906E+02 -0.15385730527E+02  0.40659130476E+02  0.00000000000E+00 0. -1.
         11    1    3    3    0    0 -0.13226659520E+02  0.53151146749E+01 -0.71447419821E+01  0.15944977401E+02  0.51100000000E-03 0. -1.
        -11    1    3    3    0    0 -0.39827888885E+01  0.80958430869E+01  0.11655573973E+02  0.14739663752E+02  0.51100000000E-03 0.  1.
         12    1    3    3    0    0 -0.79717910115E+01  0.14559551145E+02  0.10874898537E+02  0.19844228371E+02  0.00000000000E+00 0. -1.
</event>
<event>
 7    1  0.2900470E-011  0.5052884E+02  0.7816164E-02  0.1300439E+00
        -11   -1    0    0    0    0  0.00000000000E+00  0.00000000000E+00  0.45593999997E+02  0.45594000000E+02  0.51100000000E-03 0.  1.
         11   -1    0    0    0    0 -0.00000000000E+00 -0.00000000000E+00 -0.45593999997E+02  0.45594000000E+02  0.51100000000E-03 0. -1.
    9900012    2    1    2    0    0 -0.29504541997E+01 -0.38826016097E+02  0.11704816260E+02  0.50528838307E+02  0.29999934516E+02 0.  0.
         12    1    1    2    0    0  0.29504541997E+01  0.38826016097E+02 -0.11704816260E+02  0.40659161693E+02  0.00000000000E+00 0. -1.
         11    1    3    3    0    0  0.51637031837E+01 -0.34814470105E+02  0.13432382044E+02  0.37671475242E+02  0.51100000000E-03 0.  1.
        -11    1    3    3    0    0 -0.44601145849E+01 -0.68043783490E+01 -0.91726229447E+00  0.81874023478E+01  0.51100000000E-03 0. -1.
         12    1    3    3    0    0 -0.36540427984E+01  0.27928323574E+01 -0.81030348981E+00  0.46699607166E+01  0.00000000000E+00 0. -1.
</event>
<event>
 7    1  0.2900470E-011  0.5052886E+02  0.7816164E-02  0.1300439E+00
        -11   -1    0    0    0    0  0.00000000000E+00  0.00000000000E+00  0.45593999997E+02  0.45594000000E+02  0.51100000000E-03 0.  1.
         11   -1    0    0    0    0 -0.00000000000E+00 -0.00000000000E+00 -0.45593999997E+02  0.45594000000E+02  0.51100000000E-03 0. -1.
    9900012    2    1    2    0    0  0.32716473974E+02 -0.15262936148E+02  0.18704031558E+02  0.50528859752E+02  0.29999999703E+02 0.  0.
         12    1    1    2    0    0 -0.32716473974E+02  0.15262936148E+02 -0.18704031558E+02  0.40659140248E+02  0.00000000000E+00 0. -1.
         11    1    3    3    0    0 -0.71837983001E+00 -0.38512480289E+01  0.86383508294E+00  0.40117816830E+01  0.51100000000E-03 0. -1.
        -11    1    3    3    0    0  0.16252690044E+02  0.32740959594E+01  0.17222254379E+02  0.23905557600E+02  0.51100000000E-03 0.  1.
        -12    1    3    3    0    0  0.17182163761E+02 -0.14685784078E+02  0.61794209546E+00  0.22611520469E+02  0.00000000000E+00 0.  1.
</event>
<event>
 7    1  0.2900470E-011  0.5052886E+02  0.7816164E-02  0.1300439E+00
        -11   -1    0    0    0    0  0.00000000000E+00  0.00000000000E+00  0.45593999997E+02  0.45594000000E+02  0.51100000000E-03 0. -1.
         11   -1    0    0    0    0 -0.00000000000E+00 -0.00000000000E+00 -0.45593999997E+02  0.45594000000E+02  0.51100000000E-03 0.  1.
    9900012    2    1    2    0    0  0.35217124224E+01  0.39669668452E+02 -0.81902873005E+01  0.50528857615E+02  0.29999993205E+02 0.  0.
         12    1    1    2    0    0 -0.35217124224E+01 -0.39669668452E+02  0.81902873005E+01  0.40659142385E+02  0.00000000000E+00 0. -1.
         11    1    3    3    0    0 -0.65026028977E+01  0.27799601953E+02  0.27494151645E+01  0.28682067520E+02  0.51100000000E-03 0. -1.
        -11    1    3    3    0    0  0.10783638211E+02  0.96078231075E+01 -0.47353534662E+01  0.15199364810E+02  0.51100000000E-03 0.  1.
         12    1    3    3    0    0 -0.75932289072E+00  0.22622433909E+01 -0.62043489989E+01  0.66474252844E+01  0.00000000000E+00 0. -1.
</event>
<event>
 7    1  0.2900470E-011  0.5052888E+02  0.7816164E-02  0.1300439E+00
        -11   -1    0    0    0    0  0.00000000000E+00  0.00000000000E+00  0.45593999997E+02  0.45594000000E+02  0.51100000000E-03 0. -1.
         11   -1    0    0    0    0 -0.00000000000E+00 -0.00000000000E+00 -0.45593999997E+02  0.45594000000E+02  0.51100000000E-03 0.  1.
    9900012    2    1    2    0    0 -0.38061335087E+02  0.13802537334E+02  0.37401163117E+01  0.50528883735E+02  0.30000072600E+02 0.  0.
         12    1    1    2    0    0  0.38061335087E+02 -0.13802537334E+02 -0.37401163117E+01  0.40659116265E+02  0.00000000000E+00 0. -1.
         11    1    3    3    0    0 -0.15198813194E+02 -0.77551836103E+00  0.71399864983E+01  0.16810257544E+02  0.51100000000E-03 0. -1.
        -11    1    3    3    0    0 -0.96019713473E+01  0.10759116794E+02 -0.10840578898E+02  0.18040914584E+02  0.51100000000E-03 0.  1.
        -12    1    3    3    0    0 -0.13260550545E+02  0.38189389009E+01  0.74407087110E+01  0.15677711607E+02  0.00000000000E+00 0.  1.
</event>
<event>
 7    1  0.2900470E-011  0.5052886E+02  0.7816164E-02  0.1300439E+00
        -11   -1    0    0    0    0  0.00000000000E+00  0.00000000000E+00  0.45593999997E+02  0.45594000000E+02  0.51100000000E-03 0.  1.
         11   -1    0    0    0    0 -0.00000000000E+00 -0.00000000000E+00 -0.45593999997E+02  0.45594000000E+02  0.51100000000E-03 0. -1.
    9900012    2    1    2    0    0 -0.27624721381E+02 -0.16542373966E+02  0.24827212712E+02  0.50528857623E+02  0.29999993231E+02 0.  0.
         12    1    1    2    0    0  0.27624721381E+02  0.16542373966E+02 -0.24827212712E+02  0.40659142377E+02  0.00000000000E+00 0. -1.
         11    1    3    3    0    0 -0.15927176096E+01  0.26054718640E+01 -0.24947738633E+01  0.39432385051E+01  0.51100000000E-03 0. -1.
        -11    1    3    3    0    0 -0.12581974156E+02 -0.19861085219E+02  0.21685605518E+02  0.31984906858E+02  0.51100000000E-03 0.  1.
        -12    1    3    3    0    0 -0.13450029616E+02  0.71323938944E+00  0.56363810564E+01  0.14600712260E+02  0.00000000000E+00 0.  1.
</event>
<event>
 7    1  0.2900470E-011  0.5052885E+02  0.7816164E-02  0.1300439E+00
        -11   -1    0    0    0    0  0.00000000000E+00  0.00000000000E+00  0.45593999997E+02  0.45594000000E+02  0.51100000000E-03 0.  1.
         11   -1    0    0    0    0 -0.00000000000E+00 -0.00000000000E+00 -0.45593999997E+02  0.45594000000E+02  0.51100000000E-03 0. -1.
    9900012    2    1    2    0    0 -0.88976700437E+01  0.47916956242E+00  0.39670753091E+02  0.50528846216E+02  0.29999958557E+02 0.  0.
         12    1    1    2    0    0  0.88976700437E+01 -0.47916956242E+00 -0.39670753091E+02  0.40659153784E+02  0.00000000000E+00 0. -1.
         11    1    3    3    0    0  0.21645335849E+01  0.15535686030E+00  0.90520461711E+01  0.93085380989E+01  0.51100000000E-03 0. -1.
        -11    1    3    3    0    0 -0.16774638376E+02 -0.44011025968E+01  0.28749231481E+02  0.33574938685E+02  0.51100000000E-03 0.  1.
        -12    1    3    3    0    0  0.57124347475E+01  0.47249152990E+01  0.18694754389E+01  0.76453694315E+01  0.00000000000E+00 0.  1.
</event>
<event>
 7    1  0.2900470E-011  0.5052886E+02  0.7816164E-02  0.1300439E+00
        -11   -1    0    0    0    0  0.00000000000E+00  0.00000000000E+00  0.45593999997E+02  0.45594000000E+02  0.51100000000E-03 0.  1.
         11   -1    0    0    0    0 -0.00000000000E+00 -0.00000000000E+00 -0.45593999997E+02  0.45594000000E+02  0.51100000000E-03 0. -1.
    9900012    2    1    2    0    0 -0.20364531296E+02 -0.13051455799E+02  0.32681961975E+02  0.50528864841E+02  0.30000015171E+02 0.  0.
         12    1    1    2    0    0  0.20364531296E+02  0.13051455799E+02 -0.32681961975E+02  0.40659135159E+02  0.00000000000E+00 0. -1.
         11    1    3    3    0    0 -0.10239446900E+02 -0.16292242064E+02  0.25703722779E+02  0.32108640415E+02  0.51100000000E-03 0. -1.
        -11    1    3    3    0    0 -0.11581288084E+01  0.38394335673E+01  0.84125938700E+01  0.93195626688E+01  0.51100000000E-03 0.  1.
         12    1    3    3    0    0 -0.89669555870E+01 -0.59864730146E+00 -0.14343546744E+01  0.91006617574E+01  0.00000000000E+00 0. -1.
</event>
<event>
 7    1  0.2900470E-011  0.5052886E+02  0.7816164E-02  0.1300439E+00
        -11   -1    0    0    0    0  0.00000000000E+00  0.00000000000E+00  0.45593999997E+02  0.45594000000E+02  0.51100000000E-03 0.  1.
         11   -1    0    0    0    0 -0.00000000000E+00 -0.00000000000E+00 -0.45593999997E+02  0.45594000000E+02  0.51100000000E-03 0. -1.
    9900012    2    1    2    0    0 -0.30680026091E+02 -0.26275480974E+02  0.46368524383E+01  0.50528864472E+02  0.30000014049E+02 0.  0.
         12    1    1    2    0    0  0.30680026091E+02  0.26275480974E+02 -0.46368524383E+01  0.40659135528E+02  0.00000000000E+00 0. -1.
         11    1    3    3    0    0 -0.64537610595E+00 -0.91890312675E+01 -0.71378105452E+01  0.11653460670E+02  0.51100000000E-03 0. -1.
        -11    1    3    3    0    0 -0.31468055670E+01  0.47979092254E+00  0.51923510306E+01  0.60904100102E+01  0.51100000000E-03 0.  1.
         12    1    3    3    0    0 -0.26887844418E+02 -0.17566240629E+02  0.65823119529E+01  0.32784993792E+02  0.00000000000E+00 0. -1.
</event>
<event>
 7    1  0.2900470E-011  0.5052885E+02  0.7816164E-02  0.1300439E+00
        -11   -1    0    0    0    0  0.00000000000E+00  0.00000000000E+00  0.45593999997E+02  0.45594000000E+02  0.51100000000E-03 0.  1.
         11   -1    0    0    0    0 -0.00000000000E+00 -0.00000000000E+00 -0.45593999997E+02  0.45594000000E+02  0.51100000000E-03 0. -1.
    9900012    2    1    2    0    0  0.25084949558E+02  0.72188443540E+01  0.31173706635E+02  0.50528851048E+02  0.29999973245E+02 0.  0.
         12    1    1    2    0    0 -0.25084949558E+02 -0.72188443540E+01 -0.31173706635E+02  0.40659148952E+02  0.00000000000E+00 0. -1.
         11    1    3    3    0    0  0.15509361526E+01  0.57418000029E+01  0.57988921178E+01  0.83066732377E+01  0.51100000000E-03 0. -1.
        -11    1    3    3    0    0  0.52191739851E+01 -0.61490282067E+01 -0.20990759086E+01  0.83340533299E+01  0.51100000000E-03 0.  1.
        -12    1    3    3    0    0  0.18314839420E+02  0.76260725578E+01  0.27473890426E+02  0.33888124480E+02  0.00000000000E+00 0.  1.
</event>
<event>
 7    1  0.2900470E-011  0.5052886E+02  0.7816164E-02  0.1300439E+00
        -11   -1    0    0    0    0  0.00000000000E+00  0.00000000000E+00  0.45593999997E+02  0.45594000000E+02  0.51100000000E-03 0. -1.
         11   -1    0    0    0    0 -0.00000000000E+00 -0.00000000000E+00 -0.45593999997E+02  0.45594000000E+02  0.51100000000E-03 0.  1.
    9900012    2    1    2    0    0  0.23262579577E+02  0.13218111625E+02 -0.30615346761E+02  0.50528861534E+02  0.30000005120E+02 0.  0.
         12    1    1    2    0    0 -0.23262579577E+02 -0.13218111625E+02  0.30615346761E+02  0.40659138466E+02  0.00000000000E+00 0. -1.
         11    1    3    3    0    0  0.99450428313E+01  0.12426818194E+02 -0.10492895079E+02  0.19063854142E+02  0.51100000000E-03 0. -1.
        -11    1    3    3    0    0  0.17132855776E+02 -0.36127906676E+01 -0.18375218375E+02  0.25381797691E+02  0.51100000000E-03 0.  1.
        -12    1    3    3    0    0 -0.38153190302E+01  0.44040840986E+01 -0.17472333072E+01  0.60832097021E+01  0.00000000000E+00 0.  1.
</event>
<event>
 7    1  0.2900470E-011  0.5052886E+02  0.7816164E-02  0.1300439E+00
        -11   -1    0    0    0    0  0.00000000000E+00  0.00000000000E+00  0.45593999997E+02  0.45594000000E+02  0.51100000000E-03 0.  1.
         11   -1    0    0    0    0 -0.00000000000E+00 -0.00000000000E+00 -0.45593999997E+02  0.45594000000E+02  0.51100000000E-03 0. -1.
    9900012    2    1    2    0    0  0.13479747857E+00  0.26299706130E+02  0.31007630038E+02  0.50528857935E+02  0.29999994179E+02 0.  0.
         12    1    1    2    0    0 -0.13479747857E+00 -0.26299706130E+02 -0.31007630038E+02  0.40659142065E+02  0.00000000000E+00 0. -1.
         11    1    3    3    0    0 -0.59339711509E+01  0.27179459783E+02  0.18949253624E+02  0.33660202924E+02  0.51100000000E-03 0. -1.
        -11    1    3    3    0    0  0.35689235480E+01 -0.47512753949E+01  0.28914215482E+01  0.66084909019E+01  0.51100000000E-03 0.  1.
        -12    1    3    3    0    0  0.24998450815E+01  0.38715217413E+01  0.91669548660E+01  0.10260164109E+02  0.00000000000E+00 0.  1.
</event>
<event>
 7    1  0.2900470E-011  0.5052885E+02  0.7816164E-02  0.1300439E+00
        -11   -1    0    0    0    0  0.00000000000E+00  0.00000000000E+00  0.45593999997E+02  0.45594000000E+02  0.51100000000E-03 0.  1.
         11   -1    0    0    0    0 -0.00000000000E+00 -0.00000000000E+00 -0.45593999997E+02  0.45594000000E+02  0.51100000000E-03 0. -1.
    9900012    2    1    2    0    0  0.29890939046E+02  0.19853461482E+02  0.19119046190E+02  0.50528854694E+02  0.29999984326E+02 0.  0.
         12    1    1    2    0    0 -0.29890939046E+02 -0.19853461482E+02 -0.19119046190E+02  0.40659145306E+02  0.00000000000E+00 0. -1.
         11    1    3    3    0    0  0.52658018129E+01  0.75950265949E+01  0.18387100576E+02  0.20579080775E+02  0.51100000000E-03 0.  1.
        -11    1    3    3    0    0  0.23813855901E+02  0.74558023424E+01 -0.36799865448E+00  0.24956444954E+02  0.51100000000E-03 0. -1.
        -12    1    3    3    0    0  0.81128133165E+00  0.48026325444E+01  0.10999442685E+01  0.49933289646E+01  0.00000000000E+00 0.  1.
</event>
<event>
 7    1  0.2900470E-011  0.5052886E+02  0.7816164E-02  0.1300439E+00
        -11   -1    0    0    0    0  0.00000000000E+00  0.00000000000E+00  0.45593999997E+02  0.45594000000E+02  0.51100000000E-03 0.  1.
         11   -1    0    0    0    0 -0.00000000000E+00 -0.00000000000E+00 -0.45593999997E+02  0.45594000000E+02  0.51100000000E-03 0. -1.
    9900012    2    1    2    0    0 -0.36799396102E+02 -0.53325461538E+01  0.16447921008E+02  0.50528859485E+02  0.29999998890E+02 0.  0.
         12    1    1    2    0    0  0.36799396102E+02  0.53325461538E+01 -0.16447921008E+02  0.40659140515E+02  0.00000000000E+00 0. -1.
         11    1    3    3    0    0  0.19073621277E+01 -0.50069213089E+01  0.48591394747E+01  0.72331547734E+01  0.51100000000E-03 0. -1.
        -11    1    3    3    0    0 -0.33474465024E+02 -0.51878632803E+01  0.12475084846E+02  0.36098219848E+02  0.51100000000E-03 0.  1.
         12    1    3    3    0    0 -0.52322932060E+01  0.48622384355E+01 -0.88630331291E+00  0.71974848634E+01  0.00000000000E+00 0. -1.
</event>
<event>
 7    1  0.2900470E-011  0.5052887E+02  0.7816164E-02  0.1300439E+00
        -11   -1    0    0    0    0  0.00000000000E+00  0.00000000000E+00  0.45593999997E+02  0.45594000000E+02  0.51100000000E-03 0. -1.
         11   -1    0    0    0    0 -0.00000000000E+00 -0.00000000000E+00 -0.45593999997E+02  0.45594000000E+02  0.51100000000E-03 0.  1.
    9900012    2    1    2    0    0 -0.27917682995E+02  0.67898733784E+00 -0.29551763169E+02  0.50528871209E+02  0.30000034528E+02 0.  0.
         12    1    1    2    0    0  0.27917682995E+02 -0.67898733784E+00  0.29551763169E+02  0.40659128791E+02  0.00000000000E+00 0. -1.
         11    1    3    3    0    0 -0.88013636591E+01 -0.22868564292E+01  0.32500860443E+01  0.96569547034E+01  0.51100000000E-03 0. -1.
        -11    1    3    3    0    0 -0.28190610556E+01 -0.28671914126E+01 -0.16883031333E+02  0.17355248172E+02  0.51100000000E-03 0.  1.
        -12    1    3    3    0    0 -0.16297258280E+02  0.58330351797E+01 -0.15918817880E+02  0.23516668334E+02  0.00000000000E+00 0.  1.
</event>
<event>
 7    1  0.2900470E-011  0.5052886E+02  0.7816164E-02  0.1300439E+00
        -11   -1    0    0    0    0  0.00000000000E+00  0.00000000000E+00  0.45593999997E+02  0.45594000000E+02  0.51100000000E-03 0.  1.
         11   -1    0    0    0    0 -0.00000000000E+00 -0.00000000000E+00 -0.45593999997E+02  0.45594000000E+02  0.51100000000E-03 0. -1.
    9900012    2    1    2    0    0  0.99956114847E+01 -0.11330262083E+02  0.37747565554E+02  0.50528858431E+02  0.29999995688E+02 0.  0.
         12    1    1    2    0    0 -0.99956114847E+01  0.11330262083E+02 -0.37747565554E+02  0.40659141569E+02  0.00000000000E+00 0. -1.
         11    1    3    3    0    0 -0.15826732751E+00 -0.13329599131E+01 -0.20167683304E+01  0.24226401789E+01  0.51100000000E-03 0. -1.
        -11    1    3    3    0    0  0.68127427459E+01 -0.20770012026E+01  0.38808969417E+02  0.39457109692E+02  0.51100000000E-03 0.  1.
        -12    1    3    3    0    0  0.33411360663E+01 -0.79203009676E+01  0.95536446718E+00  0.86491085608E+01  0.00000000000E+00 0.  1.
</event>
<event>
 7    1  0.2900470E-011  0.5052886E+02  0.7816164E-02  0.1300439E+00
        -11   -1    0    0    0    0  0.00000000000E+00  0.00000000000E+00  0.45593999997E+02  0.45594000000E+02  0.51100000000E-03 0. -1.
         11   -1    0    0    0    0 -0.00000000000E+00 -0.00000000000E+00 -0.45593999997E+02  0.45594000000E+02  0.51100000000E-03 0.  1.
    9900012    2    1    2    0    0  0.24335219171E+02 -0.32547790524E+02  0.12666091251E+01  0.50528857624E+02  0.29999993233E+02 0.  0.
         12    1    1    2    0    0 -0.24335219171E+02  0.32547790524E+02 -0.12666091251E+01  0.40659142376E+02  0.00000000000E+00 0. -1.
         11    1    3    3    0    0  0.12734041979E+02  0.74634585243E+00 -0.20625842434E+01  0.12921575418E+02  0.51100000000E-03 0.  1.
        -11    1    3    3    0    0 -0.15310990779E+01 -0.12322395467E+02  0.33578677926E+01  0.12863163328E+02  0.51100000000E-03 0. -1.
         12    1    3    3    0    0  0.13132276270E+02 -0.20971740909E+02 -0.28674424120E-01  0.24744118878E+02  0.00000000000E+00 0. -1.
</event>
<event>
 7    1  0.2900470E-011  0.5052888E+02  0.7816164E-02  0.1300439E+00
        -11   -1    0    0    0    0  0.00000000000E+00  0.00000000000E+00  0.45593999997E+02  0.45594000000E+02  0.51100000000E-03 0.  1.
         11   -1    0    0    0    0 -0.00000000000E+00 -0.00000000000E+00 -0.45593999997E+02  0.45594000000E+02  0.51100000000E-03 0. -1.
    9900012    2    1    2    0    0  0.23273747044E+02  0.23240255411E+02  0.23903714613E+02  0.50528876235E+02  0.30000049803E+02 0.  0.
         12    1    1    2    0    0 -0.23273747044E+02 -0.23240255411E+02 -0.23903714613E+02  0.40659123765E+02  0.00000000000E+00 0. -1.
         11    1    3    3    0    0  0.25598343761E+02  0.13033409469E+02  0.20395670108E+02  0.35229651220E+02  0.51100000000E-03 0.  1.
        -11    1    3    3    0    0 -0.64848381877E+01  0.49131948128E+01  0.23415767016E+01  0.84661438271E+01  0.51100000000E-03 0. -1.
        -12    1    3    3    0    0  0.41602414709E+01  0.52936511297E+01  0.11664678030E+01  0.68330811875E+01  0.00000000000E+00 0.  1.
</event>
<event>
 7    1  0.2900470E-011  0.5052887E+02  0.7816164E-02  0.1300439E+00
        -11   -1    0    0    0    0  0.00000000000E+00  0.00000000000E+00  0.45593999997E+02  0.45594000000E+02  0.51100000000E-03 0.  1.
         11   -1    0    0    0    0 -0.00000000000E+00 -0.00000000000E+00 -0.45593999997E+02  0.45594000000E+02  0.51100000000E-03 0. -1.
    9900012    2    1    2    0    0 -0.88798036040E+01  0.39577070361E+02 -0.28230899042E+01  0.50528865147E+02  0.30000016100E+02 0.  0.
         12    1    1    2    0    0  0.88798036040E+01 -0.39577070361E+02  0.28230899042E+01  0.40659134853E+02  0.00000000000E+00 0. -1.
         11    1    3    3    0    0  0.21833404896E+01  0.28282283631E+02 -0.10491293737E+02  0.30244367866E+02  0.51100000000E-03 0. -1.
        -11    1    3    3    0    0 -0.61054150361E+01  0.11754373432E+02  0.76692436051E+01  0.15305511598E+02  0.51100000000E-03 0.  1.
         12    1    3    3    0    0 -0.49577290575E+01 -0.45958670256E+00 -0.10397727582E-02  0.49789856824E+01  0.00000000000E+00 0. -1.
</event>
<event>
 7    1  0.2900470E-011  0.5052885E+02  0.7816164E-02  0.1300439E+00
        -11   -1    0    0    0    0  0.00000000000E+00  0.00000000000E+00  0.45593999997E+02  0.45594000000E+02  0.51100000000E-03 0.  1.
         11   -1    0    0    0    0 -0.00000000000E+00 -0.00000000000E+00 -0.45593999997E+02  0.45594000000E+02  0.51100000000E-03 0. -1.
    9900012    2    1    2    0    0  0.38613416957E+00 -0.61659821714E+01  0.40187033920E+02  0.50528854276E+02  0.29999983056E+02 0.  0.
         12    1    1    2    0    0 -0.38613416957E+00  0.61659821714E+01 -0.40187033920E+02  0.40659145724E+02  0.00000000000E+00 0. -1.
         11    1    3    3    0    0 -0.52428289412E+01 -0.84592876763E+01  0.30736064876E+02  0.32307158457E+02  0.51100000000E-03 0.  1.
        -11    1    3    3    0    0  0.81410342051E+01  0.64424194314E+01  0.81536261938E+01  0.13200864609E+02  0.51100000000E-03 0. -1.
        -12    1    3    3    0    0 -0.25120710944E+01 -0.41491139265E+01  0.12973428508E+01  0.50208312091E+01  0.00000000000E+00 0.  1.
</event>
<event>
 7    1  0.2900470E-011  0.5052886E+02  0.7816164E-02  0.1300439E+00
        -11   -1    0    0    0    0  0.00000000000E+00  0.00000000000E+00  0.45593999997E+02  0.45594000000E+02  0.51100000000E-03 0. -1.
         11   -1    0    0    0    0 -0.00000000000E+00 -0.00000000000E+00 -0.45593999997E+02  0.45594000000E+02  0.51100000000E-03 0.  1.
    9900012    2    1    2    0    0 -0.38583058330E+01 -0.38297814784E+02  0.13097949849E+02  0.50528862879E+02  0.30000009208E+02 0.  0.
         12    1    1    2    0    0  0.38583058330E+01  0.38297814784E+02 -0.13097949849E+02  0.40659137121E+02  0.00000000000E+00 0. -1.
         11    1    3    3    0    0  0.57862939968E+01 -0.24317410542E+01 -0.32545359082E+01  0.70701178923E+01  0.51100000000E-03 0. -1.
        -11    1    3    3    0    0 -0.12693497306E+02 -0.17835700279E+02  0.10328939726E+02  0.24205868594E+02  0.51100000000E-03 0.  1.
        -12    1    3    3    0    0  0.30488974758E+01 -0.18030373452E+02  0.60235460307E+01  0.19252876393E+02  0.00000000000E+00 0.  1.
</event>
<event>
 7    1  0.2900470E-011  0.5052886E+02  0.7816164E-02  0.1300439E+00
        -11   -1    0    0    0    0  0.00000000000E+00  0.00000000000E+00  0.45593999997E+02  0.45594000000E+02  0.51100000000E-03 0.  1.
         11   -1    0    0    0    0 -0.00000000000E+00 -0.00000000000E+00 -0.45593999997E+02  0.45594000000E+02  0.51100000000E-03 0. -1.
    9900012    2    1    2    0    0 -0.15984178900E+02 -0.38651279563E+00  0.37383445096E+02  0.50528864071E+02  0.30000012831E+02 0.  0.
         12    1    1    2    0    0  0.15984178900E+02  0.38651279563E+00 -0.37383445096E+02  0.40659135929E+02  0.00000000000E+00 0. -1.
         11    1    3    3    0    0 -0.78844944310E+00  0.10052735092E+02  0.12445473142E+02  0.16017769425E+02  0.51100000000E-03 0. -1.
        -11    1    3    3    0    0 -0.77551243292E+01 -0.11982845022E+02  0.22281313361E+02  0.26461055413E+02  0.51100000000E-03 0.  1.
        -12    1    3    3    0    0 -0.74406051281E+01  0.15435971348E+01  0.26566585924E+01  0.80500392337E+01  0.00000000000E+00 0.  1.
</event>
<event>
 7    1  0.2900470E-011  0.5052887E+02  0.7816164E-02  0.1300439E+00
        -11   -1    0    0    0    0  0.00000000000E+00  0.00000000000E+00  0.45593999997E+02  0.45594000000E+02  0.51100000000E-03 0.  1.
         11   -1    0    0    0    0 -0.00000000000E+00 -0.00000000000E+00 -0.45593999997E+02  0.45594000000E+02  0.51100000000E-03 0. -1.
    9900012    2    1    2    0    0 -0.11960112218E+01  0.18542271412E+02  0.36165160574E+02  0.50528866816E+02  0.30000021173E+02 0.  0.
         12    1    1    2    0    0  0.11960112218E+01 -0.18542271412E+02 -0.36165160574E+02  0.40659133184E+02  0.00000000000E+00 0. -1.
         11    1    3    3    0    0 -0.13029890958E+02  0.28515819686E+01  0.76911171608E+01  0.15396845831E+02  0.51100000000E-03 0. -1.
        -11    1    3    3    0    0  0.14607191735E+01  0.54935382461E+01  0.11115337991E+02  0.12484526498E+02  0.51100000000E-03 0.  1.
         12    1    3    3    0    0  0.10373160563E+02  0.10197151197E+02  0.17358705423E+02  0.22647494487E+02  0.00000000000E+00 0. -1.
</event>
<event>
 7    1  0.2900470E-011  0.5052887E+02  0.7816164E-02  0.1300439E+00
        -11   -1    0    0    0    0  0.00000000000E+00  0.00000000000E+00  0.45593999997E+02  0.45594000000E+02  0.51100000000E-03 0.  1.
         11   -1    0    0    0    0 -0.00000000000E+00 -0.00000000000E+00 -0.45593999997E+02  0.45594000000E+02  0.51100000000E-03 0. -1.
    9900012    2    1    2    0    0 -0.37170320156E+02 -0.10669469000E+02 -0.12557643789E+02  0.50528872036E+02  0.30000037041E+02 0.  0.
         12    1    1    2    0    0  0.37170320156E+02  0.10669469000E+02  0.12557643789E+02  0.40659127964E+02  0.00000000000E+00 0. -1.
         11    1    3    3    0    0 -0.30625003102E+01 -0.45342422355E+01  0.51745371144E+01  0.75308761382E+01  0.51100000000E-03 0. -1.
        -11    1    3    3    0    0 -0.20281981513E+02 -0.98894558471E+01 -0.17688751030E+02  0.28671449637E+02  0.51100000000E-03 0.  1.
        -12    1    3    3    0    0 -0.13825838333E+02  0.37542290821E+01 -0.43429873832E-01  0.14326546261E+02  0.00000000000E+00 0.  1.
</event>
<event>
 7    1  0.2900470E-011  0.5052887E+02  0.7816164E-02  0.1300439E+00
        -11   -1    0    0    0    0  0.00000000000E+00  0.00000000000E+00  0.45593999997E+02  0.45594000000E+02  0.51100000000E-03 0.  1.
         11   -1    0    0    0    0 -0.00000000000E+00 -0.00000000000E+00 -0.45593999997E+02  0.45594000000E+02  0.51100000000E-03 0. -1.
    9900012    2    1    2    0    0 -0.15780781173E+02  0.36296726125E+02  0.93101797561E+01  0.50528870288E+02  0.30000031727E+02 0.  0.
         12    1    1    2    0    0  0.15780781173E+02 -0.36296726125E+02 -0.93101797561E+01  0.40659129712E+02  0.00000000000E+00 0. -1.
         11    1    3    3    0    0 -0.26403490962E+00  0.70313592990E+01  0.19450880690E+01  0.73002120437E+01  0.51100000000E-03 0. -1.
        -11    1    3    3    0    0 -0.72940948392E+01  0.22804222915E+02 -0.74678534160E+01  0.25079976818E+02  0.51100000000E-03 0.  1.
        -12    1    3    3    0    0 -0.82226514243E+01  0.64611439112E+01  0.14832945103E+02  0.18148681426E+02  0.00000000000E+00 0.  1.
</event>
<event>
 7    1  0.2900470E-011  0.5052886E+02  0.7816164E-02  0.1300439E+00
        -11   -1    0    0    0    0  0.00000000000E+00  0.00000000000E+00  0.45593999997E+02  0.45594000000E+02  0.51100000000E-03 0. -1.
         11   -1    0    0    0    0 -0.00000000000E+00 -0.00000000000E+00 -0.45593999997E+02  0.45594000000E+02  0.51100000000E-03 0.  1.
    9900012    2    1    2    0    0  0.21203984708E+02  0.23087704195E+02 -0.25894298982E+02  0.50528858688E+02  0.29999996468E+02 0.  0.
         12    1    1    2    0    0 -0.21203984708E+02 -0.23087704195E+02  0.25894298982E+02  0.40659141312E+02  0.00000000000E+00 0. -1.
         11    1    3    3    0    0 -0.33125997352E+01  0.43212448272E+01  0.20604558706E+01  0.58216795272E+01  0.51100000000E-03 0.  1.
        -11    1    3    3    0    0  0.11561565889E+02  0.17424864629E+01 -0.34761327111E+01  0.12197932766E+02  0.51100000000E-03 0. -1.
        -12    1    3    3    0    0  0.12955018553E+02  0.17023972905E+02 -0.24478622141E+02  0.32509246394E+02  0.00000000000E+00 0.  1.
</event>
<event>
 7    1  0.2900470E-011  0.5052887E+02  0.7816164E-02  0.1300439E+00
        -11   -1    0    0    0    0  0.00000000000E+00  0.00000000000E+00  0.45593999997E+02  0.45594000000E+02  0.51100000000E-03 0.  1.
         11   -1    0    0    0    0 -0.00000000000E+00 -0.00000000000E+00 -0.45593999997E+02  0.45594000000E+02  0.51100000000E-03 0. -1.
    9900012    2    1    2    0    0  0.34125977661E+02 -0.40168081844E+01  0.21735861586E+02  0.50528870911E+02  0.30000033622E+02 0.  0.
         12    1    1    2    0    0 -0.34125977661E+02  0.40168081844E+01 -0.21735861586E+02  0.40659129089E+02  0.00000000000E+00 0. -1.
         11    1    3    3    0    0  0.40234937237E+01 -0.10887184066E+02 -0.13370993620E+01  0.11683625875E+02  0.51100000000E-03 0. -1.
        -11    1    3    3    0    0  0.20218186937E+02  0.23950443640E+01  0.14098850066E+02  0.24764670278E+02  0.51100000000E-03 0.  1.
         12    1    3    3    0    0  0.98842970004E+01  0.44753315175E+01  0.89741108819E+01  0.14080574758E+02  0.00000000000E+00 0. -1.
</event>
<event>
 7    1  0.2900470E-011  0.5052886E+02  0.7816164E-02  0.1300439E+00
        -11   -1    0    0    0    0  0.00000000000E+00  0.00000000000E+00  0.45593999997E+02  0.45594000000E+02  0.51100000000E-03 0.  1.
         11   -1    0    0    0    0 -0.00000000000E+00 -0.00000000000E+00 -0.45593999997E+02  0.45594000000E+02  0.51100000000E-03 0. -1.
    9900012    2    1    2    0    0  0.21405309929E+02  0.22247968217E+02  0.26457631055E+02  0.50528860511E+02  0.30000002010E+02 0.  0.
         12    1    1    2    0    0 -0.21405309929E+02 -0.22247968217E+02 -0.26457631055E+02  0.40659139489E+02  0.00000000000E+00 0. -1.
         11    1    3    3    0    0  0.29241203077E+01 -0.29131523522E+01  0.45167944507E+01  0.61186901026E+01  0.51100000000E-03 0. -1.
        -11    1    3    3    0    0  0.23196451644E+02  0.24677602364E+02  0.19440231207E+02  0.39051018129E+02  0.51100000000E-03 0.  1.
        -12    1    3    3    0    0 -0.47152620230E+01  0.48351820580E+00  0.25006053974E+01  0.53591522794E+01  0.00000000000E+00 0.  1.
</event>
<event>
 7    1  0.2900470E-011  0.5052886E+02  0.7816164E-02  0.1300439E+00
        -11   -1    0    0    0    0  0.00000000000E+00  0.00000000000E+00  0.45593999997E+02  0.45594000000E+02  0.51100000000E-03 0.  1.
         11   -1    0    0    0    0 -0.00000000000E+00 -0.00000000000E+00 -0.45593999997E+02  0.45594000000E+02  0.51100000000E-03 0. -1.
    9900012    2    1    2    0    0  0.84534866630E+01  0.29771505754E+02  0.26369705040E+02  0.50528864058E+02  0.30000012791E+02 0.  0.
         12    1    1    2    0    0 -0.84534866630E+01 -0.29771505754E+02 -0.26369705040E+02  0.40659135942E+02  0.00000000000E+00 0. -1.
         11    1    3    3    0    0  0.12223540512E+02  0.31938238578E+02  0.15753336602E+02  0.37651475940E+02  0.51100000000E-03 0. -1.
        -11    1    3    3    0    0 -0.20547229130E+01  0.18605098568E+01  0.29400088949E+01  0.40406726840E+01  0.51100000000E-03 0.  1.
         12    1    3    3    0    0 -0.17153309358E+01 -0.40272426805E+01  0.76763595434E+01  0.88367154343E+01  0.00000000000E+00 0. -1.
</event>
<event>
 7    1  0.2900470E-011  0.5052887E+02  0.7816164E-02  0.1300439E+00
        -11   -1    0    0    0    0  0.00000000000E+00  0.00000000000E+00  0.45593999997E+02  0.45594000000E+02  0.51100000000E-03 0.  1.
         11   -1    0    0    0    0 -0.00000000000E+00 -0.00000000000E+00 -0.45593999997E+02  0.45594000000E+02  0.51100000000E-03 0. -1.
    9900012    2    1    2    0    0 -0.16366903941E+02 -0.78271168322E+00  0.37211246857E+02  0.50528867264E+02  0.30000022537E+02 0.  0.
         12    1    1    2    0    0  0.16366903941E+02  0.78271168322E+00 -0.37211246857E+02  0.40659132736E+02  0.00000000000E+00 0. -1.
         11    1    3    3    0    0 -0.86669116198E+01  0.11658225826E+02  0.13340001603E+02  0.19722708472E+02  0.51100000000E-03 0. -1.
        -11    1    3    3    0    0 -0.79962276238E+01 -0.23076542038E+01  0.60002214678E+01  0.10259999126E+02  0.51100000000E-03 0.  1.
         12    1    3    3    0    0  0.29623530248E+00 -0.10133283305E+02  0.17871023786E+02  0.20546159667E+02  0.00000000000E+00 0. -1.
</event>
<event>
 7    1  0.2900470E-011  0.5052886E+02  0.7816164E-02  0.1300439E+00
        -11   -1    0    0    0    0  0.00000000000E+00  0.00000000000E+00  0.45593999997E+02  0.45594000000E+02  0.51100000000E-03 0.  1.
         11   -1    0    0    0    0 -0.00000000000E+00 -0.00000000000E+00 -0.45593999997E+02  0.45594000000E+02  0.51100000000E-03 0. -1.
    9900012    2    1    2    0    0 -0.26757050403E+02 -0.72612250362E+01  0.29740553797E+02  0.50528859878E+02  0.30000000084E+02 0.  0.
         12    1    1    2    0    0  0.26757050403E+02  0.72612250362E+01 -0.29740553797E+02  0.40659140122E+02  0.00000000000E+00 0. -1.
         11    1    3    3    0    0 -0.71379840855E+01  0.81111143713E+01 -0.32760006269E+00  0.10809639921E+02  0.51100000000E-03 0. -1.
        -11    1    3    3    0    0 -0.12976893982E+02 -0.57670895567E+01  0.17977616489E+02  0.22909687781E+02  0.51100000000E-03 0.  1.
         12    1    3    3    0    0 -0.66421723364E+01 -0.96052498508E+01  0.12090537371E+02  0.16809532176E+02  0.00000000000E+00 0. -1.
</event>
<event>
 7    1  0.2900470E-011  0.5052886E+02  0.7816164E-02  0.1300439E+00
        -11   -1    0    0    0    0  0.00000000000E+00  0.00000000000E+00  0.45593999997E+02  0.45594000000E+02  0.51100000000E-03 0.  1.
         11   -1    0    0    0    0 -0.00000000000E+00 -0.00000000000E+00 -0.45593999997E+02  0.45594000000E+02  0.51100000000E-03 0. -1.
    9900012    2    1    2    0    0  0.33063934281E+01 -0.27749424017E+02  0.29533087860E+02  0.50528855280E+02  0.29999986110E+02 0.  0.
         12    1    1    2    0    0 -0.33063934281E+01  0.27749424017E+02 -0.29533087860E+02  0.40659144720E+02  0.00000000000E+00 0. -1.
         11    1    3    3    0    0  0.55687860939E+01 -0.13445358587E+02  0.26266019403E+02  0.30028200440E+02  0.51100000000E-03 0. -1.
        -11    1    3    3    0    0 -0.58661488981E+01 -0.14397963234E+01 -0.16556230995E+01  0.62630507308E+01  0.51100000000E-03 0.  1.
        -12    1    3    3    0    0  0.36037562324E+01 -0.12864269106E+02  0.49226915567E+01  0.14237604110E+02  0.00000000000E+00 0.  1.
</event>
<event>
 7    1  0.2900470E-011  0.5052885E+02  0.7816164E-02  0.1300439E+00
        -11   -1    0    0    0    0  0.00000000000E+00  0.00000000000E+00  0.45593999997E+02  0.45594000000E+02  0.51100000000E-03 0.  1.
         11   -1    0    0    0    0 -0.00000000000E+00 -0.00000000000E+00 -0.45593999997E+02  0.45594000000E+02  0.51100000000E-03 0. -1.
    9900012    2    1    2    0    0  0.15440237426E+02 -0.33046190336E+02 -0.17964254725E+02  0.50528854960E+02  0.29999985138E+02 0.  0.
         12    1    1    2    0    0 -0.15440237426E+02  0.33046190336E+02  0.17964254725E+02  0.40659145040E+02  0.00000000000E+00 0. -1.
         11    1    3    3    0    0 -0.38062955844E+00 -0.40236764311E+01 -0.91338138483E+01  0.99880632036E+01  0.51100000000E-03 0. -1.
        -11    1    3    3    0    0  0.47629233476E+01 -0.45286754701E+01  0.67956138817E+01  0.94538197898E+01  0.51100000000E-03 0.  1.
        -12    1    3    3    0    0  0.11057943637E+02 -0.24493838435E+02 -0.15626054759E+02  0.31086971967E+02  0.00000000000E+00 0.  1.
</event>
<event>
 7    1  0.2900470E-011  0.5052886E+02  0.7816164E-02  0.1300439E+00
        -11   -1    0    0    0    0  0.00000000000E+00  0.00000000000E+00  0.45593999997E+02  0.45594000000E+02  0.51100000000E-03 0.  1.
         11   -1    0    0    0    0 -0.00000000000E+00 -0.00000000000E+00 -0.45593999997E+02  0.45594000000E+02  0.51100000000E-03 0. -1.
    9900012    2    1    2    0    0 -0.20514837564E+02  0.28569072833E+02  0.20398899768E+02  0.50528860872E+02  0.30000003107E+02 0.  0.
         12    1    1    2    0    0  0.20514837564E+02 -0.28569072833E+02 -0.20398899768E+02  0.40659139128E+02  0.00000000000E+00 0. -1.
         11    1    3    3    0    0 -0.90988201382E+01  0.77239563927E+01  0.21994410766E+02  0.25024031159E+02  0.51100000000E-03 0. -1.
        -11    1    3    3    0    0 -0.30502438971E+01  0.14498581946E+02  0.37562461223E+00  0.14820727391E+02  0.51100000000E-03 0.  1.
        -12    1    3    3    0    0 -0.83657735290E+01  0.63465344944E+01 -0.19711356099E+01  0.10684102322E+02  0.00000000000E+00 0.  1.
</event>
<event>
 7    1  0.2900470E-011  0.5052888E+02  0.7816164E-02  0.1300439E+00
        -11   -1    0    0    0    0  0.00000000000E+00  0.00000000000E+00  0.45593999997E+02  0.45594000000E+02  0.51100000000E-03 0.  1.
         11   -1    0    0    0    0 -0.00000000000E+00 -0.00000000000E+00 -0.45593999997E+02  0.45594000000E+02  0.51100000000E-03 0. -1.
    9900012    2    1    2    0    0 -0.80658607108E+01 -0.10678169944E+02  0.38393783570E+02  0.50528880000E+02  0.30000061248E+02 0.  0.
         12    1    1    2    0    0  0.80658607108E+01  0.10678169944E+02 -0.38393783570E+02  0.40659120000E+02  0.00000000000E+00 0. -1.
         11    1    3    3    0    0  0.70468870834E+00 -0.72032782883E+01 -0.70103965546E+00  0.72715377421E+01  0.51100000000E-03 0. -1.
        -11    1    3    3    0    0 -0.92484139570E+01 -0.71390221426E+01  0.37417920814E+02  0.39199484641E+02  0.51100000000E-03 0.  1.
        -12    1    3    3    0    0  0.47786453778E+00  0.36641304865E+01  0.16769024116E+01  0.40578576166E+01  0.00000000000E+00 0.  1.
</event>
<event>
 7    1  0.2900470E-011  0.5052886E+02  0.7816164E-02  0.1300439E+00
        -11   -1    0    0    0    0  0.00000000000E+00  0.00000000000E+00  0.45593999997E+02  0.45594000000E+02  0.51100000000E-03 0.  1.
         11   -1    0    0    0    0 -0.00000000000E+00 -0.00000000000E+00 -0.45593999997E+02  0.45594000000E+02  0.51100000000E-03 0. -1.
    9900012    2    1    2    0    0 -0.31707422842E+02 -0.82621355183E+01  0.24073683034E+02  0.50528858821E+02  0.29999996873E+02 0.  0.
         12    1    1    2    0    0  0.31707422842E+02  0.82621355183E+01 -0.24073683034E+02  0.40659141179E+02  0.00000000000E+00 0. -1.
         11    1    3    3    0    0  0.36419029246E+00 -0.69835019428E+01  0.12596855380E+02  0.14407730552E+02  0.51100000000E-03 0. -1.
        -11    1    3    3    0    0 -0.20257006072E+02 -0.64805401271E+01  0.60018899392E+01  0.22099013065E+02  0.51100000000E-03 0.  1.
         12    1    3    3    0    0 -0.11814607062E+02  0.52019065516E+01  0.54749377154E+01  0.14022115204E+02  0.00000000000E+00 0. -1.
</event>
<event>
 7    1  0.2900470E-011  0.5052879E+02  0.7816164E-02  0.1300439E+00
        -11   -1    0    0    0    0  0.00000000000E+00  0.00000000000E+00  0.45593999997E+02  0.45594000000E+02  0.51100000000E-03 0.  1.
         11   -1    0    0    0    0 -0.00000000000E+00 -0.00000000000E+00 -0.45593999997E+02  0.45594000000E+02  0.51100000000E-03 0. -1.
    9900012    2    1    2    0    0 -0.32900331233E+02  0.17578704943E+02  0.16178034525E+02  0.50528788697E+02  0.29999783722E+02 0.  0.
         12    1    1    2    0    0  0.32900331233E+02 -0.17578704943E+02 -0.16178034525E+02  0.40659211303E+02  0.00000000000E+00 0. -1.
         11    1    3    3    0    0 -0.25729771904E+01 -0.76902263731E+01  0.83320198902E+00  0.81519334582E+01  0.51100000000E-03 0. -1.
        -11    1    3    3    0    0 -0.14554506312E+02  0.11670472259E+02  0.65793687885E+01  0.19781852053E+02  0.51100000000E-03 0.  1.
         12    1    3    3    0    0 -0.15772847730E+02  0.13598459057E+02  0.87654637480E+01  0.22595003185E+02  0.00000000000E+00 0. -1.
</event>
<event>
 7    1  0.2900470E-011  0.5052886E+02  0.7816164E-02  0.1300439E+00
        -11   -1    0    0    0    0  0.00000000000E+00  0.00000000000E+00  0.45593999997E+02  0.45594000000E+02  0.51100000000E-03 0.  1.
         11   -1    0    0    0    0 -0.00000000000E+00 -0.00000000000E+00 -0.45593999997E+02  0.45594000000E+02  0.51100000000E-03 0. -1.
    9900012    2    1    2    0    0 -0.61756389422E+01 -0.23699710243E+02  0.32455369322E+02  0.50528858595E+02  0.29999996186E+02 0.  0.
         12    1    1    2    0    0  0.61756389422E+01  0.23699710243E+02 -0.32455369322E+02  0.40659141405E+02  0.00000000000E+00 0. -1.
         11    1    3    3    0    0  0.55177344701E+01 -0.25799313164E+01  0.24293514812E+02  0.25045484652E+02  0.51100000000E-03 0. -1.
        -11    1    3    3    0    0 -0.59648307512E+01 -0.10697837658E+02  0.41585214553E+01  0.12935077788E+02  0.51100000000E-03 0.  1.
         12    1    3    3    0    0 -0.57285426610E+01 -0.10421941269E+02  0.40033330552E+01  0.12548296154E+02  0.00000000000E+00 0. -1.
</event>
<event>
 7    1  0.2900470E-011  0.5052890E+02  0.7816164E-02  0.1300439E+00
        -11   -1    0    0    0    0  0.00000000000E+00  0.00000000000E+00  0.45593999997E+02  0.45594000000E+02  0.51100000000E-03 0.  1.
         11   -1    0    0    0    0 -0.00000000000E+00 -0.00000000000E+00 -0.45593999997E+02  0.45594000000E+02  0.51100000000E-03 0. -1.
    9900012    2    1    2    0    0 -0.29638957997E+02  0.14679648900E+02  0.23647471008E+02  0.50528895140E+02  0.30000107267E+02 0.  0.
         12    1    1    2    0    0  0.29638957997E+02 -0.14679648900E+02 -0.23647471008E+02  0.40659104860E+02  0.00000000000E+00 0. -1.
         11    1    3    3    0    0  0.40294356646E+01  0.39363528233E+01 -0.97069235193E+00  0.57160711357E+01  0.51100000000E-03 0. -1.
        -11    1    3    3    0    0 -0.30614550893E+02  0.57407653899E+01  0.18010453831E+02  0.35980321859E+02  0.51100000000E-03 0.  1.
        -12    1    3    3    0    0 -0.30538427683E+01  0.50025306871E+01  0.66077095286E+01  0.88325021451E+01  0.00000000000E+00 0.  1.
</event>
<event>
 7    1  0.2900470E-011  0.5052886E+02  0.7816164E-02  0.1300439E+00
        -11   -1    0    0    0    0  0.00000000000E+00  0.00000000000E+00  0.45593999997E+02  0.45594000000E+02  0.51100000000E-03 0.  1.
         11   -1    0    0    0    0 -0.00000000000E+00 -0.00000000000E+00 -0.45593999997E+02  0.45594000000E+02  0.51100000000E-03 0. -1.
    9900012    2    1    2    0    0  0.30128420588E+02  0.21653786157E+02  0.16630013621E+02  0.50528861604E+02  0.30000005332E+02 0.  0.
         12    1    1    2    0    0 -0.30128420588E+02 -0.21653786157E+02 -0.16630013621E+02  0.40659138396E+02  0.00000000000E+00 0. -1.
         11    1    3    3    0    0  0.24797560808E+02  0.22574312447E+02  0.73810132892E+01  0.34336539749E+02  0.51100000000E-03 0. -1.
        -11    1    3    3    0    0  0.29621428761E+01  0.33771487027E+01  0.10243625611E+02  0.11185315807E+02  0.51100000000E-03 0.  1.
         12    1    3    3    0    0  0.23687169041E+01 -0.42976749932E+01 -0.99462527948E+00  0.50070060481E+01  0.00000000000E+00 0. -1.
</event>
<event>
 7    1  0.2900470E-011  0.5052885E+02  0.7816164E-02  0.1300439E+00
        -11   -1    0    0    0    0  0.00000000000E+00  0.00000000000E+00  0.45593999997E+02  0.45594000000E+02  0.51100000000E-03 0.  1.
         11   -1    0    0    0    0 -0.00000000000E+00 -0.00000000000E+00 -0.45593999997E+02  0.45594000000E+02  0.51100000000E-03 0. -1.
    9900012    2    1    2    0    0  0.26470010149E+02 -0.28811441854E+02  0.11063716904E+02  0.50528850344E+02  0.29999971106E+02 0.  0.
         12    1    1    2    0    0 -0.26470010149E+02  0.28811441854E+02 -0.11063716904E+02  0.40659149656E+02  0.00000000000E+00 0. -1.
         11    1    3    3    0    0  0.23169198448E+02 -0.13523179524E+02  0.33286198798E+01  0.27032718171E+02  0.51100000000E-03 0. -1.
        -11    1    3    3    0    0 -0.27974525623E+00 -0.17571211326E+02  0.78525440014E+01  0.19248069316E+02  0.51100000000E-03 0.  1.
         12    1    3    3    0    0  0.35805569577E+01  0.22829489953E+01 -0.11744697760E+00  0.42480628568E+01  0.00000000000E+00 0. -1.
</event>
<event>
 7    1  0.2900470E-011  0.5052890E+02  0.7816164E-02  0.1300439E+00
        -11   -1    0    0    0    0  0.00000000000E+00  0.00000000000E+00  0.45593999997E+02  0.45594000000E+02  0.51100000000E-03 0. -1.
         11   -1    0    0    0    0 -0.00000000000E+00 -0.00000000000E+00 -0.45593999997E+02  0.45594000000E+02  0.51100000000E-03 0.  1.
    9900012    2    1    2    0    0  0.33240779006E+02 -0.10085663576E+02 -0.21130369427E+02  0.50528898795E+02  0.30000118376E+02 0.  0.
         12    1    1    2    0    0 -0.33240779006E+02  0.10085663576E+02  0.21130369427E+02  0.40659101205E+02  0.00000000000E+00 0. -1.
         11    1    3    3    0    0  0.81985822801E+01 -0.15288851360E+02 -0.11187518346E+02  0.20642826704E+02  0.51100000000E-03 0. -1.
        -11    1    3    3    0    0  0.24237534847E+02  0.42668248970E+01 -0.54230200460E+01  0.25200655484E+02  0.51100000000E-03 0.  1.
        -12    1    3    3    0    0  0.80466187906E+00  0.93636288713E+00 -0.45198310345E+01  0.46854166065E+01  0.00000000000E+00 0.  1.
</event>
<event>
 7    1  0.2900470E-011  0.5052885E+02  0.7816164E-02  0.1300439E+00
        -11   -1    0    0    0    0  0.00000000000E+00  0.00000000000E+00  0.45593999997E+02  0.45594000000E+02  0.51100000000E-03 0. -1.
         11   -1    0    0    0    0 -0.00000000000E+00 -0.00000000000E+00 -0.45593999997E+02  0.45594000000E+02  0.51100000000E-03 0.  1.
    9900012    2    1    2    0    0 -0.12209360959E+02  0.36567732784E+02 -0.12918945816E+02  0.50528846824E+02  0.29999960405E+02 0.  0.
         12    1    1    2    0    0  0.12209360959E+02 -0.36567732784E+02  0.12918945816E+02  0.40659153176E+02  0.00000000000E+00 0. -1.
         11    1    3    3    0    0 -0.99308076715E+01  0.34718001700E+01 -0.83367516238E+01  0.13422956654E+02  0.51100000000E-03 0. -1.
        -11    1    3    3    0    0 -0.31875468266E+01  0.16610109486E+02  0.54699778276E+01  0.17775737667E+02  0.51100000000E-03 0.  1.
        -12    1    3    3    0    0  0.90899353868E+00  0.16485823128E+02 -0.10052172020E+02  0.19330152503E+02  0.00000000000E+00 0.  1.
</event>
<event>
 7    1  0.2900470E-011  0.5052889E+02  0.7816164E-02  0.1300439E+00
        -11   -1    0    0    0    0  0.00000000000E+00  0.00000000000E+00  0.45593999997E+02  0.45594000000E+02  0.51100000000E-03 0.  1.
         11   -1    0    0    0    0 -0.00000000000E+00 -0.00000000000E+00 -0.45593999997E+02  0.45594000000E+02  0.51100000000E-03 0. -1.
    9900012    2    1    2    0    0 -0.39531380272E+02 -0.80850990520E+01  0.50064011205E+01  0.50528893946E+02  0.30000103638E+02 0.  0.
         12    1    1    2    0    0  0.39531380272E+02  0.80850990520E+01 -0.50064011205E+01  0.40659106054E+02  0.00000000000E+00 0. -1.
         11    1    3    3    0    0 -0.13273045786E+02 -0.35229055878E+01 -0.11498485352E+02  0.17910884229E+02  0.51100000000E-03 0. -1.
        -11    1    3    3    0    0 -0.17365334676E+02 -0.16760249321E-01  0.66731334058E+01  0.18603382462E+02  0.51100000000E-03 0.  1.
         12    1    3    3    0    0 -0.88929998111E+01 -0.45454332149E+01  0.98317530667E+01  0.14014627256E+02  0.00000000000E+00 0. -1.
</event>
<event>
 7    1  0.2900470E-011  0.5052886E+02  0.7816164E-02  0.1300439E+00
        -11   -1    0    0    0    0  0.00000000000E+00  0.00000000000E+00  0.45593999997E+02  0.45594000000E+02  0.51100000000E-03 0. -1.
         11   -1    0    0    0    0 -0.00000000000E+00 -0.00000000000E+00 -0.45593999997E+02  0.45594000000E+02  0.51100000000E-03 0.  1.
    9900012    2    1    2    0    0  0.18989891903E+02  0.34844715292E+02  0.88541397923E+01  0.50528856259E+02  0.29999989086E+02 0.  0.
         12    1    1    2    0    0 -0.18989891903E+02 -0.34844715292E+02 -0.88541397923E+01  0.40659143741E+02  0.00000000000E+00 0. -1.
         11    1    3    3    0    0  0.26482227098E+01  0.29948504905E+01 -0.46659927811E+01  0.61444041108E+01  0.51100000000E-03 0. -1.
        -11    1    3    3    0    0  0.10800412097E+02  0.27760897017E+02  0.19215501787E+02  0.35447874603E+02  0.51100000000E-03 0.  1.
        -12    1    3    3    0    0  0.55412570966E+01  0.40889677844E+01 -0.56953692137E+01  0.89365775458E+01  0.00000000000E+00 0.  1.
</event>
<event>
 7    1  0.2900470E-011  0.5052886E+02  0.7816164E-02  0.1300439E+00
        -11   -1    0    0    0    0  0.00000000000E+00  0.00000000000E+00  0.45593999997E+02  0.45594000000E+02  0.51100000000E-03 0. -1.
         11   -1    0    0    0    0 -0.00000000000E+00 -0.00000000000E+00 -0.45593999997E+02  0.45594000000E+02  0.51100000000E-03 0.  1.
    9900012    2    1    2    0    0 -0.50345449293E+01  0.29716469602E+02 -0.27290110595E+02  0.50528863948E+02  0.30000012456E+02 0.  0.
         12    1    1    2    0    0  0.50345449293E+01 -0.29716469602E+02  0.27290110595E+02  0.40659136052E+02  0.00000000000E+00 0. -1.
         11    1    3    3    0    0 -0.10748119980E+01  0.84388466324E+01 -0.27461434044E+01  0.89392760991E+01  0.51100000000E-03 0. -1.
        -11    1    3    3    0    0 -0.10071391514E+02 -0.55203935483E+00 -0.12018843721E+02  0.15690451845E+02  0.51100000000E-03 0.  1.
        -12    1    3    3    0    0  0.61116585822E+01  0.21829662324E+02 -0.12525123470E+02  0.25899136004E+02  0.00000000000E+00 0.  1.
</event>
<event>
 7    1  0.2900470E-011  0.5052887E+02  0.7816164E-02  0.1300439E+00
        -11   -1    0    0    0    0  0.00000000000E+00  0.00000000000E+00  0.45593999997E+02  0.45594000000E+02  0.51100000000E-03 0.  1.
         11   -1    0    0    0    0 -0.00000000000E+00 -0.00000000000E+00 -0.45593999997E+02  0.45594000000E+02  0.51100000000E-03 0. -1.
    9900012    2    1    2    0    0 -0.27001584508E+02  0.65515708655E+01  0.29684278894E+02  0.50528867444E+02  0.30000023083E+02 0.  0.
         12    1    1    2    0    0  0.27001584508E+02 -0.65515708655E+01 -0.29684278894E+02  0.40659132556E+02  0.00000000000E+00 0. -1.
         11    1    3    3    0    0 -0.78245053563E+01 -0.38332969767E+01 -0.37217362289E+01  0.94746171744E+01  0.51100000000E-03 0. -1.
        -11    1    3    3    0    0 -0.90564394778E+00  0.16080739052E+01  0.96533841491E+01  0.98282205122E+01  0.51100000000E-03 0.  1.
         12    1    3    3    0    0 -0.18271435204E+02  0.87767939370E+01  0.23752630974E+02  0.31226029757E+02  0.00000000000E+00 0. -1.
</event>
<event>
 7    1  0.2900470E-011  0.5052886E+02  0.7816164E-02  0.1300439E+00
        -11   -1    0    0    0    0  0.00000000000E+00  0.00000000000E+00  0.45593999997E+02  0.45594000000E+02  0.51100000000E-03 0. -1.
         11   -1    0    0    0    0 -0.00000000000E+00 -0.00000000000E+00 -0.45593999997E+02  0.45594000000E+02  0.51100000000E-03 0.  1.
    9900012    2    1    2    0    0 -0.77188753743E+01  0.15279732215E+02 -0.36879728686E+02  0.50528860295E+02  0.30000001352E+02 0.  0.
         12    1    1    2    0    0  0.77188753743E+01 -0.15279732215E+02  0.36879728686E+02  0.40659139705E+02  0.00000000000E+00 0. -1.
         11    1    3    3    0    0  0.77228624864E+01 -0.23280269255E+01 -0.10714518540E+02  0.13411309487E+02  0.51100000000E-03 0. -1.
        -11    1    3    3    0    0 -0.17016144084E+02  0.15795059506E+02 -0.25766843898E+02  0.34683761460E+02  0.51100000000E-03 0.  1.
        -12    1    3    3    0    0  0.15744062237E+01  0.18126996345E+01 -0.39836624853E+00  0.24337893479E+01  0.00000000000E+00 0.  1.
</event>
<event>
 7    1  0.2900470E-011  0.5052886E+02  0.7816164E-02  0.1300439E+00
        -11   -1    0    0    0    0  0.00000000000E+00  0.00000000000E+00  0.45593999997E+02  0.45594000000E+02  0.51100000000E-03 0.  1.
         11   -1    0    0    0    0 -0.00000000000E+00 -0.00000000000E+00 -0.45593999997E+02  0.45594000000E+02  0.51100000000E-03 0. -1.
    9900012    2    1    2    0    0  0.30831392908E+01  0.51422088830E+01  0.40214646606E+02  0.50528857587E+02  0.29999993123E+02 0.  0.
         12    1    1    2    0    0 -0.30831392908E+01 -0.51422088830E+01 -0.40214646606E+02  0.40659142413E+02  0.00000000000E+00 0. -1.
         11    1    3    3    0    0 -0.12259906963E+02  0.30072516345E+01  0.91043518590E+01  0.15564000262E+02  0.51100000000E-03 0. -1.
        -11    1    3    3    0    0  0.12271721215E+02  0.12507082170E+01  0.20928737075E+02  0.24293444557E+02  0.51100000000E-03 0.  1.
         12    1    3    3    0    0  0.30713250388E+01  0.88424903142E+00  0.10181557672E+02  0.10671412769E+02  0.00000000000E+00 0. -1.
</event>
<event>
 7    1  0.2900470E-011  0.5052886E+02  0.7816164E-02  0.1300439E+00
        -11   -1    0    0    0    0  0.00000000000E+00  0.00000000000E+00  0.45593999997E+02  0.45594000000E+02  0.51100000000E-03 0. -1.
         11   -1    0    0    0    0 -0.00000000000E+00 -0.00000000000E+00 -0.45593999997E+02  0.45594000000E+02  0.51100000000E-03 0.  1.
    9900012    2    1    2    0    0  0.32170709173E+02  0.20762907946E+02 -0.13678911849E+02  0.50528861981E+02  0.30000006478E+02 0.  0.
         12    1    1    2    0    0 -0.32170709173E+02 -0.20762907946E+02  0.13678911849E+02  0.40659138019E+02  0.00000000000E+00 0. -1.
         11    1    3    3    0    0  0.31391258330E+01 -0.42396689447E+00  0.47815153830E+01  0.57355687200E+01  0.51100000000E-03 0. -1.
        -11    1    3    3    0    0  0.19316124917E+02  0.23756390568E+02 -0.15492637573E+02  0.34314728527E+02  0.51100000000E-03 0.  1.
        -12    1    3    3    0    0  0.97154584226E+01 -0.25695157275E+01 -0.29677896594E+01  0.10478564735E+02  0.00000000000E+00 0.  1.
</event>
<event>
 7    1  0.2900470E-011  0.5052886E+02  0.7816164E-02  0.1300439E+00
        -11   -1    0    0    0    0  0.00000000000E+00  0.00000000000E+00  0.45593999997E+02  0.45594000000E+02  0.51100000000E-03 0. -1.
         11   -1    0    0    0    0 -0.00000000000E+00 -0.00000000000E+00 -0.45593999997E+02  0.45594000000E+02  0.51100000000E-03 0.  1.
    9900012    2    1    2    0    0 -0.19555178678E+02  0.29621376093E+02  0.19832677391E+02  0.50528855552E+02  0.29999986935E+02 0.  0.
         12    1    1    2    0    0  0.19555178678E+02 -0.29621376093E+02 -0.19832677391E+02  0.40659144448E+02  0.00000000000E+00 0. -1.
         11    1    3    3    0    0 -0.17747887294E+02  0.99695992036E+01  0.20061714450E+02  0.28580636777E+02  0.51100000000E-03 0. -1.
        -11    1    3    3    0    0 -0.97263046136E+00  0.18706076174E+02  0.25425401586E+01  0.18903116319E+02  0.51100000000E-03 0.  1.
         12    1    3    3    0    0 -0.83466092211E+00  0.94570071522E+00 -0.27715772167E+01  0.30451024557E+01  0.00000000000E+00 0. -1.
</event>
<event>
 7    1  0.2900470E-011  0.5052886E+02  0.7816164E-02  0.1300439E+00
        -11   -1    0    0    0    0  0.00000000000E+00  0.00000000000E+00  0.45593999997E+02  0.45594000000E+02  0.51100000000E-03 0. -1.
         11   -1    0    0    0    0 -0.00000000000E+00 -0.00000000000E+00 -0.45593999997E+02  0.45594000000E+02  0.51100000000E-03 0.  1.
    9900012    2    1    2    0    0  0.33607320474E+02  0.95631618765E+01  0.20790851567E+02  0.50528861256E+02  0.30000004273E+02 0.  0.
         12    1    1    2    0    0 -0.33607320474E+02 -0.95631618765E+01 -0.20790851567E+02  0.40659138744E+02  0.00000000000E+00 0. -1.
         11    1    3    3    0    0  0.16871947244E+02  0.99895860165E+01  0.24015000453E+02  0.31002817285E+02  0.51100000000E-03 0. -1.
        -11    1    3    3    0    0  0.11476435203E+02  0.30721833160E+00  0.24668573872E+01  0.11742586330E+02  0.51100000000E-03 0.  1.
         12    1    3    3    0    0  0.52589380270E+01 -0.73364247160E+00 -0.56910062732E+01  0.77834576410E+01  0.00000000000E+00 0. -1.
</event>
<event>
 7    1  0.2900470E-011  0.5052887E+02  0.7816164E-02  0.1300439E+00
        -11   -1    0    0    0    0  0.00000000000E+00  0.00000000000E+00  0.45593999997E+02  0.45594000000E+02  0.51100000000E-03 0.  1.
         11   -1    0    0    0    0 -0.00000000000E+00 -0.00000000000E+00 -0.45593999997E+02  0.45594000000E+02  0.51100000000E-03 0. -1.
    9900012    2    1    2    0    0 -0.10131847284E+01  0.12425056820E+02  0.38700859190E+02  0.50528867172E+02  0.30000022257E+02 0.  0.
         12    1    1    2    0    0  0.10131847284E+01 -0.12425056820E+02 -0.38700859190E+02  0.40659132828E+02  0.00000000000E+00 0. -1.
         11    1    3    3    0    0 -0.77258743487E+01 -0.21322051289E+01  0.17081579934E+02  0.18868381130E+02  0.51100000000E-03 0.  1.
        -11    1    3    3    0    0  0.60487754548E+01  0.14704200970E+02  0.24219875184E+02  0.28972462182E+02  0.51100000000E-03 0. -1.
         12    1    3    3    0    0  0.66391416545E+00 -0.14693902121E+00 -0.26005959282E+01  0.26880238609E+01  0.00000000000E+00 0. -1.
</event>
<event>
 7    1  0.2900470E-011  0.5052886E+02  0.7816164E-02  0.1300439E+00
        -11   -1    0    0    0    0  0.00000000000E+00  0.00000000000E+00  0.45593999997E+02  0.45594000000E+02  0.51100000000E-03 0.  1.
         11   -1    0    0    0    0 -0.00000000000E+00 -0.00000000000E+00 -0.45593999997E+02  0.45594000000E+02  0.51100000000E-03 0. -1.
    9900012    2    1    2    0    0 -0.32603818955E+02 -0.20891233761E+02  0.12398105930E+02  0.50528859710E+02  0.29999999574E+02 0.  0.
         12    1    1    2    0    0  0.32603818955E+02  0.20891233761E+02 -0.12398105930E+02  0.40659140290E+02  0.00000000000E+00 0. -1.
         11    1    3    3    0    0 -0.41188104712E+01 -0.86377156069E+00 -0.57017396434E+01  0.70866449205E+01  0.51100000000E-03 0. -1.
        -11    1    3    3    0    0 -0.29455212162E+02 -0.21941919878E+02  0.18696896493E+02  0.41214455112E+02  0.51100000000E-03 0.  1.
        -12    1    3    3    0    0  0.97020367859E+00  0.19144576776E+01 -0.59705092027E+00  0.22277596771E+01  0.00000000000E+00 0.  1.
</event>
<event>
 7    1  0.2900470E-011  0.5052886E+02  0.7816164E-02  0.1300439E+00
        -11   -1    0    0    0    0  0.00000000000E+00  0.00000000000E+00  0.45593999997E+02  0.45594000000E+02  0.51100000000E-03 0. -1.
         11   -1    0    0    0    0 -0.00000000000E+00 -0.00000000000E+00 -0.45593999997E+02  0.45594000000E+02  0.51100000000E-03 0.  1.
    9900012    2    1    2    0    0 -0.29189193636E+02 -0.22894641315E+02 -0.16643077080E+02  0.50528860305E+02  0.30000001384E+02 0.  0.
         12    1    1    2    0    0  0.29189193636E+02  0.22894641315E+02  0.16643077080E+02  0.40659139695E+02  0.00000000000E+00 0. -1.
         11    1    3    3    0    0 -0.11388995700E+01 -0.30989808018E+00  0.67315383994E+01  0.68342328416E+01  0.51100000000E-03 0. -1.
        -11    1    3    3    0    0 -0.28053377200E+02 -0.21673135115E+02 -0.23789970040E+02  0.42692849903E+02  0.51100000000E-03 0.  1.
         12    1    3    3    0    0  0.30831344340E-02 -0.91160811952E+00  0.41535456114E+00  0.10017775605E+01  0.00000000000E+00 0. -1.
</event>
<event>
 7    1  0.2900470E-011  0.5052885E+02  0.7816164E-02  0.1300439E+00
        -11   -1    0    0    0    0  0.00000000000E+00  0.00000000000E+00  0.45593999997E+02  0.45594000000E+02  0.51100000000E-03 0. -1.
         11   -1    0    0    0    0 -0.00000000000E+00 -0.00000000000E+00 -0.45593999997E+02  0.45594000000E+02  0.51100000000E-03 0.  1.
    9900012    2    1    2    0    0  0.27335384525E+01  0.37399684060E+02 -0.15714881560E+02  0.50528854624E+02  0.29999984114E+02 0.  0.
         12    1    1    2    0    0 -0.27335384525E+01 -0.37399684060E+02  0.15714881560E+02  0.40659145376E+02  0.00000000000E+00 0. -1.
         11    1    3    3    0    0  0.12984762208E+02  0.78360250365E+01 -0.63277573601E+01  0.16433132733E+02  0.51100000000E-03 0. -1.
        -11    1    3    3    0    0 -0.16012470493E+01  0.49959147333E+01  0.20716900834E+01  0.56404836847E+01  0.51100000000E-03 0.  1.
         12    1    3    3    0    0 -0.86499767058E+01  0.24567744291E+02 -0.11458814283E+02  0.28455238205E+02  0.00000000000E+00 0. -1.
</event>
<event>
 7    1  0.2900470E-011  0.5052885E+02  0.7816164E-02  0.1300439E+00
        -11   -1    0    0    0    0  0.00000000000E+00  0.00000000000E+00  0.45593999997E+02  0.45594000000E+02  0.51100000000E-03 0. -1.
         11   -1    0    0    0    0 -0.00000000000E+00 -0.00000000000E+00 -0.45593999997E+02  0.45594000000E+02  0.51100000000E-03 0.  1.
    9900012    2    1    2    0    0 -0.16229057139E+02  0.17534996026E+02 -0.32898447604E+02  0.50528852985E+02  0.29999979134E+02 0.  0.
         12    1    1    2    0    0  0.16229057139E+02 -0.17534996026E+02  0.32898447604E+02  0.40659147015E+02  0.00000000000E+00 0. -1.
         11    1    3    3    0    0 -0.12717365902E+02  0.14826670183E+02 -0.49915966078E+01  0.20161289174E+02  0.51100000000E-03 0. -1.
        -11    1    3    3    0    0 -0.25766351992E+00 -0.39549549351E+01 -0.56011285258E+01  0.68615377323E+01  0.51100000000E-03 0.  1.
         12    1    3    3    0    0 -0.32540277168E+01  0.66632807773E+01 -0.22305722470E+02  0.23506026079E+02  0.00000000000E+00 0. -1.
</event>
<event>
 7    1  0.2900470E-011  0.5052886E+02  0.7816164E-02  0.1300439E+00
        -11   -1    0    0    0    0  0.00000000000E+00  0.00000000000E+00  0.45593999997E+02  0.45594000000E+02  0.51100000000E-03 0.  1.
         11   -1    0    0    0    0 -0.00000000000E+00 -0.00000000000E+00 -0.45593999997E+02  0.45594000000E+02  0.51100000000E-03 0. -1.
    9900012    2    1    2    0    0  0.75819845696E+01 -0.22433168344E+02  0.33051962439E+02  0.50528858924E+02  0.29999997186E+02 0.  0.
         12    1    1    2    0    0 -0.75819845696E+01  0.22433168344E+02 -0.33051962439E+02  0.40659141076E+02  0.00000000000E+00 0. -1.
         11    1    3    3    0    0  0.55996711547E+00 -0.16963905237E+02  0.15724849586E+02  0.23137816207E+02  0.51100000000E-03 0. -1.
        -11    1    3    3    0    0  0.14157529892E+01  0.25397167408E+01  0.17373099449E+02  0.17614741053E+02  0.51100000000E-03 0.  1.
        -12    1    3    3    0    0  0.56062644649E+01 -0.80089798482E+01 -0.45986595987E-01  0.97763016641E+01  0.00000000000E+00 0.  1.
</event>
<event>
 7    1  0.2900470E-011  0.5052886E+02  0.7816164E-02  0.1300439E+00
        -11   -1    0    0    0    0  0.00000000000E+00  0.00000000000E+00  0.45593999997E+02  0.45594000000E+02  0.51100000000E-03 0.  1.
         11   -1    0    0    0    0 -0.00000000000E+00 -0.00000000000E+00 -0.45593999997E+02  0.45594000000E+02  0.51100000000E-03 0. -1.
    9900012    2    1    2    0    0 -0.97783718600E+01  0.35645232040E+02  0.16940081157E+02  0.50528862367E+02  0.30000007651E+02 0.  0.
         12    1    1    2    0    0  0.97783718600E+01 -0.35645232040E+02 -0.16940081157E+02  0.40659137633E+02  0.00000000000E+00 0. -1.
         11    1    3    3    0    0 -0.70611005012E-01  0.98323481145E+01 -0.35983466446E+01  0.10470346422E+02  0.51100000000E-03 0. -1.
        -11    1    3    3    0    0 -0.70568485884E+01  0.26782788578E+02  0.10482939593E+02  0.29614336034E+02  0.51100000000E-03 0.  1.
        -12    1    3    3    0    0 -0.26509122666E+01 -0.96990465199E+00  0.10055488209E+02  0.10444179911E+02  0.00000000000E+00 0.  1.
</event>
<event>
 7    1  0.2900470E-011  0.5052886E+02  0.7816164E-02  0.1300439E+00
        -11   -1    0    0    0    0  0.00000000000E+00  0.00000000000E+00  0.45593999997E+02  0.45594000000E+02  0.51100000000E-03 0.  1.
         11   -1    0    0    0    0 -0.00000000000E+00 -0.00000000000E+00 -0.45593999997E+02  0.45594000000E+02  0.51100000000E-03 0. -1.
    9900012    2    1    2    0    0  0.27232035955E+02 -0.26717160035E+02  0.14063270855E+02  0.50528855767E+02  0.29999987591E+02 0.  0.
         12    1    1    2    0    0 -0.27232035955E+02  0.26717160035E+02 -0.14063270855E+02  0.40659144233E+02  0.00000000000E+00 0. -1.
         11    1    3    3    0    0  0.20227342577E+02 -0.27645663001E+02  0.20907214823E+01  0.34319079054E+02  0.51100000000E-03 0. -1.
        -11    1    3    3    0    0  0.89146306367E+01  0.31371296531E+00  0.98630515476E+01  0.13298452591E+02  0.51100000000E-03 0.  1.
         12    1    3    3    0    0 -0.19099372588E+01  0.61479000078E+00  0.21094978246E+01  0.29113241231E+01  0.00000000000E+00 0. -1.
</event>
<event>
 7    1  0.2900470E-011  0.5052886E+02  0.7816164E-02  0.1300439E+00
        -11   -1    0    0    0    0  0.00000000000E+00  0.00000000000E+00  0.45593999997E+02  0.45594000000E+02  0.51100000000E-03 0.  1.
         11   -1    0    0    0    0 -0.00000000000E+00 -0.00000000000E+00 -0.45593999997E+02  0.45594000000E+02  0.51100000000E-03 0. -1.
    9900012    2    1    2    0    0  0.18226389868E+01 -0.62599798213E+01  0.40132979440E+02  0.50528863278E+02  0.30000010421E+02 0.  0.
         12    1    1    2    0    0 -0.18226389868E+01  0.62599798213E+01 -0.40132979440E+02  0.40659136722E+02  0.00000000000E+00 0. -1.
         11    1    3    3    0    0  0.83822911621E+01  0.76727243659E+01  0.69885486871E+01  0.13340664051E+02  0.51100000000E-03 0. -1.
        -11    1    3    3    0    0 -0.71414091964E+01 -0.10206909439E+02  0.29122644512E+02  0.31675055631E+02  0.51100000000E-03 0.  1.
         12    1    3    3    0    0  0.58175702113E+00 -0.37257947484E+01  0.40217862407E+01  0.55131435955E+01  0.00000000000E+00 0. -1.
</event>
<event>
 7    1  0.2900470E-011  0.5052886E+02  0.7816164E-02  0.1300439E+00
        -11   -1    0    0    0    0  0.00000000000E+00  0.00000000000E+00  0.45593999997E+02  0.45594000000E+02  0.51100000000E-03 0.  1.
         11   -1    0    0    0    0 -0.00000000000E+00 -0.00000000000E+00 -0.45593999997E+02  0.45594000000E+02  0.51100000000E-03 0. -1.
    9900012    2    1    2    0    0  0.27592920265E+02 -0.29474206904E+02  0.48028277551E+01  0.50528864792E+02  0.30000015022E+02 0.  0.
         12    1    1    2    0    0 -0.27592920265E+02  0.29474206904E+02 -0.48028277551E+01  0.40659135208E+02  0.00000000000E+00 0. -1.
         11    1    3    3    0    0  0.11472345133E+02 -0.12267965703E+02 -0.12367484670E+02  0.20858388305E+02  0.51100000000E-03 0. -1.
        -11    1    3    3    0    0  0.69020688005E+01 -0.59716523685E+01  0.36775149874E+01  0.98398832554E+01  0.51100000000E-03 0.  1.
         12    1    3    3    0    0  0.92185063319E+01 -0.11234588833E+02  0.13492797438E+02  0.19830593232E+02  0.00000000000E+00 0. -1.
</event>
<event>
 7    1  0.2900470E-011  0.5052884E+02  0.7816164E-02  0.1300439E+00
        -11   -1    0    0    0    0  0.00000000000E+00  0.00000000000E+00  0.45593999997E+02  0.45594000000E+02  0.51100000000E-03 0. -1.
         11   -1    0    0    0    0 -0.00000000000E+00 -0.00000000000E+00 -0.45593999997E+02  0.45594000000E+02  0.51100000000E-03 0.  1.
    9900012    2    1    2    0    0  0.27763975472E+02  0.17357647475E+01 -0.29653260074E+02  0.50528843020E+02  0.29999948845E+02 0.  0.
         12    1    1    2    0    0 -0.27763975472E+02 -0.17357647475E+01  0.29653260074E+02  0.40659156980E+02  0.00000000000E+00 0. -1.
         11    1    3    3    0    0  0.87460571529E+01 -0.11044791595E+02 -0.10886845313E+02  0.17804615644E+02  0.51100000000E-03 0. -1.
        -11    1    3    3    0    0  0.70123624680E+01  0.94179729849E+01 -0.21283040723E+01  0.11933194083E+02  0.51100000000E-03 0.  1.
         12    1    3    3    0    0  0.12005555851E+02  0.33625833576E+01 -0.16638110689E+02  0.20791033294E+02  0.00000000000E+00 0. -1.
</event>
<event>
 7    1  0.2900470E-011  0.5052885E+02  0.7816164E-02  0.1300439E+00
        -11   -1    0    0    0    0  0.00000000000E+00  0.00000000000E+00  0.45593999997E+02  0.45594000000E+02  0.51100000000E-03 0.  1.
         11   -1    0    0    0    0 -0.00000000000E+00 -0.00000000000E+00 -0.45593999997E+02  0.45594000000E+02  0.51100000000E-03 0. -1.
    9900012    2    1    2    0    0 -0.46980290945E+00 -0.33363985942E+02  0.23233381105E+02  0.50528852563E+02  0.29999977849E+02 0.  0.
         12    1    1    2    0    0  0.46980290945E+00  0.33363985942E+02 -0.23233381105E+02  0.40659147437E+02  0.00000000000E+00 0. -1.
         11    1    3    3    0    0 -0.96985910221E+01 -0.94587777052E+01 -0.21809397413E+00  0.13549122065E+02  0.51100000000E-03 0. -1.
        -11    1    3    3    0    0  0.63023484764E+01 -0.33302006220E+01  0.97875818104E+01  0.12108120847E+02  0.51100000000E-03 0.  1.
         12    1    3    3    0    0  0.29264396363E+01 -0.20575007615E+02  0.13663893269E+02  0.24871609650E+02  0.00000000000E+00 0. -1.
</event>
<event>
 7    1  0.2900470E-011  0.5052886E+02  0.7816164E-02  0.1300439E+00
        -11   -1    0    0    0    0  0.00000000000E+00  0.00000000000E+00  0.45593999997E+02  0.45594000000E+02  0.51100000000E-03 0.  1.
         11   -1    0    0    0    0 -0.00000000000E+00 -0.00000000000E+00 -0.45593999997E+02  0.45594000000E+02  0.51100000000E-03 0. -1.
    9900012    2    1    2    0    0 -0.52190061344E+01 -0.32432888015E+02  0.23959038051E+02  0.50528858908E+02  0.29999997137E+02 0.  0.
         12    1    1    2    0    0  0.52190061344E+01  0.32432888015E+02 -0.23959038051E+02  0.40659141092E+02  0.00000000000E+00 0. -1.
         11    1    3    3    0    0  0.18801042587E+01 -0.30034559219E+01  0.10121535955E+02  0.10723853312E+02  0.51100000000E-03 0. -1.
        -11    1    3    3    0    0 -0.13188769343E+02 -0.26102037323E+02  0.70169302471E+01  0.30074861588E+02  0.51100000000E-03 0.  1.
        -12    1    3    3    0    0  0.60896589497E+01 -0.33273947698E+01  0.68205718482E+01  0.97301440079E+01  0.00000000000E+00 0.  1.
</event>
<event>
 7    1  0.2900470E-011  0.5052886E+02  0.7816164E-02  0.1300439E+00
        -11   -1    0    0    0    0  0.00000000000E+00  0.00000000000E+00  0.45593999997E+02  0.45594000000E+02  0.51100000000E-03 0.  1.
         11   -1    0    0    0    0 -0.00000000000E+00 -0.00000000000E+00 -0.45593999997E+02  0.45594000000E+02  0.51100000000E-03 0. -1.
    9900012    2    1    2    0    0  0.36792755827E+02 -0.16889543190E+02 -0.37685812099E+01  0.50528858902E+02  0.29999997117E+02 0.  0.
         12    1    1    2    0    0 -0.36792755827E+02  0.16889543190E+02  0.37685812099E+01  0.40659141098E+02  0.00000000000E+00 0. -1.
         11    1    3    3    0    0  0.15304023083E+00 -0.52627143963E+01 -0.34930395070E+01  0.63182995646E+01  0.51100000000E-03 0.  1.
        -11    1    3    3    0    0  0.22397015214E+02 -0.39529133531E+01 -0.10523108819E+02  0.25059681442E+02  0.51100000000E-03 0. -1.
        -12    1    3    3    0    0  0.14242700382E+02 -0.76739154408E+01  0.10247567116E+02  0.19150877895E+02  0.00000000000E+00 0.  1.
</event>
<event>
 7    1  0.2900470E-011  0.5052886E+02  0.7816164E-02  0.1300439E+00
        -11   -1    0    0    0    0  0.00000000000E+00  0.00000000000E+00  0.45593999997E+02  0.45594000000E+02  0.51100000000E-03 0.  1.
         11   -1    0    0    0    0 -0.00000000000E+00 -0.00000000000E+00 -0.45593999997E+02  0.45594000000E+02  0.51100000000E-03 0. -1.
    9900012    2    1    2    0    0  0.10080158713E+01 -0.11217164940E+02  0.39068208451E+02  0.50528858385E+02  0.29999995547E+02 0.  0.
         12    1    1    2    0    0 -0.10080158713E+01  0.11217164940E+02 -0.39068208451E+02  0.40659141615E+02  0.00000000000E+00 0. -1.
         11    1    3    3    0    0 -0.13344264338E+01 -0.19944206766E+02  0.15806106875E+02  0.25483035381E+02  0.51100000000E-03 0. -1.
        -11    1    3    3    0    0  0.24154480675E+01  0.71418046792E+01  0.17206143911E+02  0.18785397307E+02  0.51100000000E-03 0.  1.
         12    1    3    3    0    0 -0.73005762402E-01  0.15852371471E+01  0.60559576652E+01  0.62604256961E+01  0.00000000000E+00 0. -1.
</event>
<event>
 7    1  0.2900470E-011  0.5052886E+02  0.7816164E-02  0.1300439E+00
        -11   -1    0    0    0    0  0.00000000000E+00  0.00000000000E+00  0.45593999997E+02  0.45594000000E+02  0.51100000000E-03 0.  1.
         11   -1    0    0    0    0 -0.00000000000E+00 -0.00000000000E+00 -0.45593999997E+02  0.45594000000E+02  0.51100000000E-03 0. -1.
    9900012    2    1    2    0    0 -0.17645784270E+02  0.16877278035E+02  0.32510753970E+02  0.50528864002E+02  0.30000012621E+02 0.  0.
         12    1    1    2    0    0  0.17645784270E+02 -0.16877278035E+02 -0.32510753970E+02  0.40659135998E+02  0.00000000000E+00 0. -1.
         11    1    3    3    0    0  0.24092074687E+01 -0.60631286985E+01  0.32295840625E+01  0.72798367921E+01  0.51100000000E-03 0. -1.
        -11    1    3    3    0    0 -0.15034538420E+02  0.12759198218E+02  0.22925138317E+02  0.30238988935E+02  0.51100000000E-03 0.  1.
        -12    1    3    3    0    0 -0.50204533183E+01  0.10181208515E+02  0.63560315909E+01  0.13010038275E+02  0.00000000000E+00 0.  1.
</event>
<event>
 7    1  0.2900470E-011  0.5052887E+02  0.7816164E-02  0.1300439E+00
        -11   -1    0    0    0    0  0.00000000000E+00  0.00000000000E+00  0.45593999997E+02  0.45594000000E+02  0.51100000000E-03 0.  1.
         11   -1    0    0    0    0 -0.00000000000E+00 -0.00000000000E+00 -0.45593999997E+02  0.45594000000E+02  0.51100000000E-03 0. -1.
    9900012    2    1    2    0    0  0.21303031576E+02 -0.67062957666E+01  0.33976042094E+02  0.50528868263E+02  0.30000025571E+02 0.  0.
         12    1    1    2    0    0 -0.21303031576E+02  0.67062957666E+01 -0.33976042094E+02  0.40659131737E+02  0.00000000000E+00 0. -1.
         11    1    3    3    0    0  0.84660011730E+01  0.10115187501E+02  0.15844407472E+02  0.20616387716E+02  0.51100000000E-03 0. -1.
        -11    1    3    3    0    0  0.97842393416E+01 -0.14468452636E+02  0.19156955904E+02  0.25924051013E+02  0.51100000000E-03 0.  1.
        -12    1    3    3    0    0  0.30527910613E+01 -0.23530306319E+01 -0.10253212812E+01  0.39884295340E+01  0.00000000000E+00 0.  1.
</event>
<event>
 7    1  0.2900470E-011  0.5052885E+02  0.7816164E-02  0.1300439E+00
        -11   -1    0    0    0    0  0.00000000000E+00  0.00000000000E+00  0.45593999997E+02  0.45594000000E+02  0.51100000000E-03 0. -1.
         11   -1    0    0    0    0 -0.00000000000E+00 -0.00000000000E+00 -0.45593999997E+02  0.45594000000E+02  0.51100000000E-03 0.  1.
    9900012    2    1    2    0    0 -0.23601299865E+01 -0.34442621161E+02  0.21477940601E+02  0.50528852217E+02  0.29999976799E+02 0.  0.
         12    1    1    2    0    0  0.23601299865E+01  0.34442621161E+02 -0.21477940601E+02  0.40659147783E+02  0.00000000000E+00 0. -1.
         11    1    3    3    0    0 -0.10036580583E+02 -0.10024659866E+02  0.14264633927E+02  0.20117319319E+02  0.51100000000E-03 0. -1.
        -11    1    3    3    0    0  0.74303957579E+01 -0.12510969267E+02 -0.28404942790E+01  0.14825772868E+02  0.51100000000E-03 0.  1.
        -12    1    3    3    0    0  0.24605483904E+00 -0.11906992028E+02  0.10053800953E+02  0.15585760031E+02  0.00000000000E+00 0.  1.
</event>
<event>
 7    1  0.2900470E-011  0.5052888E+02  0.7816164E-02  0.1300439E+00
        -11   -1    0    0    0    0  0.00000000000E+00  0.00000000000E+00  0.45593999997E+02  0.45594000000E+02  0.51100000000E-03 0.  1.
         11   -1    0    0    0    0 -0.00000000000E+00 -0.00000000000E+00 -0.45593999997E+02  0.45594000000E+02  0.51100000000E-03 0. -1.
    9900012    2    1    2    0    0  0.16382761442E+02 -0.14568506751E+02  0.34242192918E+02  0.50528880023E+02  0.30000061319E+02 0.  0.
         12    1    1    2    0    0 -0.16382761442E+02  0.14568506751E+02 -0.34242192918E+02  0.40659119977E+02  0.00000000000E+00 0. -1.
         11    1    3    3    0    0 -0.22722335277E+01 -0.13201359857E+02  0.24684357334E+02  0.28084808073E+02  0.51100000000E-03 0. -1.
        -11    1    3    3    0    0  0.12826851061E+02 -0.22403104738E+01  0.10166086359E+02  0.16519576607E+02  0.51100000000E-03 0.  1.
         12    1    3    3    0    0  0.58281439092E+01  0.87316357944E+00 -0.60825077466E+00  0.59244953429E+01  0.00000000000E+00 0. -1.
</event>
<event>
 7    1  0.2900470E-011  0.5052886E+02  0.7816164E-02  0.1300439E+00
        -11   -1    0    0    0    0  0.00000000000E+00  0.00000000000E+00  0.45593999997E+02  0.45594000000E+02  0.51100000000E-03 0. -1.
         11   -1    0    0    0    0 -0.00000000000E+00 -0.00000000000E+00 -0.45593999997E+02  0.45594000000E+02  0.51100000000E-03 0.  1.
    9900012    2    1    2    0    0  0.27280459983E+02  0.16786866696E+02 -0.25042832235E+02  0.50528857895E+02  0.29999994058E+02 0.  0.
         12    1    1    2    0    0 -0.27280459983E+02 -0.16786866696E+02  0.25042832235E+02  0.40659142105E+02  0.00000000000E+00 0. -1.
         11    1    3    3    0    0 -0.23669134621E+01  0.25601168433E+01 -0.25337354016E+01  0.43100223822E+01  0.51100000000E-03 0. -1.
        -11    1    3    3    0    0  0.26079965802E+02  0.49221048160E+01 -0.24427603694E+02  0.36070757610E+02  0.51100000000E-03 0.  1.
        -12    1    3    3    0    0  0.35674076438E+01  0.93046450362E+01  0.19185068612E+01  0.10148077903E+02  0.00000000000E+00 0.  1.
</event>
<event>
 7    1  0.2900470E-011  0.5052891E+02  0.7816164E-02  0.1300439E+00
        -11   -1    0    0    0    0  0.00000000000E+00  0.00000000000E+00  0.45593999997E+02  0.45594000000E+02  0.51100000000E-03 0.  1.
         11   -1    0    0    0    0 -0.00000000000E+00 -0.00000000000E+00 -0.45593999997E+02  0.45594000000E+02  0.51100000000E-03 0. -1.
    9900012    2    1    2    0    0  0.31954524359E+01  0.25038963250E+02  0.31874773955E+02  0.50528907393E+02  0.30000144511E+02 0.  0.
         12    1    1    2    0    0 -0.31954524359E+01 -0.25038963250E+02 -0.31874773955E+02  0.40659092607E+02  0.00000000000E+00 0. -1.
         11    1    3    3    0    0 -0.18009280572E+01  0.51130782096E+01  0.18909551242E+02  0.19671249048E+02  0.51100000000E-03 0.  1.
        -11    1    3    3    0    0  0.86082292933E+01  0.22267759810E+01  0.49083834958E+00  0.89051145631E+01  0.51100000000E-03 0. -1.
         12    1    3    3    0    0 -0.36118488002E+01  0.17699109060E+02  0.12474384363E+02  0.21952543782E+02  0.00000000000E+00 0. -1.
</event>
<event>
 7    1  0.2900470E-011  0.5052886E+02  0.7816164E-02  0.1300439E+00
        -11   -1    0    0    0    0  0.00000000000E+00  0.00000000000E+00  0.45593999997E+02  0.45594000000E+02  0.51100000000E-03 0.  1.
         11   -1    0    0    0    0 -0.00000000000E+00 -0.00000000000E+00 -0.45593999997E+02  0.45594000000E+02  0.51100000000E-03 0. -1.
    9900012    2    1    2    0    0 -0.13365060966E+02  0.10761849348E+02  0.36860867700E+02  0.50528858056E+02  0.29999994547E+02 0.  0.
         12    1    1    2    0    0  0.13365060966E+02 -0.10761849348E+02 -0.36860867700E+02  0.40659141944E+02  0.00000000000E+00 0. -1.
         11    1    3    3    0    0  0.25200941546E+01  0.82649445767E+01  0.15736237996E+01  0.87827373596E+01  0.51100000000E-03 0. -1.
        -11    1    3    3    0    0 -0.12047134089E+02  0.52587977635E+01  0.34542871734E+02  0.36959415331E+02  0.51100000000E-03 0.  1.
         12    1    3    3    0    0 -0.38380210313E+01 -0.27618929920E+01  0.74437216649E+00  0.47867053658E+01  0.00000000000E+00 0. -1.
</event>
<event>
 7    1  0.2900470E-011  0.5052883E+02  0.7816164E-02  0.1300439E+00
        -11   -1    0    0    0    0  0.00000000000E+00  0.00000000000E+00  0.45593999997E+02  0.45594000000E+02  0.51100000000E-03 0.  1.
         11   -1    0    0    0    0 -0.00000000000E+00 -0.00000000000E+00 -0.45593999997E+02  0.45594000000E+02  0.51100000000E-03 0. -1.
    9900012    2    1    2    0    0 -0.23834450698E+02  0.27233580648E+02  0.18531566024E+02  0.50528832592E+02  0.29999917148E+02 0.  0.
         12    1    1    2    0    0  0.23834450698E+02 -0.27233580648E+02 -0.18531566024E+02  0.40659167408E+02  0.00000000000E+00 0. -1.
         11    1    3    3    0    0 -0.73967457264E+01  0.25941382605E+02  0.45833746593E+01  0.27361917007E+02  0.51100000000E-03 0. -1.
        -11    1    3    3    0    0 -0.58230719831E+01 -0.24387144763E+01  0.87068453333E+01  0.10754750185E+02  0.51100000000E-03 0.  1.
        -12    1    3    3    0    0 -0.10614632988E+02  0.37309125198E+01  0.52413460312E+01  0.12412165400E+02  0.00000000000E+00 0.  1.
</event>
<event>
 7    1  0.2900470E-011  0.5052892E+02  0.7816164E-02  0.1300439E+00
        -11   -1    0    0    0    0  0.00000000000E+00  0.00000000000E+00  0.45593999997E+02  0.45594000000E+02  0.51100000000E-03 0. -1.
         11   -1    0    0    0    0 -0.00000000000E+00 -0.00000000000E+00 -0.45593999997E+02  0.45594000000E+02  0.51100000000E-03 0.  1.
    9900012    2    1    2    0    0 -0.14957408054E+02  0.25099404706E+02  0.28274660497E+02  0.50528922311E+02  0.30000189855E+02 0.  0.
         12    1    1    2    0    0  0.14957408054E+02 -0.25099404706E+02 -0.28274660497E+02  0.40659077689E+02  0.00000000000E+00 0. -1.
         11    1    3    3    0    0 -0.31929261263E+01  0.28230588825E+02  0.16803830050E+02  0.33008023680E+02  0.51100000000E-03 0. -1.
        -11    1    3    3    0    0 -0.21845537803E+01 -0.24757714949E+01  0.48113131802E+01  0.58352767281E+01  0.51100000000E-03 0.  1.
         12    1    3    3    0    0 -0.95799281478E+01 -0.65541262368E+00  0.66595172671E+01  0.11685621903E+02  0.00000000000E+00 0. -1.
</event>
<event>
 7    1  0.2900470E-011  0.5052885E+02  0.7816164E-02  0.1300439E+00
        -11   -1    0    0    0    0  0.00000000000E+00  0.00000000000E+00  0.45593999997E+02  0.45594000000E+02  0.51100000000E-03 0.  1.
         11   -1    0    0    0    0 -0.00000000000E+00 -0.00000000000E+00 -0.45593999997E+02  0.45594000000E+02  0.51100000000E-03 0. -1.
    9900012    2    1    2    0    0  0.26814763073E+02 -0.18350854934E+02  0.24441377780E+02  0.50528851666E+02  0.29999975125E+02 0.  0.
         12    1    1    2    0    0 -0.26814763073E+02  0.18350854934E+02 -0.24441377780E+02  0.40659148334E+02  0.00000000000E+00 0. -1.
         11    1    3    3    0    0  0.81634493751E+01  0.29915690208E+01 -0.27981985231E+01  0.91335264899E+01  0.51100000000E-03 0. -1.
        -11    1    3    3    0    0  0.94495366115E+01 -0.10118025225E+02  0.47649646590E+01  0.14641484388E+02  0.51100000000E-03 0.  1.
         12    1    3    3    0    0  0.92017770861E+01 -0.11224398729E+02  0.22474611644E+02  0.26753840788E+02  0.00000000000E+00 0. -1.
</event>
<event>
 7    1  0.2900470E-011  0.5052885E+02  0.7816164E-02  0.1300439E+00
        -11   -1    0    0    0    0  0.00000000000E+00  0.00000000000E+00  0.45593999997E+02  0.45594000000E+02  0.51100000000E-03 0.  1.
         11   -1    0    0    0    0 -0.00000000000E+00 -0.00000000000E+00 -0.45593999997E+02  0.45594000000E+02  0.51100000000E-03 0. -1.
    9900012    2    1    2    0    0 -0.29717188246E+01  0.16357114081E+02  0.37104987424E+02  0.50528851145E+02  0.29999973542E+02 0.  0.
         12    1    1    2    0    0  0.29717188246E+01 -0.16357114081E+02 -0.37104987424E+02  0.40659148855E+02  0.00000000000E+00 0. -1.
         11    1    3    3    0    0 -0.43304283293E+01  0.15039428308E+02  0.26938265688E+02  0.31154569037E+02  0.51100000000E-03 0. -1.
        -11    1    3    3    0    0  0.36801822562E+01  0.62331779343E+01 -0.65074586886E+00  0.72677175954E+01  0.51100000000E-03 0.  1.
         12    1    3    3    0    0 -0.23214727514E+01 -0.49154921612E+01  0.10817467605E+02  0.12106564513E+02  0.00000000000E+00 0. -1.
</event>
<event>
 7    1  0.2900470E-011  0.5052886E+02  0.7816164E-02  0.1300439E+00
        -11   -1    0    0    0    0  0.00000000000E+00  0.00000000000E+00  0.45593999997E+02  0.45594000000E+02  0.51100000000E-03 0.  1.
         11   -1    0    0    0    0 -0.00000000000E+00 -0.00000000000E+00 -0.45593999997E+02  0.45594000000E+02  0.51100000000E-03 0. -1.
    9900012    2    1    2    0    0  0.26551997808E+02  0.56556348192E+01  0.30268308482E+02  0.50528864603E+02  0.30000014448E+02 0.  0.
         12    1    1    2    0    0 -0.26551997808E+02 -0.56556348192E+01 -0.30268308482E+02  0.40659135397E+02  0.00000000000E+00 0. -1.
         11    1    3    3    0    0  0.25705346051E+02  0.12938880976E+01  0.12246248128E+02  0.28502799081E+02  0.51100000000E-03 0.  1.
        -11    1    3    3    0    0 -0.35413036573E+01  0.66973039202E+01  0.93904294118E+01  0.12065441401E+02  0.51100000000E-03 0. -1.
         12    1    3    3    0    0  0.43879554148E+01 -0.23355571987E+01  0.86316309429E+01  0.99606241212E+01  0.00000000000E+00 0. -1.
</event>
<event>
 7    1  0.2900470E-011  0.5052886E+02  0.7816164E-02  0.1300439E+00
        -11   -1    0    0    0    0  0.00000000000E+00  0.00000000000E+00  0.45593999997E+02  0.45594000000E+02  0.51100000000E-03 0.  1.
         11   -1    0    0    0    0 -0.00000000000E+00 -0.00000000000E+00 -0.45593999997E+02  0.45594000000E+02  0.51100000000E-03 0. -1.
    9900012    2    1    2    0    0  0.35837800196E+02  0.68670673426E+01  0.17934913692E+02  0.50528859995E+02  0.30000000441E+02 0.  0.
         12    1    1    2    0    0 -0.35837800196E+02 -0.68670673426E+01 -0.17934913692E+02  0.40659140005E+02  0.00000000000E+00 0. -1.
         11    1    3    3    0    0  0.18679576823E+01  0.18673681910E+01  0.13793132067E+01  0.29797374124E+01  0.51100000000E-03 0. -1.
        -11    1    3    3    0    0  0.36321105903E+02  0.10019593917E+02  0.18092745625E+02  0.41796679783E+02  0.51100000000E-03 0.  1.
        -12    1    3    3    0    0 -0.23512633892E+01 -0.50198947659E+01 -0.15371451398E+01  0.57524428000E+01  0.00000000000E+00 0.  1.
</event>
<event>
 7    1  0.2900470E-011  0.5052886E+02  0.7816164E-02  0.1300439E+00
        -11   -1    0    0    0    0  0.00000000000E+00  0.00000000000E+00  0.45593999997E+02  0.45594000000E+02  0.51100000000E-03 0. -1.
         11   -1    0    0    0    0 -0.00000000000E+00 -0.00000000000E+00 -0.45593999997E+02  0.45594000000E+02  0.51100000000E-03 0.  1.
    9900012    2    1    2    0    0  0.10449129066E+02  0.38910797810E+02 -0.54709428834E+01  0.50528859570E+02  0.29999999149E+02 0.  0.
         12    1    1    2    0    0 -0.10449129066E+02 -0.38910797810E+02  0.54709428834E+01  0.40659140430E+02  0.00000000000E+00 0. -1.
         11    1    3    3    0    0 -0.56430558405E+01  0.69160894557E+01 -0.38911793451E+01  0.97374354702E+01  0.51100000000E-03 0. -1.
        -11    1    3    3    0    0  0.13934238329E+02  0.33964017119E+02 -0.40916305406E+01  0.36938582775E+02  0.51100000000E-03 0.  1.
         12    1    3    3    0    0  0.21579465769E+01 -0.19693087644E+01  0.25118670023E+01  0.38528413250E+01  0.00000000000E+00 0. -1.
</event>
<event>
 7    1  0.2900470E-011  0.5052886E+02  0.7816164E-02  0.1300439E+00
        -11   -1    0    0    0    0  0.00000000000E+00  0.00000000000E+00  0.45593999997E+02  0.45594000000E+02  0.51100000000E-03 0. -1.
         11   -1    0    0    0    0 -0.00000000000E+00 -0.00000000000E+00 -0.45593999997E+02  0.45594000000E+02  0.51100000000E-03 0.  1.
    9900012    2    1    2    0    0  0.22935229973E+02  0.33331765202E+02 -0.40167396682E+01  0.50528861507E+02  0.30000005037E+02 0.  0.
         12    1    1    2    0    0 -0.22935229973E+02 -0.33331765202E+02  0.40167396682E+01  0.40659138493E+02  0.00000000000E+00 0. -1.
         11    1    3    3    0    0  0.33016467740E+01  0.25093635178E+02  0.52973388244E+01  0.25858329350E+02  0.51100000000E-03 0.  1.
        -11    1    3    3    0    0  0.97730586137E+01 -0.33213911747E+00 -0.41328711865E+01  0.10616195908E+02  0.51100000000E-03 0. -1.
        -12    1    3    3    0    0  0.98605245853E+01  0.85702691415E+01 -0.51812073061E+01  0.14054336249E+02  0.00000000000E+00 0.  1.
</event>
<event>
 7    1  0.2900470E-011  0.5052885E+02  0.7816164E-02  0.1300439E+00
        -11   -1    0    0    0    0  0.00000000000E+00  0.00000000000E+00  0.45593999997E+02  0.45594000000E+02  0.51100000000E-03 0.  1.
         11   -1    0    0    0    0 -0.00000000000E+00 -0.00000000000E+00 -0.45593999997E+02  0.45594000000E+02  0.51100000000E-03 0. -1.
    9900012    2    1    2    0    0  0.11610366271E+02 -0.37374202659E+02  0.11024273025E+02  0.50528853119E+02  0.29999979541E+02 0.  0.
         12    1    1    2    0    0 -0.11610366271E+02  0.37374202659E+02 -0.11024273025E+02  0.40659146881E+02  0.00000000000E+00 0. -1.
         11    1    3    3    0    0 -0.11135706632E+01 -0.13484679707E+02  0.56922795307E+01  0.14679191835E+02  0.51100000000E-03 0. -1.
        -11    1    3    3    0    0  0.11498793629E+02 -0.13236453498E+02 -0.75487521928E+01  0.19089515868E+02  0.51100000000E-03 0.  1.
        -12    1    3    3    0    0  0.12251433050E+01 -0.10653069454E+02  0.12880745687E+02  0.16760145416E+02  0.00000000000E+00 0.  1.
</event>
<event>
 7    1  0.2900470E-011  0.5052885E+02  0.7816164E-02  0.1300439E+00
        -11   -1    0    0    0    0  0.00000000000E+00  0.00000000000E+00  0.45593999997E+02  0.45594000000E+02  0.51100000000E-03 0.  1.
         11   -1    0    0    0    0 -0.00000000000E+00 -0.00000000000E+00 -0.45593999997E+02  0.45594000000E+02  0.51100000000E-03 0. -1.
    9900012    2    1    2    0    0  0.17062399326E+02 -0.30428778714E+01  0.36780183788E+02  0.50528849788E+02  0.29999969415E+02 0.  0.
         12    1    1    2    0    0 -0.17062399326E+02  0.30428778714E+01 -0.36780183788E+02  0.40659150212E+02  0.00000000000E+00 0. -1.
         11    1    3    3    0    0  0.11094957439E+02 -0.50845215284E+01  0.98796922598E+00  0.12244448668E+02  0.51100000000E-03 0. -1.
        -11    1    3    3    0    0  0.46077769651E+01  0.19974034207E+01  0.36435224050E+02  0.36779706100E+02  0.51100000000E-03 0.  1.
        -12    1    3    3    0    0  0.13596649226E+01  0.44240236290E-01 -0.64300948786E+00  0.15046950195E+01  0.00000000000E+00 0.  1.
</event>
<event>
 7    1  0.2900470E-011  0.5052886E+02  0.7816164E-02  0.1300439E+00
        -11   -1    0    0    0    0  0.00000000000E+00  0.00000000000E+00  0.45593999997E+02  0.45594000000E+02  0.51100000000E-03 0. -1.
         11   -1    0    0    0    0 -0.00000000000E+00 -0.00000000000E+00 -0.45593999997E+02  0.45594000000E+02  0.51100000000E-03 0.  1.
    9900012    2    1    2    0    0 -0.34575794864E+02  0.17619757349E+02 -0.12133597942E+02  0.50528860333E+02  0.30000001467E+02 0.  0.
         12    1    1    2    0    0  0.34575794864E+02 -0.17619757349E+02  0.12133597942E+02  0.40659139667E+02  0.00000000000E+00 0. -1.
         11    1    3    3    0    0 -0.17790285285E+02  0.16411380207E+02 -0.54888459378E+01  0.24818442353E+02  0.51100000000E-03 0. -1.
        -11    1    3    3    0    0  0.88583853953E+00 -0.40874561531E+01 -0.59200253023E+01  0.72483589565E+01  0.51100000000E-03 0.  1.
        -12    1    3    3    0    0 -0.17671348118E+02  0.52958332948E+01 -0.72472670199E+00  0.18462059023E+02  0.00000000000E+00 0.  1.
</event>
<event>
 7    1  0.2900470E-011  0.5052886E+02  0.7816164E-02  0.1300439E+00
        -11   -1    0    0    0    0  0.00000000000E+00  0.00000000000E+00  0.45593999997E+02  0.45594000000E+02  0.51100000000E-03 0.  1.
         11   -1    0    0    0    0 -0.00000000000E+00 -0.00000000000E+00 -0.45593999997E+02  0.45594000000E+02  0.51100000000E-03 0. -1.
    9900012    2    1    2    0    0 -0.34369370460E+02 -0.21409287174E+02  0.36816812648E+01  0.50528856132E+02  0.29999988700E+02 0.  0.
         12    1    1    2    0    0  0.34369370460E+02  0.21409287174E+02 -0.36816812648E+01  0.40659143868E+02  0.00000000000E+00 0. -1.
         11    1    3    3    0    0 -0.60239208493E+01 -0.96460275201E+01 -0.99449411993E+01  0.15107459251E+02  0.51100000000E-03 0. -1.
        -11    1    3    3    0    0 -0.12598251337E+02 -0.11243228686E+02  0.80648681088E+01  0.18712782421E+02  0.51100000000E-03 0.  1.
         12    1    3    3    0    0 -0.15747198274E+02 -0.52003096782E+00  0.55617543552E+01  0.16708614460E+02  0.00000000000E+00 0. -1.
</event>
<event>
 7    1  0.2900470E-011  0.5052886E+02  0.7816164E-02  0.1300439E+00
        -11   -1    0    0    0    0  0.00000000000E+00  0.00000000000E+00  0.45593999997E+02  0.45594000000E+02  0.51100000000E-03 0. -1.
         11   -1    0    0    0    0 -0.00000000000E+00 -0.00000000000E+00 -0.45593999997E+02  0.45594000000E+02  0.51100000000E-03 0.  1.
    9900012    2    1    2    0    0 -0.45981603054E+01 -0.39898287285E+02 -0.63363622713E+01  0.50528857199E+02  0.29999991943E+02 0.  0.
         12    1    1    2    0    0  0.45981603054E+01  0.39898287285E+02  0.63363622713E+01  0.40659142801E+02  0.00000000000E+00 0. -1.
         11    1    3    3    0    0 -0.25011090886E+01  0.14922886922E+01  0.27055013007E+00  0.29250076663E+01  0.51100000000E-03 0. -1.
        -11    1    3    3    0    0 -0.92172297284E+01 -0.33292308850E+02 -0.10553925634E+02  0.36120914980E+02  0.51100000000E-03 0.  1.
        -12    1    3    3    0    0  0.71201785116E+01 -0.80982671268E+01  0.39470132328E+01  0.11482934553E+02  0.00000000000E+00 0.  1.
</event>
<event>
 7    1  0.2900470E-011  0.5052888E+02  0.7816164E-02  0.1300439E+00
        -11   -1    0    0    0    0  0.00000000000E+00  0.00000000000E+00  0.45593999997E+02  0.45594000000E+02  0.51100000000E-03 0. -1.
         11   -1    0    0    0    0 -0.00000000000E+00 -0.00000000000E+00 -0.45593999997E+02  0.45594000000E+02  0.51100000000E-03 0.  1.
    9900012    2    1    2    0    0 -0.31898756979E+02 -0.12411595918E+01 -0.25181207307E+02  0.50528875865E+02  0.30000048680E+02 0.  0.
         12    1    1    2    0    0  0.31898756979E+02  0.12411595918E+01  0.25181207307E+02  0.40659124135E+02  0.00000000000E+00 0. -1.
         11    1    3    3    0    0 -0.70395369874E+01 -0.27823265030E+01  0.26349331602E-01  0.75694858686E+01  0.51100000000E-03 0. -1.
        -11    1    3    3    0    0 -0.77250440477E+01  0.93272304625E+01 -0.20086064765E+02  0.23454712354E+02  0.51100000000E-03 0.  1.
        -12    1    3    3    0    0 -0.17134175944E+02 -0.77860635513E+01 -0.51214918741E+01  0.19504677642E+02  0.00000000000E+00 0.  1.
</event>
<event>
 7    1  0.2900470E-011  0.5052886E+02  0.7816164E-02  0.1300439E+00
        -11   -1    0    0    0    0  0.00000000000E+00  0.00000000000E+00  0.45593999997E+02  0.45594000000E+02  0.51100000000E-03 0. -1.
         11   -1    0    0    0    0 -0.00000000000E+00 -0.00000000000E+00 -0.45593999997E+02  0.45594000000E+02  0.51100000000E-03 0.  1.
    9900012    2    1    2    0    0 -0.60554537643E+01 -0.23713001857E+02 -0.32468302018E+02  0.50528860642E+02  0.30000002409E+02 0.  0.
         12    1    1    2    0    0  0.60554537643E+01  0.23713001857E+02  0.32468302018E+02  0.40659139358E+02  0.00000000000E+00 0. -1.
         11    1    3    3    0    0 -0.18098622512E+01 -0.46432696352E+00 -0.21592156251E+02  0.21672849668E+02  0.51100000000E-03 0. -1.
        -11    1    3    3    0    0 -0.65947552638E+01 -0.10813182397E+02 -0.10059347450E+02  0.16174244400E+02  0.51100000000E-03 0.  1.
         12    1    3    3    0    0  0.23491637507E+01 -0.12435492496E+02 -0.81679831757E+00  0.12681766574E+02  0.00000000000E+00 0. -1.
</event>
<event>
 7    1  0.2900470E-011  0.5052887E+02  0.7816164E-02  0.1300439E+00
        -11   -1    0    0    0    0  0.00000000000E+00  0.00000000000E+00  0.45593999997E+02  0.45594000000E+02  0.51100000000E-03 0.  1.
         11   -1    0    0    0    0 -0.00000000000E+00 -0.00000000000E+00 -0.45593999997E+02  0.45594000000E+02  0.51100000000E-03 0. -1.
    9900012    2    1    2    0    0  0.34837384971E+02  0.20845284729E+02  0.22351230798E+01  0.50528867419E+02  0.30000023008E+02 0.  0.
         12    1    1    2    0    0 -0.34837384971E+02 -0.20845284729E+02 -0.22351230798E+01  0.40659132581E+02  0.00000000000E+00 0. -1.
         11    1    3    3    0    0 -0.54470103989E+00  0.17341899306E+01 -0.74536804299E+01  0.76721226626E+01  0.51100000000E-03 0. -1.
        -11    1    3    3    0    0  0.23191925182E+02  0.15955354579E+02  0.22697439474E+01  0.28241644273E+02  0.51100000000E-03 0.  1.
         12    1    3    3    0    0  0.12190160829E+02  0.31557402189E+01  0.74190595622E+01  0.14615100484E+02  0.00000000000E+00 0. -1.
</event>
<event>
 7    1  0.2900470E-011  0.5052886E+02  0.7816164E-02  0.1300439E+00
        -11   -1    0    0    0    0  0.00000000000E+00  0.00000000000E+00  0.45593999997E+02  0.45594000000E+02  0.51100000000E-03 0.  1.
         11   -1    0    0    0    0 -0.00000000000E+00 -0.00000000000E+00 -0.45593999997E+02  0.45594000000E+02  0.51100000000E-03 0. -1.
    9900012    2    1    2    0    0  0.90045298262E+01  0.95253851525E+01  0.38488322655E+02  0.50528862029E+02  0.30000006624E+02 0.  0.
         12    1    1    2    0    0 -0.90045298262E+01 -0.95253851525E+01 -0.38488322655E+02  0.40659137971E+02  0.00000000000E+00 0. -1.
         11    1    3    3    0    0  0.33165422070E+01  0.59190602995E+01 -0.26149393827E+01  0.72713571826E+01  0.51100000000E-03 0. -1.
        -11    1    3    3    0    0 -0.14333238355E+01  0.58048153867E+01  0.20139780769E+02  0.21008595112E+02  0.51100000000E-03 0.  1.
         12    1    3    3    0    0  0.71213114547E+01 -0.21984905337E+01  0.20963481269E+02  0.22248909735E+02  0.00000000000E+00 0. -1.
</event>
<event>
 7    1  0.2900470E-011  0.5052886E+02  0.7816164E-02  0.1300439E+00
        -11   -1    0    0    0    0  0.00000000000E+00  0.00000000000E+00  0.45593999997E+02  0.45594000000E+02  0.51100000000E-03 0.  1.
         11   -1    0    0    0    0 -0.00000000000E+00 -0.00000000000E+00 -0.45593999997E+02  0.45594000000E+02  0.51100000000E-03 0. -1.
    9900012    2    1    2    0    0  0.78152741918E+01  0.49223611193E-01  0.39900936335E+02  0.50528860141E+02  0.30000000885E+02 0.  0.
         12    1    1    2    0    0 -0.78152741918E+01 -0.49223611193E-01 -0.39900936335E+02  0.40659139859E+02  0.00000000000E+00 0. -1.
         11    1    3    3    0    0  0.30905754658E+01 -0.70410458031E+01  0.10636246977E+01  0.77626851327E+01  0.51100000000E-03 0. -1.
        -11    1    3    3    0    0  0.38635368331E+01 -0.13945744394E+01  0.30716279082E+02  0.30989700799E+02  0.51100000000E-03 0.  1.
         12    1    3    3    0    0  0.86116189287E+00  0.84848438538E+01  0.81210325557E+01  0.11776474209E+02  0.00000000000E+00 0. -1.
</event>
<event>
 7    1  0.2900470E-011  0.5052886E+02  0.7816164E-02  0.1300439E+00
        -11   -1    0    0    0    0  0.00000000000E+00  0.00000000000E+00  0.45593999997E+02  0.45594000000E+02  0.51100000000E-03 0. -1.
         11   -1    0    0    0    0 -0.00000000000E+00 -0.00000000000E+00 -0.45593999997E+02  0.45594000000E+02  0.51100000000E-03 0.  1.
    9900012    2    1    2    0    0 -0.49333119059E+01  0.92762588997E+01 -0.39278225109E+02  0.50528861873E+02  0.30000006148E+02 0.  0.
         12    1    1    2    0    0  0.49333119059E+01 -0.92762588997E+01  0.39278225109E+02  0.40659138127E+02  0.00000000000E+00 0. -1.
         11    1    3    3    0    0 -0.35321230869E+01  0.11264741064E+02 -0.16485279979E+02  0.20276457802E+02  0.51100000000E-03 0. -1.
        -11    1    3    3    0    0 -0.61511474582E+01 -0.59289690446E+01 -0.22507197946E+02  0.24074119893E+02  0.51100000000E-03 0.  1.
        -12    1    3    3    0    0  0.47499586392E+01  0.39404868798E+01 -0.28574718409E+00  0.61782841774E+01  0.00000000000E+00 0.  1.
</event>
<event>
 7    1  0.2900470E-011  0.5052887E+02  0.7816164E-02  0.1300439E+00
        -11   -1    0    0    0    0  0.00000000000E+00  0.00000000000E+00  0.45593999997E+02  0.45594000000E+02  0.51100000000E-03 0.  1.
         11   -1    0    0    0    0 -0.00000000000E+00 -0.00000000000E+00 -0.45593999997E+02  0.45594000000E+02  0.51100000000E-03 0. -1.
    9900012    2    1    2    0    0  0.30095678665E+02  0.26110307680E+02  0.81035294705E+01  0.50528865340E+02  0.30000016686E+02 0.  0.
         12    1    1    2    0    0 -0.30095678665E+02 -0.26110307680E+02 -0.81035294705E+01  0.40659134660E+02  0.00000000000E+00 0. -1.
         11    1    3    3    0    0  0.95875364096E+01 -0.44363560479E+01  0.37676483567E+01  0.11215938828E+02  0.51100000000E-03 0. -1.
        -11    1    3    3    0    0  0.31417093434E+01  0.16228632413E+02  0.10099120225E+01  0.16560759951E+02  0.51100000000E-03 0.  1.
         12    1    3    3    0    0  0.17366432912E+02  0.14318031314E+02  0.33259690914E+01  0.22752166561E+02  0.00000000000E+00 0. -1.
</event>
<event>
 7    1  0.2900470E-011  0.5052888E+02  0.7816164E-02  0.1300439E+00
        -11   -1    0    0    0    0  0.00000000000E+00  0.00000000000E+00  0.45593999997E+02  0.45594000000E+02  0.51100000000E-03 0. -1.
         11   -1    0    0    0    0 -0.00000000000E+00 -0.00000000000E+00 -0.45593999997E+02  0.45594000000E+02  0.51100000000E-03 0.  1.
    9900012    2    1    2    0    0 -0.14754480122E+02  0.33570994419E+02 -0.17562972271E+02  0.50528876239E+02  0.30000049817E+02 0.  0.
         12    1    1    2    0    0  0.14754480122E+02 -0.33570994419E+02  0.17562972271E+02  0.40659123761E+02  0.00000000000E+00 0. -1.
         11    1    3    3    0    0 -0.16160461304E+02  0.54272944527E+01 -0.33610016842E+01  0.17375625664E+02  0.51100000000E-03 0. -1.
        -11    1    3    3    0    0 -0.36453637425E+01  0.17216575379E+02 -0.60271663023E+01  0.18601770843E+02  0.51100000000E-03 0.  1.
         12    1    3    3    0    0  0.50513449244E+01  0.10927124588E+02 -0.81748042848E+01  0.14551479732E+02  0.00000000000E+00 0. -1.
</event>
<event>
 7    1  0.2900470E-011  0.5052885E+02  0.7816164E-02  0.1300439E+00
        -11   -1    0    0    0    0  0.00000000000E+00  0.00000000000E+00  0.45593999997E+02  0.45594000000E+02  0.51100000000E-03 0. -1.
         11   -1    0    0    0    0 -0.00000000000E+00 -0.00000000000E+00 -0.45593999997E+02  0.45594000000E+02  0.51100000000E-03 0.  1.
    9900012    2    1    2    0    0 -0.24949004674E+02 -0.11891352062E+02 -0.29821284834E+02  0.50528854445E+02  0.29999983572E+02 0.  0.
         12    1    1    2    0    0  0.24949004674E+02  0.11891352062E+02  0.29821284834E+02  0.40659145555E+02  0.00000000000E+00 0. -1.
         11    1    3    3    0    0 -0.16642508242E+02 -0.38408850523E+01 -0.13206507559E+01  0.17130954359E+02  0.51100000000E-03 0. -1.
        -11    1    3    3    0    0 -0.59295435958E+01 -0.67659798689E+01 -0.29243283691E+02  0.30595875738E+02  0.51100000000E-03 0.  1.
        -12    1    3    3    0    0 -0.23769528364E+01 -0.12844871406E+01  0.74264961357E+00  0.28020243485E+01  0.00000000000E+00 0.  1.
</event>
<event>
 7    1  0.2900470E-011  0.5052887E+02  0.7816164E-02  0.1300439E+00
        -11   -1    0    0    0    0  0.00000000000E+00  0.00000000000E+00  0.45593999997E+02  0.45594000000E+02  0.51100000000E-03 0.  1.
         11   -1    0    0    0    0 -0.00000000000E+00 -0.00000000000E+00 -0.45593999997E+02  0.45594000000E+02  0.51100000000E-03 0. -1.
    9900012    2    1    2    0    0  0.97519281268E+00  0.39225491938E+02  0.10657155878E+02  0.50528865845E+02  0.30000018223E+02 0.  0.
         12    1    1    2    0    0 -0.97519281268E+00 -0.39225491938E+02 -0.10657155878E+02  0.40659134155E+02  0.00000000000E+00 0. -1.
         11    1    3    3    0    0 -0.20572737909E+01 -0.31048794994E+01  0.67871785480E+01  0.77419923185E+01  0.51100000000E-03 0. -1.
        -11    1    3    3    0    0  0.13387977206E+01  0.28078521608E+02  0.42490136583E+01  0.28429735707E+02  0.51100000000E-03 0.  1.
         12    1    3    3    0    0  0.16936688829E+01  0.14251849829E+02 -0.37903632776E+00  0.14357137820E+02  0.00000000000E+00 0. -1.
</event>
<event>
 7    1  0.2900470E-011  0.5052889E+02  0.7816164E-02  0.1300439E+00
        -11   -1    0    0    0    0  0.00000000000E+00  0.00000000000E+00  0.45593999997E+02  0.45594000000E+02  0.51100000000E-03 0. -1.
         11   -1    0    0    0    0 -0.00000000000E+00 -0.00000000000E+00 -0.45593999997E+02  0.45594000000E+02  0.51100000000E-03 0.  1.
    9900012    2    1    2    0    0  0.22832421522E+02  0.33155295568E+02 -0.57070290527E+01  0.50528889368E+02  0.30000089724E+02 0.  0.
         12    1    1    2    0    0 -0.22832421522E+02 -0.33155295568E+02  0.57070290527E+01  0.40659110632E+02  0.00000000000E+00 0. -1.
         11    1    3    3    0    0  0.84883027472E+01  0.99024244533E+01 -0.81796922851E+01  0.15395345391E+02  0.51100000000E-03 0. -1.
        -11    1    3    3    0    0  0.67526658030E+01  0.16739662377E+02  0.11711701677E+02  0.21516940962E+02  0.51100000000E-03 0.  1.
        -12    1    3    3    0    0  0.75914529718E+01  0.65132087376E+01 -0.92390384447E+01  0.13616603015E+02  0.00000000000E+00 0.  1.
</event>
<event>
 7    1  0.2900470E-011  0.5052889E+02  0.7816164E-02  0.1300439E+00
        -11   -1    0    0    0    0  0.00000000000E+00  0.00000000000E+00  0.45593999997E+02  0.45594000000E+02  0.51100000000E-03 0.  1.
         11   -1    0    0    0    0 -0.00000000000E+00 -0.00000000000E+00 -0.45593999997E+02  0.45594000000E+02  0.51100000000E-03 0. -1.
    9900012    2    1    2    0    0  0.90430544586E+01  0.13444294347E+02  0.37291251042E+02  0.50528889228E+02  0.30000089298E+02 0.  0.
         12    1    1    2    0    0 -0.90430544586E+01 -0.13444294347E+02 -0.37291251042E+02  0.40659110772E+02  0.00000000000E+00 0. -1.
         11    1    3    3    0    0  0.32748032920E+01  0.10655689629E+02  0.11947310881E+02  0.16340327280E+02  0.51100000000E-03 0. -1.
        -11    1    3    3    0    0  0.81868491943E+01 -0.69338120080E+01  0.57272988118E+01  0.12161587094E+02  0.51100000000E-03 0.  1.
        -12    1    3    3    0    0 -0.24185980278E+01  0.97224167266E+01  0.19616641350E+02  0.22026974855E+02  0.00000000000E+00 0.  1.
</event>
<event>
 7    1  0.2900470E-011  0.5052886E+02  0.7816164E-02  0.1300439E+00
        -11   -1    0    0    0    0  0.00000000000E+00  0.00000000000E+00  0.45593999997E+02  0.45594000000E+02  0.51100000000E-03 0.  1.
         11   -1    0    0    0    0 -0.00000000000E+00 -0.00000000000E+00 -0.45593999997E+02  0.45594000000E+02  0.51100000000E-03 0. -1.
    9900012    2    1    2    0    0 -0.97943367593E+01 -0.38187369026E+02  0.99479388594E+01  0.50528859906E+02  0.30000000169E+02 0.  0.
         12    1    1    2    0    0  0.97943367593E+01  0.38187369026E+02 -0.99479388594E+01  0.40659140094E+02  0.00000000000E+00 0. -1.
         11    1    3    3    0    0 -0.12962787876E+02 -0.12807519088E+02  0.15159516603E+02  0.23703952384E+02  0.51100000000E-03 0. -1.
        -11    1    3    3    0    0  0.49963156397E+01 -0.19991616223E+02 -0.44843223113E+01  0.21088789344E+02  0.51100000000E-03 0.  1.
         12    1    3    3    0    0 -0.18278645229E+01 -0.53882337151E+01 -0.72725543196E+00  0.57361181775E+01  0.00000000000E+00 0. -1.
</event>
<event>
 7    1  0.2900470E-011  0.5052887E+02  0.7816164E-02  0.1300439E+00
        -11   -1    0    0    0    0  0.00000000000E+00  0.00000000000E+00  0.45593999997E+02  0.45594000000E+02  0.51100000000E-03 0. -1.
         11   -1    0    0    0    0 -0.00000000000E+00 -0.00000000000E+00 -0.45593999997E+02  0.45594000000E+02  0.51100000000E-03 0.  1.
    9900012    2    1    2    0    0 -0.50501804042E+01  0.37392431253E+02  0.15148159668E+02  0.50528868450E+02  0.30000026139E+02 0.  0.
         12    1    1    2    0    0  0.50501804042E+01 -0.37392431253E+02 -0.15148159668E+02  0.40659131550E+02  0.00000000000E+00 0. -1.
         11    1    3    3    0    0 -0.43120751801E+01  0.10972738057E+02  0.14743123550E+02  0.18877358531E+02  0.51100000000E-03 0. -1.
        -11    1    3    3    0    0 -0.62493050521E+01  0.60207303455E+01 -0.47621790792E+01  0.98985532969E+01  0.51100000000E-03 0.  1.
        -12    1    3    3    0    0  0.55111998279E+01  0.20398962850E+02  0.51672151974E+01  0.21752956622E+02  0.00000000000E+00 0.  1.
</event>
<event>
 7    1  0.2900470E-011  0.5052886E+02  0.7816164E-02  0.1300439E+00
        -11   -1    0    0    0    0  0.00000000000E+00  0.00000000000E+00  0.45593999997E+02  0.45594000000E+02  0.51100000000E-03 0.  1.
         11   -1    0    0    0    0 -0.00000000000E+00 -0.00000000000E+00 -0.45593999997E+02  0.45594000000E+02  0.51100000000E-03 0. -1.
    9900012    2    1    2    0    0 -0.26313767843E+02  0.17899606818E+02  0.25305249985E+02  0.50528856144E+02  0.29999988736E+02 0.  0.
         12    1    1    2    0    0  0.26313767843E+02 -0.17899606818E+02 -0.25305249985E+02  0.40659143856E+02  0.00000000000E+00 0. -1.
         11    1    3    3    0    0  0.49853941656E+01  0.45580890307E+01 -0.92065157954E+00  0.68174724195E+01  0.51100000000E-03 0. -1.
        -11    1    3    3    0    0 -0.16492991775E+02  0.11371126160E+02  0.15074274255E+02  0.25070999829E+02  0.51100000000E-03 0.  1.
         12    1    3    3    0    0 -0.14806170233E+02  0.19703916270E+01  0.11151627309E+02  0.18640383896E+02  0.00000000000E+00 0. -1.
</event>
<event>
 7    1  0.2900470E-011  0.5052890E+02  0.7816164E-02  0.1300439E+00
        -11   -1    0    0    0    0  0.00000000000E+00  0.00000000000E+00  0.45593999997E+02  0.45594000000E+02  0.51100000000E-03 0.  1.
         11   -1    0    0    0    0 -0.00000000000E+00 -0.00000000000E+00 -0.45593999997E+02  0.45594000000E+02  0.51100000000E-03 0. -1.
    9900012    2    1    2    0    0 -0.28259706502E+02 -0.26438970144E+01  0.29112911248E+02  0.50528895185E+02  0.30000107405E+02 0.  0.
         12    1    1    2    0    0  0.28259706502E+02  0.26438970144E+01 -0.29112911248E+02  0.40659104815E+02  0.00000000000E+00 0. -1.
         11    1    3    3    0    0 -0.25604774181E+02 -0.36471022485E+01  0.74266234213E+01  0.26908373257E+02  0.51100000000E-03 0. -1.
        -11    1    3    3    0    0 -0.50866110024E+00 -0.38253461678E+01  0.67253847786E+01  0.77538899980E+01  0.51100000000E-03 0.  1.
         12    1    3    3    0    0 -0.21462712209E+01  0.48285514020E+01  0.14960903048E+02  0.15866631930E+02  0.00000000000E+00 0. -1.
</event>
<event>
 7    1  0.2900470E-011  0.5052886E+02  0.7816164E-02  0.1300439E+00
        -11   -1    0    0    0    0  0.00000000000E+00  0.00000000000E+00  0.45593999997E+02  0.45594000000E+02  0.51100000000E-03 0.  1.
         11   -1    0    0    0    0 -0.00000000000E+00 -0.00000000000E+00 -0.45593999997E+02  0.45594000000E+02  0.51100000000E-03 0. -1.
    9900012    2    1    2    0    0  0.10427536788E+02  0.25339477182E+02  0.30039024203E+02  0.50528860777E+02  0.30000002817E+02 0.  0.
         12    1    1    2    0    0 -0.10427536788E+02 -0.25339477182E+02 -0.30039024203E+02  0.40659139223E+02  0.00000000000E+00 0. -1.
         11    1    3    3    0    0  0.11785033208E+01  0.16753973828E+02  0.23627483958E+01  0.16960751439E+02  0.51100000000E-03 0. -1.
        -11    1    3    3    0    0  0.11968178361E+02  0.10291530206E+02  0.22854768679E+02  0.27775768916E+02  0.51100000000E-03 0.  1.
         12    1    3    3    0    0 -0.27191448936E+01 -0.17060268528E+01  0.48215071289E+01  0.57923404224E+01  0.00000000000E+00 0. -1.
</event>
<event>
 7    1  0.2900470E-011  0.5052885E+02  0.7816164E-02  0.1300439E+00
        -11   -1    0    0    0    0  0.00000000000E+00  0.00000000000E+00  0.45593999997E+02  0.45594000000E+02  0.51100000000E-03 0. -1.
         11   -1    0    0    0    0 -0.00000000000E+00 -0.00000000000E+00 -0.45593999997E+02  0.45594000000E+02  0.51100000000E-03 0.  1.
    9900012    2    1    2    0    0  0.20078831572E+02  0.32017109365E+02 -0.14997057501E+02  0.50528849700E+02  0.29999969149E+02 0.  0.
         12    1    1    2    0    0 -0.20078831572E+02 -0.32017109365E+02  0.14997057501E+02  0.40659150300E+02  0.00000000000E+00 0. -1.
         11    1    3    3    0    0  0.11489149232E+01  0.13642353202E+02 -0.41022873856E+01  0.14292045635E+02  0.51100000000E-03 0. -1.
        -11    1    3    3    0    0  0.21224902104E+02  0.78356881478E+01 -0.28984994600E+01  0.22809992930E+02  0.51100000000E-03 0.  1.
        -12    1    3    3    0    0 -0.22949854548E+01  0.10539068016E+02 -0.79962706556E+01  0.13426811136E+02  0.00000000000E+00 0.  1.
</event>
<event>
 7    1  0.2900470E-011  0.5052887E+02  0.7816164E-02  0.1300439E+00
        -11   -1    0    0    0    0  0.00000000000E+00  0.00000000000E+00  0.45593999997E+02  0.45594000000E+02  0.51100000000E-03 0. -1.
         11   -1    0    0    0    0 -0.00000000000E+00 -0.00000000000E+00 -0.45593999997E+02  0.45594000000E+02  0.51100000000E-03 0.  1.
    9900012    2    1    2    0    0  0.20434809600E+02 -0.32232729154E+02  0.14022657539E+02  0.50528865767E+02  0.30000017987E+02 0.  0.
         12    1    1    2    0    0 -0.20434809600E+02  0.32232729154E+02 -0.14022657539E+02  0.40659134233E+02  0.00000000000E+00 0. -1.
         11    1    3    3    0    0 -0.56970472035E+01 -0.46364811831E+01  0.57108366825E+01  0.93041367400E+01  0.51100000000E-03 0. -1.
        -11    1    3    3    0    0  0.26679350276E+02 -0.24213038625E+02  0.48503183248E+01  0.36353604480E+02  0.51100000000E-03 0.  1.
        -12    1    3    3    0    0 -0.54749347207E+00 -0.33832093459E+01  0.34615025318E+01  0.48711245476E+01  0.00000000000E+00 0.  1.
</event>
<event>
 7    1  0.2900470E-011  0.5052886E+02  0.7816164E-02  0.1300439E+00
        -11   -1    0    0    0    0  0.00000000000E+00  0.00000000000E+00  0.45593999997E+02  0.45594000000E+02  0.51100000000E-03 0. -1.
         11   -1    0    0    0    0 -0.00000000000E+00 -0.00000000000E+00 -0.45593999997E+02  0.45594000000E+02  0.51100000000E-03 0.  1.
    9900012    2    1    2    0    0  0.28011889838E+02 -0.29469357063E+02 -0.23726876381E+00  0.50528864809E+02  0.30000015074E+02 0.  0.
         12    1    1    2    0    0 -0.28011889838E+02  0.29469357063E+02  0.23726876381E+00  0.40659135191E+02  0.00000000000E+00 0. -1.
         11    1    3    3    0    0  0.22899726442E+01 -0.14348969327E+02  0.41577794927E+01  0.15113703253E+02  0.51100000000E-03 0. -1.
        -11    1    3    3    0    0  0.14873888559E+02  0.15162971867E+00 -0.71102579670E+01  0.16486701340E+02  0.51100000000E-03 0.  1.
        -12    1    3    3    0    0  0.10848028634E+02 -0.15272017455E+02  0.27152097106E+01  0.18928460216E+02  0.00000000000E+00 0.  1.
</event>
<event>
 7    1  0.2900470E-011  0.5052886E+02  0.7816164E-02  0.1300439E+00
        -11   -1    0    0    0    0  0.00000000000E+00  0.00000000000E+00  0.45593999997E+02  0.45594000000E+02  0.51100000000E-03 0.  1.
         11   -1    0    0    0    0 -0.00000000000E+00 -0.00000000000E+00 -0.45593999997E+02  0.45594000000E+02  0.51100000000E-03 0. -1.
    9900012    2    1    2    0    0 -0.28505776404E+02  0.80475404322E+01  0.27853612334E+02  0.50528856927E+02  0.29999991114E+02 0.  0.
         12    1    1    2    0    0  0.28505776404E+02 -0.80475404322E+01 -0.27853612334E+02  0.40659143073E+02  0.00000000000E+00 0. -1.
         11    1    3    3    0    0 -0.49555797774E+01  0.22507851896E+00 -0.24303383295E+01  0.55240361989E+01  0.51100000000E-03 0. -1.
        -11    1    3    3    0    0 -0.22273042797E+02  0.14186628605E+02  0.26855946701E+02  0.37664183783E+02  0.51100000000E-03 0.  1.
        -12    1    3    3    0    0 -0.12771538294E+01 -0.63641666913E+01  0.34280039627E+01  0.73406369442E+01  0.00000000000E+00 0.  1.
</event>
<event>
 7    1  0.2900470E-011  0.5052884E+02  0.7816164E-02  0.1300439E+00
        -11   -1    0    0    0    0  0.00000000000E+00  0.00000000000E+00  0.45593999997E+02  0.45594000000E+02  0.51100000000E-03 0.  1.
         11   -1    0    0    0    0 -0.00000000000E+00 -0.00000000000E+00 -0.45593999997E+02  0.45594000000E+02  0.51100000000E-03 0. -1.
    9900012    2    1    2    0    0 -0.28774850990E+02  0.27377491732E+02  0.86975922752E+01  0.50528840953E+02  0.29999942561E+02 0.  0.
         12    1    1    2    0    0  0.28774850990E+02 -0.27377491732E+02 -0.86975922752E+01  0.40659159047E+02  0.00000000000E+00 0. -1.
         11    1    3    3    0    0  0.12821579958E+01 -0.41528268301E+01  0.22345444346E+01  0.48870327294E+01  0.51100000000E-03 0. -1.
        -11    1    3    3    0    0 -0.25062292726E+02  0.26714794280E+02  0.98347931378E+01  0.37927851329E+02  0.51100000000E-03 0.  1.
        -12    1    3    3    0    0 -0.49947162597E+01  0.48155242822E+01 -0.33717452972E+01  0.77139568949E+01  0.00000000000E+00 0.  1.
</event>
<event>
 7    1  0.2900470E-011  0.5052887E+02  0.7816164E-02  0.1300439E+00
        -11   -1    0    0    0    0  0.00000000000E+00  0.00000000000E+00  0.45593999997E+02  0.45594000000E+02  0.51100000000E-03 0.  1.
         11   -1    0    0    0    0 -0.00000000000E+00 -0.00000000000E+00 -0.45593999997E+02  0.45594000000E+02  0.51100000000E-03 0. -1.
    9900012    2    1    2    0    0 -0.12420050298E+02 -0.27048302519E+02  0.27700121090E+02  0.50528867853E+02  0.30000024324E+02 0.  0.
         12    1    1    2    0    0  0.12420050298E+02  0.27048302519E+02 -0.27700121090E+02  0.40659132147E+02  0.00000000000E+00 0. -1.
         11    1    3    3    0    0  0.34811050831E+01 -0.53410554506E+01  0.94905577320E+00  0.64455933046E+01  0.51100000000E-03 0. -1.
        -11    1    3    3    0    0 -0.20312959808E+02 -0.13279787738E+02  0.24114443764E+02  0.34212212686E+02  0.51100000000E-03 0.  1.
        -12    1    3    3    0    0  0.44118044275E+01 -0.84274593306E+01  0.26366215530E+01  0.98710618623E+01  0.00000000000E+00 0.  1.
</event>
<event>
 7    1  0.2900470E-011  0.5052887E+02  0.7816164E-02  0.1300439E+00
        -11   -1    0    0    0    0  0.00000000000E+00  0.00000000000E+00  0.45593999997E+02  0.45594000000E+02  0.51100000000E-03 0. -1.
         11   -1    0    0    0    0 -0.00000000000E+00 -0.00000000000E+00 -0.45593999997E+02  0.45594000000E+02  0.51100000000E-03 0.  1.
    9900012    2    1    2    0    0  0.39023359379E+02 -0.81422324593E+00  0.11387686798E+02  0.50528868832E+02  0.30000027301E+02 0.  0.
         12    1    1    2    0    0 -0.39023359379E+02  0.81422324593E+00 -0.11387686798E+02  0.40659131168E+02  0.00000000000E+00 0. -1.
         11    1    3    3    0    0  0.15113216536E+02  0.42490006016E+01  0.69393405127E+01  0.17164433203E+02  0.51100000000E-03 0. -1.
        -11    1    3    3    0    0  0.11187872065E+02 -0.48493499532E+01 -0.87678095208E+01  0.15018627113E+02  0.51100000000E-03 0.  1.
        -12    1    3    3    0    0  0.12722270778E+02 -0.21387389426E+00  0.13216155806E+02  0.18345808515E+02  0.00000000000E+00 0.  1.
</event>
<event>
 7    1  0.2900470E-011  0.5052887E+02  0.7816164E-02  0.1300439E+00
        -11   -1    0    0    0    0  0.00000000000E+00  0.00000000000E+00  0.45593999997E+02  0.45594000000E+02  0.51100000000E-03 0.  1.
         11   -1    0    0    0    0 -0.00000000000E+00 -0.00000000000E+00 -0.45593999997E+02  0.45594000000E+02  0.51100000000E-03 0. -1.
    9900012    2    1    2    0    0 -0.30861017996E+02  0.14059514916E+02  0.22429729800E+02  0.50528866090E+02  0.30000018967E+02 0.  0.
         12    1    1    2    0    0  0.30861017996E+02 -0.14059514916E+02 -0.22429729800E+02  0.40659133910E+02  0.00000000000E+00 0. -1.
         11    1    3    3    0    0  0.23135756979E+01 -0.38358406006E+01  0.41688510008E+01  0.61192830096E+01  0.51100000000E-03 0. -1.
        -11    1    3    3    0    0 -0.31966129775E+02  0.14051788588E+02  0.19746954996E+02  0.40115189731E+02  0.51100000000E-03 0.  1.
        -12    1    3    3    0    0 -0.12084639185E+01  0.38435669286E+01 -0.14860761960E+01  0.42943933491E+01  0.00000000000E+00 0.  1.
</event>
<event>
 7    1  0.2900470E-011  0.5052884E+02  0.7816164E-02  0.1300439E+00
        -11   -1    0    0    0    0  0.00000000000E+00  0.00000000000E+00  0.45593999997E+02  0.45594000000E+02  0.51100000000E-03 0. -1.
         11   -1    0    0    0    0 -0.00000000000E+00 -0.00000000000E+00 -0.45593999997E+02  0.45594000000E+02  0.51100000000E-03 0.  1.
    9900012    2    1    2    0    0 -0.16154325520E+02 -0.32728780828E+02 -0.17917360846E+02  0.50528841780E+02  0.29999945074E+02 0.  0.
         12    1    1    2    0    0  0.16154325520E+02  0.32728780828E+02  0.17917360846E+02  0.40659158220E+02  0.00000000000E+00 0. -1.
         11    1    3    3    0    0 -0.72089461751E+01 -0.31107095718E+02 -0.65918078053E+01  0.32604788595E+02  0.51100000000E-03 0.  1.
        -11    1    3    3    0    0 -0.20118758603E+01 -0.51832238376E+01 -0.23497708629E+01  0.60361309791E+01  0.51100000000E-03 0. -1.
         12    1    3    3    0    0 -0.69335034841E+01  0.35615387270E+01 -0.89757821775E+01  0.11887922206E+02  0.00000000000E+00 0. -1.
</event>
<event>
 7    1  0.2900470E-011  0.5052886E+02  0.7816164E-02  0.1300439E+00
        -11   -1    0    0    0    0  0.00000000000E+00  0.00000000000E+00  0.45593999997E+02  0.45594000000E+02  0.51100000000E-03 0.  1.
         11   -1    0    0    0    0 -0.00000000000E+00 -0.00000000000E+00 -0.45593999997E+02  0.45594000000E+02  0.51100000000E-03 0. -1.
    9900012    2    1    2    0    0 -0.36303268363E+02  0.17052402442E+02  0.66673617554E+01  0.50528862827E+02  0.30000009050E+02 0.  0.
         12    1    1    2    0    0  0.36303268363E+02 -0.17052402442E+02 -0.66673617554E+01  0.40659137173E+02  0.00000000000E+00 0. -1.
         11    1    3    3    0    0 -0.94375371402E+01  0.18030324137E+01 -0.87583347913E+01  0.13001017719E+02  0.51100000000E-03 0. -1.
        -11    1    3    3    0    0 -0.10439440161E+02  0.12494158706E+02  0.12703662037E+02  0.20651124474E+02  0.51100000000E-03 0.  1.
         12    1    3    3    0    0 -0.16426291062E+02  0.27552113221E+01  0.27220345095E+01  0.16876720634E+02  0.00000000000E+00 0. -1.
</event>
<event>
 7    1  0.2900470E-011  0.5052886E+02  0.7816164E-02  0.1300439E+00
        -11   -1    0    0    0    0  0.00000000000E+00  0.00000000000E+00  0.45593999997E+02  0.45594000000E+02  0.51100000000E-03 0.  1.
         11   -1    0    0    0    0 -0.00000000000E+00 -0.00000000000E+00 -0.45593999997E+02  0.45594000000E+02  0.51100000000E-03 0. -1.
    9900012    2    1    2    0    0 -0.13296088140E+02 -0.88908487657E+01  0.37380912510E+02  0.50528858695E+02  0.29999996490E+02 0.  0.
         12    1    1    2    0    0  0.13296088140E+02  0.88908487657E+01 -0.37380912510E+02  0.40659141305E+02  0.00000000000E+00 0. -1.
         11    1    3    3    0    0 -0.48128163691E+01  0.17501933171E+01  0.27926549257E+02  0.28392226608E+02  0.51100000000E-03 0. -1.
        -11    1    3    3    0    0  0.13990632290E+01 -0.51376678531E+01 -0.23209227158E+01  0.58085877286E+01  0.51100000000E-03 0.  1.
        -12    1    3    3    0    0 -0.98823349994E+01 -0.55033742297E+01  0.11775285968E+02  0.16328044359E+02  0.00000000000E+00 0.  1.
</event>
<event>
 7    1  0.2900470E-011  0.5052887E+02  0.7816164E-02  0.1300439E+00
        -11   -1    0    0    0    0  0.00000000000E+00  0.00000000000E+00  0.45593999997E+02  0.45594000000E+02  0.51100000000E-03 0. -1.
         11   -1    0    0    0    0 -0.00000000000E+00 -0.00000000000E+00 -0.45593999997E+02  0.45594000000E+02  0.51100000000E-03 0.  1.
    9900012    2    1    2    0    0  0.28235466224E+02 -0.26452820261E+02 -0.12496856967E+02  0.50528872037E+02  0.30000037043E+02 0.  0.
         12    1    1    2    0    0 -0.28235466224E+02  0.26452820261E+02  0.12496856967E+02  0.40659127963E+02  0.00000000000E+00 0. -1.
         11    1    3    3    0    0  0.15554103280E+01 -0.49167255992E+01  0.87537067193E+01  0.10159767394E+02  0.51100000000E-03 0. -1.
        -11    1    3    3    0    0  0.99083302330E+01 -0.80449131910E+01 -0.88047011887E+01  0.15505431292E+02  0.51100000000E-03 0.  1.
         12    1    3    3    0    0  0.16771725664E+02 -0.13491181471E+02 -0.12445862497E+02  0.24863673351E+02  0.00000000000E+00 0. -1.
</event>
<event>
 7    1  0.2900470E-011  0.5052886E+02  0.7816164E-02  0.1300439E+00
        -11   -1    0    0    0    0  0.00000000000E+00  0.00000000000E+00  0.45593999997E+02  0.45594000000E+02  0.51100000000E-03 0.  1.
         11   -1    0    0    0    0 -0.00000000000E+00 -0.00000000000E+00 -0.45593999997E+02  0.45594000000E+02  0.51100000000E-03 0. -1.
    9900012    2    1    2    0    0 -0.17002911400E+02  0.14892555024E+02  0.33797614870E+02  0.50528856353E+02  0.29999989371E+02 0.  0.
         12    1    1    2    0    0  0.17002911400E+02 -0.14892555024E+02 -0.33797614870E+02  0.40659143647E+02  0.00000000000E+00 0. -1.
         11    1    3    3    0    0 -0.84869123086E+01  0.10130535957E+02  0.78950909215E+00  0.13239288658E+02  0.51100000000E-03 0. -1.
        -11    1    3    3    0    0 -0.31258465784E+01 -0.47930842830E+01  0.68600336602E+01  0.89333440467E+01  0.51100000000E-03 0.  1.
         12    1    3    3    0    0 -0.53901525130E+01  0.95551033508E+01  0.26148072117E+02  0.28356223648E+02  0.00000000000E+00 0. -1.
</event>
<event>
 7    1  0.2900470E-011  0.5052886E+02  0.7816164E-02  0.1300439E+00
        -11   -1    0    0    0    0  0.00000000000E+00  0.00000000000E+00  0.45593999997E+02  0.45594000000E+02  0.51100000000E-03 0.  1.
         11   -1    0    0    0    0 -0.00000000000E+00 -0.00000000000E+00 -0.45593999997E+02  0.45594000000E+02  0.51100000000E-03 0. -1.
    9900012    2    1    2    0    0 -0.21593553264E+02  0.15215311454E+01  0.34417564147E+02  0.50528864232E+02  0.30000013318E+02 0.  0.
         12    1    1    2    0    0  0.21593553264E+02 -0.15215311454E+01 -0.34417564147E+02  0.40659135768E+02  0.00000000000E+00 0. -1.
         11    1    3    3    0    0 -0.16800998781E+02  0.72970429307E+01  0.51502220782E+01  0.19027484944E+02  0.51100000000E-03 0. -1.
        -11    1    3    3    0    0 -0.54677771407E+01 -0.12767126946E+01  0.81327173503E+01  0.98826956811E+01  0.51100000000E-03 0.  1.
         12    1    3    3    0    0  0.67522265702E+00 -0.44987990907E+01  0.21134624719E+02  0.21618683607E+02  0.00000000000E+00 0. -1.
</event>
<event>
 7    1  0.2900470E-011  0.5052887E+02  0.7816164E-02  0.1300439E+00
        -11   -1    0    0    0    0  0.00000000000E+00  0.00000000000E+00  0.45593999997E+02  0.45594000000E+02  0.51100000000E-03 0.  1.
         11   -1    0    0    0    0 -0.00000000000E+00 -0.00000000000E+00 -0.45593999997E+02  0.45594000000E+02  0.51100000000E-03 0. -1.
    9900012    2    1    2    0    0  0.17474131260E+02 -0.13969124989E+01  0.36686082056E+02  0.50528865178E+02  0.30000016196E+02 0.  0.
         12    1    1    2    0    0 -0.17474131260E+02  0.13969124989E+01 -0.36686082056E+02  0.40659134822E+02  0.00000000000E+00 0. -1.
         11    1    3    3    0    0  0.11531314547E+02 -0.11944078662E+02  0.65554050472E+01  0.17849525648E+02  0.51100000000E-03 0. -1.
        -11    1    3    3    0    0  0.18155588334E+01  0.18243816149E+01  0.10420679827E+02  0.10733833913E+02  0.51100000000E-03 0.  1.
         12    1    3    3    0    0  0.41272578796E+01  0.87227845481E+01  0.19709997182E+02  0.21945505617E+02  0.00000000000E+00 0. -1.
</event>
<event>
 7    1  0.2900470E-011  0.5052885E+02  0.7816164E-02  0.1300439E+00
        -11   -1    0    0    0    0  0.00000000000E+00  0.00000000000E+00  0.45593999997E+02  0.45594000000E+02  0.51100000000E-03 0. -1.
         11   -1    0    0    0    0 -0.00000000000E+00 -0.00000000000E+00 -0.45593999997E+02  0.45594000000E+02  0.51100000000E-03 0.  1.
    9900012    2    1    2    0    0 -0.10687143411E+02 -0.25707870075E+02 -0.29632022167E+02  0.50528851511E+02  0.29999974654E+02 0.  0.
         12    1    1    2    0    0  0.10687143411E+02  0.25707870075E+02  0.29632022167E+02  0.40659148489E+02  0.00000000000E+00 0. -1.
         11    1    3    3    0    0 -0.75411231540E+01  0.91377412262E+00 -0.11173208667E+02  0.13510888711E+02  0.51100000000E-03 0. -1.
        -11    1    3    3    0    0 -0.25669944214E+01 -0.26028628565E+02 -0.21505237433E+02  0.33860806290E+02  0.51100000000E-03 0.  1.
        -12    1    3    3    0    0 -0.57902583591E+00 -0.59301563299E+00  0.30464239322E+01  0.31571565109E+01  0.00000000000E+00 0.  1.
</event>
<event>
 7    1  0.2900470E-011  0.5052884E+02  0.7816164E-02  0.1300439E+00
        -11   -1    0    0    0    0  0.00000000000E+00  0.00000000000E+00  0.45593999997E+02  0.45594000000E+02  0.51100000000E-03 0.  1.
         11   -1    0    0    0    0 -0.00000000000E+00 -0.00000000000E+00 -0.45593999997E+02  0.45594000000E+02  0.51100000000E-03 0. -1.
    9900012    2    1    2    0    0  0.11894878678E+02 -0.29968375251E+02  0.24770463573E+02  0.50528837200E+02  0.29999931153E+02 0.  0.
         12    1    1    2    0    0 -0.11894878678E+02  0.29968375251E+02 -0.24770463573E+02  0.40659162800E+02  0.00000000000E+00 0. -1.
         11    1    3    3    0    0  0.25500632519E+01 -0.12488060165E+02  0.24729948494E+02  0.27821301588E+02  0.51100000000E-03 0. -1.
        -11    1    3    3    0    0  0.42759734783E+01 -0.16839626051E+02  0.13707815403E+01  0.17428023325E+02  0.51100000000E-03 0.  1.
         12    1    3    3    0    0  0.50688419477E+01 -0.64068903561E+00 -0.13302664612E+01  0.52795122871E+01  0.00000000000E+00 0. -1.
</event>
<event>
 7    1  0.2900470E-011  0.5052895E+02  0.7816164E-02  0.1300438E+00
        -11   -1    0    0    0    0  0.00000000000E+00  0.00000000000E+00  0.45593999997E+02  0.45594000000E+02  0.51100000000E-03 0.  1.
         11   -1    0    0    0    0 -0.00000000000E+00 -0.00000000000E+00 -0.45593999997E+02  0.45594000000E+02  0.51100000000E-03 0. -1.
    9900012    2    1    2    0    0  0.86151788596E+01  0.14027251944E+02  0.37177587332E+02  0.50528952991E+02  0.30000283111E+02 0.  0.
         12    1    1    2    0    0 -0.86151788596E+01 -0.14027251944E+02 -0.37177587332E+02  0.40659047009E+02  0.00000000000E+00 0. -1.
         11    1    3    3    0    0  0.10568658875E+02  0.31177730755E+01  0.28190255544E+02  0.30267268909E+02  0.51100000000E-03 0.  1.
        -11    1    3    3    0    0 -0.40563551691E+01 -0.18923005250E+01 -0.59546560671E-02  0.44760310828E+01  0.51100000000E-03 0. -1.
         12    1    3    3    0    0  0.21028751542E+01  0.12801779393E+02  0.89932864440E+01  0.15785652999E+02  0.00000000000E+00 0. -1.
</event>
<event>
 7    1  0.2900470E-011  0.5052886E+02  0.7816164E-02  0.1300439E+00
        -11   -1    0    0    0    0  0.00000000000E+00  0.00000000000E+00  0.45593999997E+02  0.45594000000E+02  0.51100000000E-03 0.  1.
         11   -1    0    0    0    0 -0.00000000000E+00 -0.00000000000E+00 -0.45593999997E+02  0.45594000000E+02  0.51100000000E-03 0. -1.
    9900012    2    1    2    0    0 -0.41503332270E+01  0.14413393395E+02  0.37791456316E+02  0.50528863935E+02  0.30000012418E+02 0.  0.
         12    1    1    2    0    0  0.41503332270E+01 -0.14413393395E+02 -0.37791456316E+02  0.40659136065E+02  0.00000000000E+00 0. -1.
         11    1    3    3    0    0 -0.11379063501E+01 -0.15428607388E+01 -0.34215595938E+01  0.39220301422E+01  0.51100000000E-03 0. -1.
        -11    1    3    3    0    0 -0.58349360698E+01  0.17560330955E+02  0.34459874107E+02  0.39113867438E+02  0.51100000000E-03 0.  1.
        -12    1    3    3    0    0  0.28225091930E+01 -0.16040768219E+01  0.67531418026E+01  0.74929663552E+01  0.00000000000E+00 0.  1.
</event>
<event>
 7    1  0.2900470E-011  0.5052886E+02  0.7816164E-02  0.1300439E+00
        -11   -1    0    0    0    0  0.00000000000E+00  0.00000000000E+00  0.45593999997E+02  0.45594000000E+02  0.51100000000E-03 0.  1.
         11   -1    0    0    0    0 -0.00000000000E+00 -0.00000000000E+00 -0.45593999997E+02  0.45594000000E+02  0.51100000000E-03 0. -1.
    9900012    2    1    2    0    0 -0.19771845666E+02 -0.25932110363E+02  0.24285093639E+02  0.50528855863E+02  0.29999987881E+02 0.  0.
         12    1    1    2    0    0  0.19771845666E+02  0.25932110363E+02 -0.24285093639E+02  0.40659144137E+02  0.00000000000E+00 0. -1.
         11    1    3    3    0    0 -0.17814044538E+02 -0.11675388668E+02  0.25706931556E+02  0.33384146142E+02  0.51100000000E-03 0. -1.
        -11    1    3    3    0    0 -0.54832848778E+01 -0.91047949377E+01  0.41761546156E+00  0.10636639829E+02  0.51100000000E-03 0.  1.
         12    1    3    3    0    0  0.35254837503E+01 -0.51519267574E+01 -0.18394533789E+01  0.65080698921E+01  0.00000000000E+00 0. -1.
</event>
<event>
 7    1  0.2900470E-011  0.5052886E+02  0.7816164E-02  0.1300439E+00
        -11   -1    0    0    0    0  0.00000000000E+00  0.00000000000E+00  0.45593999997E+02  0.45594000000E+02  0.51100000000E-03 0.  1.
         11   -1    0    0    0    0 -0.00000000000E+00 -0.00000000000E+00 -0.45593999997E+02  0.45594000000E+02  0.51100000000E-03 0. -1.
    9900012    2    1    2    0    0 -0.15077753555E+02  0.27432480644E+02  0.25947749115E+02  0.50528864117E+02  0.30000012971E+02 0.  0.
         12    1    1    2    0    0  0.15077753555E+02 -0.27432480644E+02 -0.25947749115E+02  0.40659135883E+02  0.00000000000E+00 0. -1.
         11    1    3    3    0    0 -0.24025321571E+01 -0.57191813019E+01  0.42350960453E+00  0.62177613476E+01  0.51100000000E-03 0. -1.
        -11    1    3    3    0    0 -0.63042492937E+01  0.19448468114E+02  0.10427241117E+02  0.22950246812E+02  0.51100000000E-03 0.  1.
        -12    1    3    3    0    0 -0.63709721043E+01  0.13703193832E+02  0.15096998393E+02  0.21360855958E+02  0.00000000000E+00 0.  1.
</event>
<event>
 7    1  0.2900470E-011  0.5052881E+02  0.7816164E-02  0.1300439E+00
        -11   -1    0    0    0    0  0.00000000000E+00  0.00000000000E+00  0.45593999997E+02  0.45594000000E+02  0.51100000000E-03 0.  1.
         11   -1    0    0    0    0 -0.00000000000E+00 -0.00000000000E+00 -0.45593999997E+02  0.45594000000E+02  0.51100000000E-03 0. -1.
    9900012    2    1    2    0    0  0.18441109447E+02 -0.19503001085E+02  0.30540597648E+02  0.50528810711E+02  0.29999850636E+02 0.  0.
         12    1    1    2    0    0 -0.18441109447E+02  0.19503001085E+02 -0.30540597648E+02  0.40659189289E+02  0.00000000000E+00 0. -1.
         11    1    3    3    0    0  0.16933228204E+01  0.53632800779E+01  0.79584233607E+01  0.97451843501E+01  0.51100000000E-03 0. -1.
        -11    1    3    3    0    0  0.14668877560E+02 -0.12955360800E+02  0.64152030882E+01  0.20595440594E+02  0.51100000000E-03 0.  1.
         12    1    3    3    0    0  0.20789090659E+01 -0.11910920363E+02  0.16166971199E+02  0.20188185767E+02  0.00000000000E+00 0. -1.
</event>
<event>
 7    1  0.2900470E-011  0.5052886E+02  0.7816164E-02  0.1300439E+00
        -11   -1    0    0    0    0  0.00000000000E+00  0.00000000000E+00  0.45593999997E+02  0.45594000000E+02  0.51100000000E-03 0.  1.
         11   -1    0    0    0    0 -0.00000000000E+00 -0.00000000000E+00 -0.45593999997E+02  0.45594000000E+02  0.51100000000E-03 0. -1.
    9900012    2    1    2    0    0  0.26477609376E+02 -0.24971854841E+02  0.18124797851E+02  0.50528860442E+02  0.30000001798E+02 0.  0.
         12    1    1    2    0    0 -0.26477609376E+02  0.24971854841E+02 -0.18124797851E+02  0.40659139558E+02  0.00000000000E+00 0. -1.
         11    1    3    3    0    0  0.13480782032E+02 -0.33912646042E+01  0.31439919166E+01  0.14251906723E+02  0.51100000000E-03 0. -1.
        -11    1    3    3    0    0  0.74467977982E+01 -0.23128144892E+02  0.50817525038E+01  0.24823176517E+02  0.51100000000E-03 0.  1.
        -12    1    3    3    0    0  0.55500295464E+01  0.15475546550E+01  0.98990534306E+01  0.11453777202E+02  0.00000000000E+00 0.  1.
</event>
<event>
 7    1  0.2900470E-011  0.5052886E+02  0.7816164E-02  0.1300439E+00
        -11   -1    0    0    0    0  0.00000000000E+00  0.00000000000E+00  0.45593999997E+02  0.45594000000E+02  0.51100000000E-03 0.  1.
         11   -1    0    0    0    0 -0.00000000000E+00 -0.00000000000E+00 -0.45593999997E+02  0.45594000000E+02  0.51100000000E-03 0. -1.
    9900012    2    1    2    0    0  0.34695745508E+02 -0.18602519404E+02  0.10164498401E+02  0.50528861885E+02  0.30000006185E+02 0.  0.
         12    1    1    2    0    0 -0.34695745508E+02  0.18602519404E+02 -0.10164498401E+02  0.40659138115E+02  0.00000000000E+00 0. -1.
         11    1    3    3    0    0  0.49898947880E+01 -0.74758953085E+01 -0.46551741598E+01  0.10122188863E+02  0.51100000000E-03 0. -1.
        -11    1    3    3    0    0  0.27526602996E+02 -0.13564490559E+01  0.10275332476E+02  0.29413199150E+02  0.51100000000E-03 0.  1.
        -12    1    3    3    0    0  0.21792477242E+01 -0.97701750400E+01  0.45443400848E+01  0.10993473871E+02  0.00000000000E+00 0.  1.
</event>
<event>
 7    1  0.2900470E-011  0.5052887E+02  0.7816164E-02  0.1300439E+00
        -11   -1    0    0    0    0  0.00000000000E+00  0.00000000000E+00  0.45593999997E+02  0.45594000000E+02  0.51100000000E-03 0. -1.
         11   -1    0    0    0    0 -0.00000000000E+00 -0.00000000000E+00 -0.45593999997E+02  0.45594000000E+02  0.51100000000E-03 0.  1.
    9900012    2    1    2    0    0  0.83591917974E+01 -0.38507089404E+02 -0.10024596984E+02  0.50528873515E+02  0.30000041536E+02 0.  0.
         12    1    1    2    0    0 -0.83591917974E+01  0.38507089404E+02  0.10024596984E+02  0.40659126485E+02  0.00000000000E+00 0. -1.
         11    1    3    3    0    0  0.26199579359E+01 -0.78627589267E+01  0.71019767435E+01  0.10914450579E+02  0.51100000000E-03 0. -1.
        -11    1    3    3    0    0  0.27379532604E+00 -0.30094182896E+02 -0.13203936334E+02  0.32864551465E+02  0.51100000000E-03 0.  1.
        -12    1    3    3    0    0  0.54654385354E+01 -0.55014758138E+00 -0.39226373933E+01  0.67498714702E+01  0.00000000000E+00 0.  1.
</event>
<event>
 7    1  0.2900470E-011  0.5052885E+02  0.7816164E-02  0.1300439E+00
        -11   -1    0    0    0    0  0.00000000000E+00  0.00000000000E+00  0.45593999997E+02  0.45594000000E+02  0.51100000000E-03 0.  1.
         11   -1    0    0    0    0 -0.00000000000E+00 -0.00000000000E+00 -0.45593999997E+02  0.45594000000E+02  0.51100000000E-03 0. -1.
    9900012    2    1    2    0    0  0.12245957995E+02  0.31197966549E+02  0.23019342444E+02  0.50528846903E+02  0.29999960646E+02 0.  0.
         12    1    1    2    0    0 -0.12245957995E+02 -0.31197966549E+02 -0.23019342444E+02  0.40659153097E+02  0.00000000000E+00 0. -1.
         11    1    3    3    0    0 -0.29083905965E+01 -0.32198011911E+01 -0.57845045612E+00  0.43772663574E+01  0.51100000000E-03 0. -1.
        -11    1    3    3    0    0  0.42269204374E+01  0.17036768445E+02  0.45213230214E+01  0.18126243338E+02  0.51100000000E-03 0.  1.
         12    1    3    3    0    0  0.10927428154E+02  0.17380999296E+02  0.19076469879E+02  0.28025337208E+02  0.00000000000E+00 0. -1.
</event>
<event>
 7    1  0.2900470E-011  0.5052886E+02  0.7816164E-02  0.1300439E+00
        -11   -1    0    0    0    0  0.00000000000E+00  0.00000000000E+00  0.45593999997E+02  0.45594000000E+02  0.51100000000E-03 0.  1.
         11   -1    0    0    0    0 -0.00000000000E+00 -0.00000000000E+00 -0.45593999997E+02  0.45594000000E+02  0.51100000000E-03 0. -1.
    9900012    2    1    2    0    0  0.32484019425E+02  0.15224287289E+02  0.19135716072E+02  0.50528855013E+02  0.29999985298E+02 0.  0.
         12    1    1    2    0    0 -0.32484019425E+02 -0.15224287289E+02 -0.19135716072E+02  0.40659144987E+02  0.00000000000E+00 0. -1.
         11    1    3    3    0    0  0.58814633734E+01 -0.53356770678E+01 -0.37908527311E+01  0.87995241846E+01  0.51100000000E-03 0.  1.
        -11    1    3    3    0    0  0.22729008937E+02  0.20009050853E+02  0.17296226714E+02  0.34873047216E+02  0.51100000000E-03 0. -1.
        -12    1    3    3    0    0  0.38735471143E+01  0.55091350322E+00  0.56303420895E+01  0.68562836128E+01  0.00000000000E+00 0.  1.
</event>
<event>
 7    1  0.2900470E-011  0.5052886E+02  0.7816164E-02  0.1300439E+00
        -11   -1    0    0    0    0  0.00000000000E+00  0.00000000000E+00  0.45593999997E+02  0.45594000000E+02  0.51100000000E-03 0. -1.
         11   -1    0    0    0    0 -0.00000000000E+00 -0.00000000000E+00 -0.45593999997E+02  0.45594000000E+02  0.51100000000E-03 0.  1.
    9900012    2    1    2    0    0  0.30148999647E+01  0.40523326821E+02  0.13913433417E+01  0.50528862346E+02  0.30000007587E+02 0.  0.
         12    1    1    2    0    0 -0.30148999647E+01 -0.40523326821E+02 -0.13913433417E+01  0.40659137654E+02  0.00000000000E+00 0. -1.
         11    1    3    3    0    0 -0.72476620385E+01  0.10394942160E+02  0.56534236314E+01  0.13876045062E+02  0.51100000000E-03 0. -1.
        -11    1    3    3    0    0  0.10481503262E+02  0.66042092336E+01 -0.43420533090E+01  0.13127487095E+02  0.51100000000E-03 0.  1.
         12    1    3    3    0    0 -0.21894125868E+00  0.23524175428E+02  0.79973019249E-01  0.23525330189E+02  0.00000000000E+00 0. -1.
</event>
<event>
 7    1  0.2900470E-011  0.5052887E+02  0.7816164E-02  0.1300439E+00
        -11   -1    0    0    0    0  0.00000000000E+00  0.00000000000E+00  0.45593999997E+02  0.45594000000E+02  0.51100000000E-03 0.  1.
         11   -1    0    0    0    0 -0.00000000000E+00 -0.00000000000E+00 -0.45593999997E+02  0.45594000000E+02  0.51100000000E-03 0. -1.
    9900012    2    1    2    0    0  0.38207553844E+02 -0.11021330481E+02 -0.84780849157E+01  0.50528870396E+02  0.30000032056E+02 0.  0.
         12    1    1    2    0    0 -0.38207553844E+02  0.11021330481E+02  0.84780849157E+01  0.40659129604E+02  0.00000000000E+00 0. -1.
         11    1    3    3    0    0  0.33300193736E+02  0.12672612241E+01 -0.57638838520E+01  0.33819095363E+02  0.51100000000E-03 0. -1.
        -11    1    3    3    0    0 -0.13570808575E+01 -0.20427009948E+01  0.26028018061E+01  0.35761534238E+01  0.51100000000E-03 0.  1.
         12    1    3    3    0    0  0.62644409654E+01 -0.10245890710E+02 -0.53170028698E+01  0.13133621609E+02  0.00000000000E+00 0. -1.
</event>
<event>
 7    1  0.2900470E-011  0.5052895E+02  0.7816164E-02  0.1300438E+00
        -11   -1    0    0    0    0  0.00000000000E+00  0.00000000000E+00  0.45593999997E+02  0.45594000000E+02  0.51100000000E-03 0.  1.
         11   -1    0    0    0    0 -0.00000000000E+00 -0.00000000000E+00 -0.45593999997E+02  0.45594000000E+02  0.51100000000E-03 0. -1.
    9900012    2    1    2    0    0  0.35424260675E+02  0.12743156442E+02  0.15358773056E+02  0.50528951927E+02  0.30000279875E+02 0.  0.
         12    1    1    2    0    0 -0.35424260675E+02 -0.12743156442E+02 -0.15358773056E+02  0.40659048073E+02  0.00000000000E+00 0. -1.
         11    1    3    3    0    0  0.30007917196E+01 -0.20963590784E+01 -0.37310951037E+01  0.52269057065E+01  0.51100000000E-03 0. -1.
        -11    1    3    3    0    0  0.31538403767E+02  0.14714810081E+02  0.10058625629E+02  0.36226682124E+02  0.51100000000E-03 0.  1.
        -12    1    3    3    0    0  0.88506518850E+00  0.12470543849E+00  0.90312425310E+01  0.90753640967E+01  0.00000000000E+00 0.  1.
</event>
<event>
 7    1  0.2900470E-011  0.5052887E+02  0.7816164E-02  0.1300439E+00
        -11   -1    0    0    0    0  0.00000000000E+00  0.00000000000E+00  0.45593999997E+02  0.45594000000E+02  0.51100000000E-03 0. -1.
         11   -1    0    0    0    0 -0.00000000000E+00 -0.00000000000E+00 -0.45593999997E+02  0.45594000000E+02  0.51100000000E-03 0.  1.
    9900012    2    1    2    0    0  0.58463592190E+01 -0.38125562024E+01 -0.40055582881E+02  0.50528865468E+02  0.30000017077E+02 0.  0.
         12    1    1    2    0    0 -0.58463592190E+01  0.38125562024E+01  0.40055582881E+02  0.40659134532E+02  0.00000000000E+00 0. -1.
         11    1    3    3    0    0  0.71249424373E+01 -0.26775590567E+01  0.57586410575E+00  0.76332003096E+01  0.51100000000E-03 0. -1.
        -11    1    3    3    0    0 -0.18442830155E+01  0.42602749866E+01 -0.34057396063E+02  0.34372336983E+02  0.51100000000E-03 0.  1.
         12    1    3    3    0    0  0.56569979722E+00 -0.53952721323E+01 -0.65740509243E+01  0.85233281761E+01  0.00000000000E+00 0. -1.
</event>
<event>
 7    1  0.2900470E-011  0.5052878E+02  0.7816164E-02  0.1300439E+00
        -11   -1    0    0    0    0  0.00000000000E+00  0.00000000000E+00  0.45593999997E+02  0.45594000000E+02  0.51100000000E-03 0. -1.
         11   -1    0    0    0    0 -0.00000000000E+00 -0.00000000000E+00 -0.45593999997E+02  0.45594000000E+02  0.51100000000E-03 0.  1.
    9900012    2    1    2    0    0  0.31590441693E+02  0.75818388509E+01 -0.24448549065E+02  0.50528784094E+02  0.29999769730E+02 0.  0.
         12    1    1    2    0    0 -0.31590441693E+02 -0.75818388509E+01  0.24448549065E+02  0.40659215906E+02  0.00000000000E+00 0. -1.
         11    1    3    3    0    0  0.37360193675E+01  0.84178287286E+01 -0.56485140248E+01  0.10803860059E+02  0.51100000000E-03 0. -1.
        -11    1    3    3    0    0  0.17221340280E+02 -0.10789695022E+02 -0.94072483838E+01  0.22393936727E+02  0.51100000000E-03 0.  1.
        -12    1    3    3    0    0  0.10633082046E+02  0.99537051447E+01 -0.93927866560E+01  0.17330987308E+02  0.00000000000E+00 0.  1.
</event>
<event>
 7    1  0.2900470E-011  0.5052886E+02  0.7816164E-02  0.1300439E+00
        -11   -1    0    0    0    0  0.00000000000E+00  0.00000000000E+00  0.45593999997E+02  0.45594000000E+02  0.51100000000E-03 0.  1.
         11   -1    0    0    0    0 -0.00000000000E+00 -0.00000000000E+00 -0.45593999997E+02  0.45594000000E+02  0.51100000000E-03 0. -1.
    9900012    2    1    2    0    0 -0.14146565094E+02  0.38084873733E+02  0.16070592634E+01  0.50528861412E+02  0.30000004748E+02 0.  0.
         12    1    1    2    0    0  0.14146565094E+02 -0.38084873733E+02 -0.16070592634E+01  0.40659138588E+02  0.00000000000E+00 0. -1.
         11    1    3    3    0    0  0.16431691287E+01  0.89483896904E+01 -0.40162653160E+01  0.99450525482E+01  0.51100000000E-03 0. -1.
        -11    1    3    3    0    0 -0.15800770996E+02  0.71487617823E+01 -0.16581177364E+01  0.17421782739E+02  0.51100000000E-03 0.  1.
        -12    1    3    3    0    0  0.11036773811E-01  0.21987722261E+02  0.72814423158E+01  0.23162026125E+02  0.00000000000E+00 0.  1.
</event>
<event>
 7    1  0.2900470E-011  0.5052885E+02  0.7816164E-02  0.1300439E+00
        -11   -1    0    0    0    0  0.00000000000E+00  0.00000000000E+00  0.45593999997E+02  0.45594000000E+02  0.51100000000E-03 0.  1.
         11   -1    0    0    0    0 -0.00000000000E+00 -0.00000000000E+00 -0.45593999997E+02  0.45594000000E+02  0.51100000000E-03 0. -1.
    9900012    2    1    2    0    0 -0.11190733155E+02 -0.17387310435E+02  0.35008796073E+02  0.50528845124E+02  0.29999955240E+02 0.  0.
         12    1    1    2    0    0  0.11190733155E+02  0.17387310435E+02 -0.35008796073E+02  0.40659154876E+02  0.00000000000E+00 0. -1.
         11    1    3    3    0    0  0.36337793569E+01 -0.88937831025E+01  0.48613489655E+00  0.96197743054E+01  0.51100000000E-03 0. -1.
        -11    1    3    3    0    0 -0.14076115104E+02 -0.75848207044E+00  0.23896970182E+02  0.27744864311E+02  0.51100000000E-03 0.  1.
        -12    1    3    3    0    0 -0.74839740842E+00 -0.77350452616E+01  0.10625690995E+02  0.13164206508E+02  0.00000000000E+00 0.  1.
</event>
<event>
 7    1  0.2900470E-011  0.5052886E+02  0.7816164E-02  0.1300439E+00
        -11   -1    0    0    0    0  0.00000000000E+00  0.00000000000E+00  0.45593999997E+02  0.45594000000E+02  0.51100000000E-03 0. -1.
         11   -1    0    0    0    0 -0.00000000000E+00 -0.00000000000E+00 -0.45593999997E+02  0.45594000000E+02  0.51100000000E-03 0.  1.
    9900012    2    1    2    0    0  0.29342012212E+02  0.23023463857E+02  0.16190485301E+02  0.50528863475E+02  0.30000011020E+02 0.  0.
         12    1    1    2    0    0 -0.29342012212E+02 -0.23023463857E+02 -0.16190485301E+02  0.40659136525E+02  0.00000000000E+00 0. -1.
         11    1    3    3    0    0  0.15341544723E+02 -0.28685215384E+00 -0.41914198545E+01  0.15906391146E+02  0.51100000000E-03 0. -1.
        -11    1    3    3    0    0  0.61965578401E+01  0.71495163446E+01  0.38246101471E+01  0.10204928028E+02  0.51100000000E-03 0.  1.
         12    1    3    3    0    0  0.78039096491E+01  0.16160799666E+02  0.16557295009E+02  0.24417544301E+02  0.00000000000E+00 0. -1.
</event>
<event>
 7    1  0.2900470E-011  0.5052886E+02  0.7816164E-02  0.1300439E+00
        -11   -1    0    0    0    0  0.00000000000E+00  0.00000000000E+00  0.45593999997E+02  0.45594000000E+02  0.51100000000E-03 0.  1.
         11   -1    0    0    0    0 -0.00000000000E+00 -0.00000000000E+00 -0.45593999997E+02  0.45594000000E+02  0.51100000000E-03 0. -1.
    9900012    2    1    2    0    0 -0.23041867215E+02 -0.21599874249E+02  0.25606320112E+02  0.50528857830E+02  0.29999993859E+02 0.  0.
         12    1    1    2    0    0  0.23041867215E+02  0.21599874249E+02 -0.25606320112E+02  0.40659142170E+02  0.00000000000E+00 0. -1.
         11    1    3    3    0    0  0.34942773529E+01 -0.57973149960E+01  0.65699349197E+00  0.68007702572E+01  0.51100000000E-03 0. -1.
        -11    1    3    3    0    0 -0.18156458161E+02 -0.12053424476E+02  0.26613863032E+02  0.34398251704E+02  0.51100000000E-03 0.  1.
        -12    1    3    3    0    0 -0.83796864078E+01 -0.37491347773E+01 -0.16645364117E+01  0.93298358688E+01  0.00000000000E+00 0.  1.
</event>
<event>
 7    1  0.2900470E-011  0.5052886E+02  0.7816164E-02  0.1300439E+00
        -11   -1    0    0    0    0  0.00000000000E+00  0.00000000000E+00  0.45593999997E+02  0.45594000000E+02  0.51100000000E-03 0.  1.
         11   -1    0    0    0    0 -0.00000000000E+00 -0.00000000000E+00 -0.45593999997E+02  0.45594000000E+02  0.51100000000E-03 0. -1.
    9900012    2    1    2    0    0 -0.38821903603E+02 -0.12066516050E+02  0.65195219188E+00  0.50528855265E+02  0.29999986064E+02 0.  0.
         12    1    1    2    0    0  0.38821903603E+02  0.12066516050E+02 -0.65195219188E+00  0.40659144735E+02  0.00000000000E+00 0. -1.
         11    1    3    3    0    0 -0.89691412953E+01 -0.29644286539E+01 -0.63646429665E+01  0.11390435162E+02  0.51100000000E-03 0. -1.
        -11    1    3    3    0    0 -0.91766766718E+01  0.42690538186E+01  0.10129730138E+02  0.14319484913E+02  0.51100000000E-03 0.  1.
        -12    1    3    3    0    0 -0.20676085635E+02 -0.13371141215E+02 -0.31131349793E+01  0.24818935191E+02  0.00000000000E+00 0.  1.
</event>
<event>
 7    1  0.2900470E-011  0.5052887E+02  0.7816164E-02  0.1300439E+00
        -11   -1    0    0    0    0  0.00000000000E+00  0.00000000000E+00  0.45593999997E+02  0.45594000000E+02  0.51100000000E-03 0.  1.
         11   -1    0    0    0    0 -0.00000000000E+00 -0.00000000000E+00 -0.45593999997E+02  0.45594000000E+02  0.51100000000E-03 0. -1.
    9900012    2    1    2    0    0 -0.22746135000E+02  0.19310669227E+02  0.27620216808E+02  0.50528868431E+02  0.30000026083E+02 0.  0.
         12    1    1    2    0    0  0.22746135000E+02 -0.19310669227E+02 -0.27620216808E+02  0.40659131569E+02  0.00000000000E+00 0. -1.
         11    1    3    3    0    0 -0.22438835168E+01  0.94487170665E+01 -0.16027405678E+01  0.98428677238E+01  0.51100000000E-03 0. -1.
        -11    1    3    3    0    0 -0.15629614266E+02  0.13537273898E+02  0.27380086713E+02  0.34310519893E+02  0.51100000000E-03 0.  1.
        -12    1    3    3    0    0 -0.48726372176E+01 -0.36753217374E+01  0.18428706627E+01  0.63754808138E+01  0.00000000000E+00 0.  1.
</event>
<event>
 7    1  0.2900470E-011  0.5052886E+02  0.7816164E-02  0.1300439E+00
        -11   -1    0    0    0    0  0.00000000000E+00  0.00000000000E+00  0.45593999997E+02  0.45594000000E+02  0.51100000000E-03 0.  1.
         11   -1    0    0    0    0 -0.00000000000E+00 -0.00000000000E+00 -0.45593999997E+02  0.45594000000E+02  0.51100000000E-03 0. -1.
    9900012    2    1    2    0    0 -0.95206042381E+01  0.19009344353E+02  0.34657876598E+02  0.50528862183E+02  0.30000007090E+02 0.  0.
         12    1    1    2    0    0  0.95206042381E+01 -0.19009344353E+02 -0.34657876598E+02  0.40659137817E+02  0.00000000000E+00 0. -1.
         11    1    3    3    0    0  0.30527148952E+01  0.96319837498E+01  0.27324218490E+02  0.29132577908E+02  0.51100000000E-03 0. -1.
        -11    1    3    3    0    0 -0.70819037643E+01 -0.95753502198E+00  0.65052391272E+01  0.96637658606E+01  0.51100000000E-03 0.  1.
         12    1    3    3    0    0 -0.54914153689E+01  0.10334895625E+02  0.82841898044E+00  0.11732518415E+02  0.00000000000E+00 0. -1.
</event>
<event>
 7    1  0.2900470E-011  0.5052881E+02  0.7816164E-02  0.1300439E+00
        -11   -1    0    0    0    0  0.00000000000E+00  0.00000000000E+00  0.45593999997E+02  0.45594000000E+02  0.51100000000E-03 0.  1.
         11   -1    0    0    0    0 -0.00000000000E+00 -0.00000000000E+00 -0.45593999997E+02  0.45594000000E+02  0.51100000000E-03 0. -1.
    9900012    2    1    2    0    0 -0.22925777105E+02  0.77879338084E+01  0.32663842527E+02  0.50528809434E+02  0.29999846755E+02 0.  0.
         12    1    1    2    0    0  0.22925777105E+02 -0.77879338084E+01 -0.32663842527E+02  0.40659190566E+02  0.00000000000E+00 0. -1.
         11    1    3    3    0    0 -0.91694392747E+00  0.64690320816E+00 -0.32171272085E+01  0.34072243342E+01  0.51100000000E-03 0. -1.
        -11    1    3    3    0    0 -0.18303280858E+02 -0.40589723145E+01  0.21997331239E+02  0.28902732195E+02  0.51100000000E-03 0.  1.
        -12    1    3    3    0    0 -0.37055523199E+01  0.11200002915E+02  0.13883638496E+02  0.18218852905E+02  0.00000000000E+00 0.  1.
</event>
<event>
 7    1  0.2900470E-011  0.5052886E+02  0.7816164E-02  0.1300439E+00
        -11   -1    0    0    0    0  0.00000000000E+00  0.00000000000E+00  0.45593999997E+02  0.45594000000E+02  0.51100000000E-03 0.  1.
         11   -1    0    0    0    0 -0.00000000000E+00 -0.00000000000E+00 -0.45593999997E+02  0.45594000000E+02  0.51100000000E-03 0. -1.
    9900012    2    1    2    0    0  0.36696970133E+02  0.14049778091E+02  0.10445178089E+02  0.50528860478E+02  0.30000001909E+02 0.  0.
         12    1    1    2    0    0 -0.36696970133E+02 -0.14049778091E+02 -0.10445178089E+02  0.40659139522E+02  0.00000000000E+00 0. -1.
         11    1    3    3    0    0  0.13659000136E+01  0.72307478086E+01  0.84676818013E+01  0.11218334639E+02  0.51100000000E-03 0.  1.
        -11    1    3    3    0    0  0.32846633377E+02  0.53538406823E+01  0.65363097663E+01  0.33915900104E+02  0.51100000000E-03 0. -1.
         12    1    3    3    0    0  0.24844367427E+01  0.14651895998E+01 -0.45588134784E+01  0.53946257352E+01  0.00000000000E+00 0. -1.
</event>
<event>
 7    1  0.2900470E-011  0.5052886E+02  0.7816164E-02  0.1300439E+00
        -11   -1    0    0    0    0  0.00000000000E+00  0.00000000000E+00  0.45593999997E+02  0.45594000000E+02  0.51100000000E-03 0.  1.
         11   -1    0    0    0    0 -0.00000000000E+00 -0.00000000000E+00 -0.45593999997E+02  0.45594000000E+02  0.51100000000E-03 0. -1.
    9900012    2    1    2    0    0 -0.39989827453E+02  0.17217795902E+01  0.71424723644E+01  0.50528859132E+02  0.29999997818E+02 0.  0.
         12    1    1    2    0    0  0.39989827453E+02 -0.17217795902E+01 -0.71424723644E+01  0.40659140868E+02  0.00000000000E+00 0. -1.
         11    1    3    3    0    0 -0.10064572632E+02 -0.50981584138E+01 -0.72556286314E+01  0.13413835714E+02  0.51100000000E-03 0. -1.
        -11    1    3    3    0    0 -0.15873415207E+02  0.11094518334E+02  0.64337509811E+01  0.20407028185E+02  0.51100000000E-03 0.  1.
         12    1    3    3    0    0 -0.14051839614E+02 -0.42745803302E+01  0.79643500147E+01  0.16707995233E+02  0.00000000000E+00 0. -1.
</event>
<event>
 7    1  0.2900470E-011  0.5052886E+02  0.7816164E-02  0.1300439E+00
        -11   -1    0    0    0    0  0.00000000000E+00  0.00000000000E+00  0.45593999997E+02  0.45594000000E+02  0.51100000000E-03 0. -1.
         11   -1    0    0    0    0 -0.00000000000E+00 -0.00000000000E+00 -0.45593999997E+02  0.45594000000E+02  0.51100000000E-03 0.  1.
    9900012    2    1    2    0    0  0.39867170626E+02  0.75584794966E+01  0.25775800072E+01  0.50528858043E+02  0.29999994507E+02 0.  0.
         12    1    1    2    0    0 -0.39867170626E+02 -0.75584794966E+01 -0.25775800072E+01  0.40659141957E+02  0.00000000000E+00 0. -1.
         11    1    3    3    0    0 -0.20822689745E+00  0.71167406447E+01 -0.48180325492E+01  0.85967897352E+01  0.51100000000E-03 0. -1.
        -11    1    3    3    0    0  0.17564404754E+02 -0.24765613239E+01 -0.90860693400E+00  0.17761397389E+02  0.51100000000E-03 0.  1.
         12    1    3    3    0    0  0.22510992769E+02  0.29183001758E+01  0.83042194903E+01  0.24170670919E+02  0.00000000000E+00 0. -1.
</event>
<event>
 7    1  0.2900470E-011  0.5052886E+02  0.7816164E-02  0.1300439E+00
        -11   -1    0    0    0    0  0.00000000000E+00  0.00000000000E+00  0.45593999997E+02  0.45594000000E+02  0.51100000000E-03 0.  1.
         11   -1    0    0    0    0 -0.00000000000E+00 -0.00000000000E+00 -0.45593999997E+02  0.45594000000E+02  0.51100000000E-03 0. -1.
    9900012    2    1    2    0    0 -0.80345586372E+01 -0.33553576724E+02  0.21512071672E+02  0.50528857473E+02  0.29999992774E+02 0.  0.
         12    1    1    2    0    0  0.80345586372E+01  0.33553576724E+02 -0.21512071672E+02  0.40659142527E+02  0.00000000000E+00 0. -1.
         11    1    3    3    0    0 -0.35982054325E+01  0.38471988822E+01 -0.51343444826E+00  0.52926020791E+01  0.51100000000E-03 0. -1.
        -11    1    3    3    0    0 -0.56742442527E+01 -0.34237579442E+02  0.23081265797E+02  0.41679176155E+02  0.51100000000E-03 0.  1.
        -12    1    3    3    0    0  0.12378910480E+01 -0.31631961638E+01 -0.10557596767E+01  0.35570792390E+01  0.00000000000E+00 0.  1.
</event>
<event>
 7    1  0.2900470E-011  0.5052886E+02  0.7816164E-02  0.1300439E+00
        -11   -1    0    0    0    0  0.00000000000E+00  0.00000000000E+00  0.45593999997E+02  0.45594000000E+02  0.51100000000E-03 0.  1.
         11   -1    0    0    0    0 -0.00000000000E+00 -0.00000000000E+00 -0.45593999997E+02  0.45594000000E+02  0.51100000000E-03 0. -1.
    9900012    2    1    2    0    0 -0.78023242619E+01 -0.30084816711E+02  0.26214372446E+02  0.50528858554E+02  0.29999996061E+02 0.  0.
         12    1    1    2    0    0  0.78023242619E+01  0.30084816711E+02 -0.26214372446E+02  0.40659141446E+02  0.00000000000E+00 0. -1.
         11    1    3    3    0    0  0.27546549701E+01  0.28345084908E+01 -0.12138872490E+01  0.41347412135E+01  0.51100000000E-03 0. -1.
        -11    1    3    3    0    0  0.17666697942E+00 -0.11864663176E+02  0.16584301803E+02  0.20392167861E+02  0.51100000000E-03 0.  1.
         12    1    3    3    0    0 -0.10733646211E+02 -0.21054662025E+02  0.10843957892E+02  0.26001949480E+02  0.00000000000E+00 0. -1.
</event>
<event>
 7    1  0.2900470E-011  0.5052886E+02  0.7816164E-02  0.1300439E+00
        -11   -1    0    0    0    0  0.00000000000E+00  0.00000000000E+00  0.45593999997E+02  0.45594000000E+02  0.51100000000E-03 0.  1.
         11   -1    0    0    0    0 -0.00000000000E+00 -0.00000000000E+00 -0.45593999997E+02  0.45594000000E+02  0.51100000000E-03 0. -1.
    9900012    2    1    2    0    0 -0.31688779717E+02 -0.73691231741E+01  0.24386117133E+02  0.50528862711E+02  0.30000008695E+02 0.  0.
         12    1    1    2    0    0  0.31688779717E+02  0.73691231741E+01 -0.24386117133E+02  0.40659137289E+02  0.00000000000E+00 0. -1.
         11    1    3    3    0    0 -0.69257807959E+01 -0.15415917571E+01 -0.34230435623E+01  0.78778278903E+01  0.51100000000E-03 0. -1.
        -11    1    3    3    0    0 -0.27940638289E+02 -0.30297688986E+01  0.24188091240E+02  0.37079947758E+02  0.51100000000E-03 0.  1.
        -12    1    3    3    0    0  0.31776393683E+01 -0.27977625184E+01  0.36210694548E+01  0.55710870628E+01  0.00000000000E+00 0.  1.
</event>
<event>
 7    1  0.2900470E-011  0.5052886E+02  0.7816164E-02  0.1300439E+00
        -11   -1    0    0    0    0  0.00000000000E+00  0.00000000000E+00  0.45593999997E+02  0.45594000000E+02  0.51100000000E-03 0. -1.
         11   -1    0    0    0    0 -0.00000000000E+00 -0.00000000000E+00 -0.45593999997E+02  0.45594000000E+02  0.51100000000E-03 0.  1.
    9900012    2    1    2    0    0 -0.25531259497E+02 -0.13186581626E+01 -0.31616159586E+02  0.50528860587E+02  0.30000002240E+02 0.  0.
         12    1    1    2    0    0  0.25531259497E+02  0.13186581626E+01  0.31616159586E+02  0.40659139413E+02  0.00000000000E+00 0. -1.
         11    1    3    3    0    0 -0.19090627224E+02  0.11745903615E+02 -0.12647193655E+02  0.25736546139E+02  0.51100000000E-03 0.  1.
        -11    1    3    3    0    0 -0.11069991529E+01 -0.93079832547E+01 -0.12280880367E+02  0.15449402003E+02  0.51100000000E-03 0. -1.
        -12    1    3    3    0    0 -0.53336331199E+01 -0.37565785227E+01 -0.66880855638E+01  0.93429124455E+01  0.00000000000E+00 0.  1.
</event>
<event>
 7    1  0.2900470E-011  0.5052886E+02  0.7816164E-02  0.1300439E+00
        -11   -1    0    0    0    0  0.00000000000E+00  0.00000000000E+00  0.45593999997E+02  0.45594000000E+02  0.51100000000E-03 0.  1.
         11   -1    0    0    0    0 -0.00000000000E+00 -0.00000000000E+00 -0.45593999997E+02  0.45594000000E+02  0.51100000000E-03 0. -1.
    9900012    2    1    2    0    0 -0.93914079286E+01  0.38099253088E+02  0.10649585061E+02  0.50528864609E+02  0.30000014466E+02 0.  0.
         12    1    1    2    0    0  0.93914079286E+01 -0.38099253088E+02 -0.10649585061E+02  0.40659135391E+02  0.00000000000E+00 0. -1.
         11    1    3    3    0    0  0.30116377186E+01  0.78551928296E+01 -0.80736085855E+01  0.11660067409E+02  0.51100000000E-03 0. -1.
        -11    1    3    3    0    0 -0.66241019420E+01  0.16473731977E+02  0.15548613301E+02  0.23601312413E+02  0.51100000000E-03 0.  1.
         12    1    3    3    0    0 -0.57789437052E+01  0.13770328282E+02  0.31745803455E+01  0.15267484786E+02  0.00000000000E+00 0. -1.
</event>
<event>
 7    1  0.2900470E-011  0.5052885E+02  0.7816164E-02  0.1300439E+00
        -11   -1    0    0    0    0  0.00000000000E+00  0.00000000000E+00  0.45593999997E+02  0.45594000000E+02  0.51100000000E-03 0.  1.
         11   -1    0    0    0    0 -0.00000000000E+00 -0.00000000000E+00 -0.45593999997E+02  0.45594000000E+02  0.51100000000E-03 0. -1.
    9900012    2    1    2    0    0 -0.36091365321E+02 -0.73241824436E+01  0.17231841060E+02  0.50528847949E+02  0.29999963827E+02 0.  0.
         12    1    1    2    0    0  0.36091365321E+02  0.73241824436E+01 -0.17231841060E+02  0.40659152051E+02  0.00000000000E+00 0. -1.
         11    1    3    3    0    0 -0.11154746084E+02  0.30976718855E+01 -0.61658287042E+01  0.13116454367E+02  0.51100000000E-03 0. -1.
        -11    1    3    3    0    0 -0.13992865785E+02 -0.23844751849E+01  0.17696476727E+02  0.22685927435E+02  0.51100000000E-03 0.  1.
        -12    1    3    3    0    0 -0.10943753452E+02 -0.80373791443E+01  0.57011930370E+01  0.14726466147E+02  0.00000000000E+00 0.  1.
</event>
<event>
 7    1  0.2900470E-011  0.5052886E+02  0.7816164E-02  0.1300439E+00
        -11   -1    0    0    0    0  0.00000000000E+00  0.00000000000E+00  0.45593999997E+02  0.45594000000E+02  0.51100000000E-03 0.  1.
         11   -1    0    0    0    0 -0.00000000000E+00 -0.00000000000E+00 -0.45593999997E+02  0.45594000000E+02  0.51100000000E-03 0. -1.
    9900012    2    1    2    0    0 -0.14812824813E+02 -0.27113123795E+02  0.26431502112E+02  0.50528861240E+02  0.30000004225E+02 0.  0.
         12    1    1    2    0    0  0.14812824813E+02  0.27113123795E+02 -0.26431502112E+02  0.40659138760E+02  0.00000000000E+00 0. -1.
         11    1    3    3    0    0 -0.15476472499E+02 -0.89974905125E+01  0.17037600437E+02  0.24713475382E+02  0.51100000000E-03 0.  1.
        -11    1    3    3    0    0  0.44750355135E+01 -0.19136764112E+02  0.58330285320E+01  0.20500387939E+02  0.51100000000E-03 0. -1.
         12    1    3    3    0    0 -0.38113878276E+01  0.10211308300E+01  0.35608731428E+01  0.53149979194E+01  0.00000000000E+00 0. -1.
</event>
<event>
 7    1  0.2900470E-011  0.5052886E+02  0.7816164E-02  0.1300439E+00
        -11   -1    0    0    0    0  0.00000000000E+00  0.00000000000E+00  0.45593999997E+02  0.45594000000E+02  0.51100000000E-03 0. -1.
         11   -1    0    0    0    0 -0.00000000000E+00 -0.00000000000E+00 -0.45593999997E+02  0.45594000000E+02  0.51100000000E-03 0.  1.
    9900012    2    1    2    0    0 -0.14894636820E+02 -0.14605589488E+02 -0.34899747595E+02  0.50528857947E+02  0.29999994216E+02 0.  0.
         12    1    1    2    0    0  0.14894636820E+02  0.14605589488E+02  0.34899747595E+02  0.40659142053E+02  0.00000000000E+00 0. -1.
         11    1    3    3    0    0 -0.89147191299E-01 -0.50576974602E+01  0.15798188159E+01  0.52994413454E+01  0.51100000000E-03 0. -1.
        -11    1    3    3    0    0 -0.16191876261E+02 -0.21995350146E+01 -0.13930197807E+02  0.21472429354E+02  0.51100000000E-03 0.  1.
        -12    1    3    3    0    0  0.13863866326E+01 -0.73483570136E+01 -0.22549368604E+02  0.23756987248E+02  0.00000000000E+00 0.  1.
</event>
<event>
 7    1  0.2900470E-011  0.5052886E+02  0.7816164E-02  0.1300439E+00
        -11   -1    0    0    0    0  0.00000000000E+00  0.00000000000E+00  0.45593999997E+02  0.45594000000E+02  0.51100000000E-03 0. -1.
         11   -1    0    0    0    0 -0.00000000000E+00 -0.00000000000E+00 -0.45593999997E+02  0.45594000000E+02  0.51100000000E-03 0.  1.
    9900012    2    1    2    0    0  0.33569409924E+02 -0.21694368737E+01 -0.22837563252E+02  0.50528855465E+02  0.29999986672E+02 0.  0.
         12    1    1    2    0    0 -0.33569409924E+02  0.21694368737E+01  0.22837563252E+02  0.40659144535E+02  0.00000000000E+00 0. -1.
         11    1    3    3    0    0  0.10970070389E+01 -0.31536225926E+01 -0.34850398952E+00  0.33571141166E+01  0.51100000000E-03 0. -1.
        -11    1    3    3    0    0  0.24047741519E+02  0.95304509328E+01 -0.56221362032E+01  0.26471338895E+02  0.51100000000E-03 0.  1.
        -12    1    3    3    0    0  0.84246613668E+01 -0.85462652140E+01 -0.16866923059E+02  0.20700402454E+02  0.00000000000E+00 0.  1.
</event>
<event>
 7    1  0.2900470E-011  0.5052887E+02  0.7816164E-02  0.1300439E+00
        -11   -1    0    0    0    0  0.00000000000E+00  0.00000000000E+00  0.45593999997E+02  0.45594000000E+02  0.51100000000E-03 0. -1.
         11   -1    0    0    0    0 -0.00000000000E+00 -0.00000000000E+00 -0.45593999997E+02  0.45594000000E+02  0.51100000000E-03 0.  1.
    9900012    2    1    2    0    0  0.18748469159E+01 -0.11187135552E+02 -0.39044815549E+02  0.50528872193E+02  0.30000037516E+02 0.  0.
         12    1    1    2    0    0 -0.18748469159E+01  0.11187135552E+02  0.39044815549E+02  0.40659127807E+02  0.00000000000E+00 0. -1.
         11    1    3    3    0    0 -0.17097913429E+01  0.77733271955E+01 -0.80793997575E+01  0.11341283121E+02  0.51100000000E-03 0. -1.
        -11    1    3    3    0    0  0.14305480383E+01 -0.18432211852E+02 -0.31828028853E+02  0.36807829634E+02  0.51100000000E-03 0.  1.
        -12    1    3    3    0    0  0.21540902205E+01 -0.52825089535E+00  0.86261306154E+00  0.23797594375E+01  0.00000000000E+00 0.  1.
</event>
<event>
 7    1  0.2900470E-011  0.5052875E+02  0.7816164E-02  0.1300439E+00
        -11   -1    0    0    0    0  0.00000000000E+00  0.00000000000E+00  0.45593999997E+02  0.45594000000E+02  0.51100000000E-03 0.  1.
         11   -1    0    0    0    0 -0.00000000000E+00 -0.00000000000E+00 -0.45593999997E+02  0.45594000000E+02  0.51100000000E-03 0. -1.
    9900012    2    1    2    0    0  0.12032842122E+02  0.38577901969E+02  0.44867469566E+01  0.50528748800E+02  0.29999662451E+02 0.  0.
         12    1    1    2    0    0 -0.12032842122E+02 -0.38577901969E+02 -0.44867469566E+01  0.40659251200E+02  0.00000000000E+00 0. -1.
         11    1    3    3    0    0 -0.57309507700E+01  0.24398689780E+02 -0.28026349980E+01  0.25218933818E+02  0.51100000000E-03 0. -1.
        -11    1    3    3    0    0  0.15594395314E+02  0.98115576770E+01  0.27145352746E+01  0.18623118194E+02  0.51100000000E-03 0.  1.
         12    1    3    3    0    0  0.21693975776E+01  0.43676545125E+01  0.45748466800E+01  0.66866967881E+01  0.00000000000E+00 0. -1.
</event>
<event>
 7    1  0.2900470E-011  0.5052886E+02  0.7816164E-02  0.1300439E+00
        -11   -1    0    0    0    0  0.00000000000E+00  0.00000000000E+00  0.45593999997E+02  0.45594000000E+02  0.51100000000E-03 0. -1.
         11   -1    0    0    0    0 -0.00000000000E+00 -0.00000000000E+00 -0.45593999997E+02  0.45594000000E+02  0.51100000000E-03 0.  1.
    9900012    2    1    2    0    0 -0.34454290465E+02  0.91425127064E+01 -0.19557145599E+02  0.50528860634E+02  0.30000002383E+02 0.  0.
         12    1    1    2    0    0  0.34454290465E+02 -0.91425127064E+01  0.19557145599E+02  0.40659139366E+02  0.00000000000E+00 0. -1.
         11    1    3    3    0    0  0.32802032030E+01 -0.19863981804E+01 -0.59816917690E+01  0.71053604739E+01  0.51100000000E-03 0. -1.
        -11    1    3    3    0    0 -0.25378615339E+02  0.12681535620E+01 -0.75843025764E+01  0.26517993435E+02  0.51100000000E-03 0.  1.
        -12    1    3    3    0    0 -0.12355878329E+02  0.98607573248E+01 -0.59911512538E+01  0.16905506725E+02  0.00000000000E+00 0.  1.
</event>
<event>
 7    1  0.2900470E-011  0.5052885E+02  0.7816164E-02  0.1300439E+00
        -11   -1    0    0    0    0  0.00000000000E+00  0.00000000000E+00  0.45593999997E+02  0.45594000000E+02  0.51100000000E-03 0. -1.
         11   -1    0    0    0    0 -0.00000000000E+00 -0.00000000000E+00 -0.45593999997E+02  0.45594000000E+02  0.51100000000E-03 0.  1.
    9900012    2    1    2    0    0  0.11190358434E+02  0.24099976924E+02 -0.30775535461E+02  0.50528848600E+02  0.29999965805E+02 0.  0.
         12    1    1    2    0    0 -0.11190358434E+02 -0.24099976924E+02  0.30775535461E+02  0.40659151400E+02  0.00000000000E+00 0. -1.
         11    1    3    3    0    0  0.90566994922E+01  0.65571725912E+01 -0.24672553372E+02  0.27087916278E+02  0.51100000000E-03 0. -1.
        -11    1    3    3    0    0  0.34624381981E+01  0.14731125432E+02 -0.10235425909E+02  0.18269057955E+02  0.51100000000E-03 0.  1.
         12    1    3    3    0    0 -0.13287792562E+01  0.28116789010E+01  0.41324438196E+01  0.51718743678E+01  0.00000000000E+00 0. -1.
</event>
<event>
 7    1  0.2900470E-011  0.5052885E+02  0.7816164E-02  0.1300439E+00
        -11   -1    0    0    0    0  0.00000000000E+00  0.00000000000E+00  0.45593999997E+02  0.45594000000E+02  0.51100000000E-03 0.  1.
         11   -1    0    0    0    0 -0.00000000000E+00 -0.00000000000E+00 -0.45593999997E+02  0.45594000000E+02  0.51100000000E-03 0. -1.
    9900012    2    1    2    0    0  0.29646203887E+02  0.14816465519E+02  0.23552947746E+02  0.50528850933E+02  0.29999972894E+02 0.  0.
         12    1    1    2    0    0 -0.29646203887E+02 -0.14816465519E+02 -0.23552947746E+02  0.40659149067E+02  0.00000000000E+00 0. -1.
         11    1    3    3    0    0  0.72054764183E+01 -0.45688466008E+01 -0.39040058316E+01  0.93826708069E+01  0.51100000000E-03 0. -1.
        -11    1    3    3    0    0  0.13975387114E+02  0.14515789065E+02  0.14072188728E+02  0.24577348779E+02  0.51100000000E-03 0.  1.
         12    1    3    3    0    0  0.84653403542E+01  0.48695230545E+01  0.13384764850E+02  0.16568831346E+02  0.00000000000E+00 0. -1.
</event>
<event>
 7    1  0.2900470E-011  0.5052885E+02  0.7816164E-02  0.1300439E+00
        -11   -1    0    0    0    0  0.00000000000E+00  0.00000000000E+00  0.45593999997E+02  0.45594000000E+02  0.51100000000E-03 0.  1.
         11   -1    0    0    0    0 -0.00000000000E+00 -0.00000000000E+00 -0.45593999997E+02  0.45594000000E+02  0.51100000000E-03 0. -1.
    9900012    2    1    2    0    0  0.23175314980E+02 -0.33396353117E+02 -0.86878065097E+00  0.50528850897E+02  0.29999972787E+02 0.  0.
         12    1    1    2    0    0 -0.23175314980E+02  0.33396353117E+02  0.86878065097E+00  0.40659149103E+02  0.00000000000E+00 0. -1.
         11    1    3    3    0    0  0.14420146391E+02 -0.41180202983E+01 -0.12736019708E+01  0.15050607142E+02  0.51100000000E-03 0. -1.
        -11    1    3    3    0    0  0.56746180337E+01 -0.25812654348E+02 -0.64478368407E+01  0.27204209500E+02  0.51100000000E-03 0.  1.
        -12    1    3    3    0    0  0.30805505560E+01 -0.34656784703E+01  0.68526581605E+01  0.82740342549E+01  0.00000000000E+00 0.  1.
</event>
<event>
 7    1  0.2900470E-011  0.5052886E+02  0.7816164E-02  0.1300439E+00
        -11   -1    0    0    0    0  0.00000000000E+00  0.00000000000E+00  0.45593999997E+02  0.45594000000E+02  0.51100000000E-03 0. -1.
         11   -1    0    0    0    0 -0.00000000000E+00 -0.00000000000E+00 -0.45593999997E+02  0.45594000000E+02  0.51100000000E-03 0.  1.
    9900012    2    1    2    0    0  0.35749567444E+02  0.16501658588E+02  0.10140494788E+02  0.50528856587E+02  0.29999990081E+02 0.  0.
         12    1    1    2    0    0 -0.35749567444E+02 -0.16501658588E+02 -0.10140494788E+02  0.40659143413E+02  0.00000000000E+00 0. -1.
         11    1    3    3    0    0  0.22476041477E+01 -0.51832854340E+01  0.11186303429E+01  0.57592973877E+01  0.51100000000E-03 0. -1.
        -11    1    3    3    0    0  0.30844504624E+02  0.13356553461E+02  0.22061860410E+01  0.33684540118E+02  0.51100000000E-03 0.  1.
        -12    1    3    3    0    0  0.26574586720E+01  0.83283905605E+01  0.68156784037E+01  0.11085019081E+02  0.00000000000E+00 0.  1.
</event>
<event>
 7    1  0.2900470E-011  0.5052886E+02  0.7816164E-02  0.1300439E+00
        -11   -1    0    0    0    0  0.00000000000E+00  0.00000000000E+00  0.45593999997E+02  0.45594000000E+02  0.51100000000E-03 0.  1.
         11   -1    0    0    0    0 -0.00000000000E+00 -0.00000000000E+00 -0.45593999997E+02  0.45594000000E+02  0.51100000000E-03 0. -1.
    9900012    2    1    2    0    0 -0.25989619217E+02  0.12998236765E+02  0.28438552572E+02  0.50528859104E+02  0.29999997732E+02 0.  0.
         12    1    1    2    0    0  0.25989619217E+02 -0.12998236765E+02 -0.28438552572E+02  0.40659140896E+02  0.00000000000E+00 0. -1.
         11    1    3    3    0    0  0.92052473482E+00  0.19122543124E+01  0.89766044070E+01  0.92240722722E+01  0.51100000000E-03 0. -1.
        -11    1    3    3    0    0 -0.22735307513E+02 -0.10221777980E+01  0.80185612167E+01  0.24129574787E+02  0.51100000000E-03 0.  1.
        -12    1    3    3    0    0 -0.41748364392E+01  0.12108160251E+02  0.11443386948E+02  0.17175212045E+02  0.00000000000E+00 0.  1.
</event>
<event>
 7    1  0.2900470E-011  0.5052886E+02  0.7816164E-02  0.1300439E+00
        -11   -1    0    0    0    0  0.00000000000E+00  0.00000000000E+00  0.45593999997E+02  0.45594000000E+02  0.51100000000E-03 0.  1.
         11   -1    0    0    0    0 -0.00000000000E+00 -0.00000000000E+00 -0.45593999997E+02  0.45594000000E+02  0.51100000000E-03 0. -1.
    9900012    2    1    2    0    0 -0.13803031240E+02 -0.37007685816E+02 -0.96474310457E+01  0.50528863183E+02  0.30000010132E+02 0.  0.
         12    1    1    2    0    0  0.13803031240E+02  0.37007685816E+02  0.96474310457E+01  0.40659136817E+02  0.00000000000E+00 0. -1.
         11    1    3    3    0    0 -0.10006586492E+02 -0.19708927302E+02 -0.12134958081E+02  0.25215685526E+02  0.51100000000E-03 0. -1.
        -11    1    3    3    0    0 -0.11101981909E+01 -0.18658631182E+02  0.69398665553E+01  0.19938375202E+02  0.51100000000E-03 0.  1.
        -12    1    3    3    0    0 -0.26862465573E+01  0.13598726683E+01 -0.44523395198E+01  0.53748024559E+01  0.00000000000E+00 0.  1.
</event>
<event>
 7    1  0.2900470E-011  0.5052887E+02  0.7816164E-02  0.1300439E+00
        -11   -1    0    0    0    0  0.00000000000E+00  0.00000000000E+00  0.45593999997E+02  0.45594000000E+02  0.51100000000E-03 0.  1.
         11   -1    0    0    0    0 -0.00000000000E+00 -0.00000000000E+00 -0.45593999997E+02  0.45594000000E+02  0.51100000000E-03 0. -1.
    9900012    2    1    2    0    0 -0.27904032783E+02  0.45080117124E+01  0.29226831901E+02  0.50528869192E+02  0.30000028395E+02 0.  0.
         12    1    1    2    0    0  0.27904032783E+02 -0.45080117124E+01 -0.29226831901E+02  0.40659130808E+02  0.00000000000E+00 0. -1.
         11    1    3    3    0    0 -0.22066184022E+02  0.78232992721E+01  0.48192809745E+01  0.23902844144E+02  0.51100000000E-03 0. -1.
        -11    1    3    3    0    0 -0.65376898810E+01 -0.18054601473E+01  0.97657164366E+01  0.11889924016E+02  0.51100000000E-03 0.  1.
         12    1    3    3    0    0  0.69984111997E+00 -0.15098274124E+01  0.14641834489E+02  0.14736101032E+02  0.00000000000E+00 0. -1.
</event>
<event>
 7    1  0.2900470E-011  0.5052888E+02  0.7816164E-02  0.1300439E+00
        -11   -1    0    0    0    0  0.00000000000E+00  0.00000000000E+00  0.45593999997E+02  0.45594000000E+02  0.51100000000E-03 0. -1.
         11   -1    0    0    0    0 -0.00000000000E+00 -0.00000000000E+00 -0.45593999997E+02  0.45594000000E+02  0.51100000000E-03 0.  1.
    9900012    2    1    2    0    0  0.88834789186E+00 -0.38048312542E+02 -0.14307376210E+02  0.50528877244E+02  0.30000052871E+02 0.  0.
         12    1    1    2    0    0 -0.88834789186E+00  0.38048312542E+02  0.14307376210E+02  0.40659122756E+02  0.00000000000E+00 0. -1.
         11    1    3    3    0    0 -0.52766779256E+01 -0.36965614474E+01  0.44571392520E+01  0.78341551579E+01  0.51100000000E-03 0. -1.
        -11    1    3    3    0    0  0.28406085685E+01 -0.34828144016E+02 -0.16494583901E+02  0.38641169379E+02  0.51100000000E-03 0.  1.
         12    1    3    3    0    0  0.33244172490E+01  0.47639292132E+00 -0.22699315602E+01  0.40535527071E+01  0.00000000000E+00 0. -1.
</event>
<event>
 7    1  0.2900470E-011  0.5052887E+02  0.7816164E-02  0.1300439E+00
        -11   -1    0    0    0    0  0.00000000000E+00  0.00000000000E+00  0.45593999997E+02  0.45594000000E+02  0.51100000000E-03 0.  1.
         11   -1    0    0    0    0 -0.00000000000E+00 -0.00000000000E+00 -0.45593999997E+02  0.45594000000E+02  0.51100000000E-03 0. -1.
    9900012    2    1    2    0    0  0.21090415265E+02  0.27436443315E+02  0.21344816311E+02  0.50528865464E+02  0.30000017065E+02 0.  0.
         12    1    1    2    0    0 -0.21090415265E+02 -0.27436443315E+02 -0.21344816311E+02  0.40659134536E+02  0.00000000000E+00 0. -1.
         11    1    3    3    0    0  0.27390287889E+01  0.96656687821E+01  0.41303816108E+01  0.10862204391E+02  0.51100000000E-03 0. -1.
        -11    1    3    3    0    0 -0.50449605381E+00 -0.40623420854E+00  0.13145994073E+02  0.13161941458E+02  0.51100000000E-03 0.  1.
        -12    1    3    3    0    0  0.18855882530E+02  0.18177008742E+02  0.40684406268E+01  0.26504719616E+02  0.00000000000E+00 0.  1.
</event>
<event>
 7    1  0.2900470E-011  0.5052885E+02  0.7816164E-02  0.1300439E+00
        -11   -1    0    0    0    0  0.00000000000E+00  0.00000000000E+00  0.45593999997E+02  0.45594000000E+02  0.51100000000E-03 0.  1.
         11   -1    0    0    0    0 -0.00000000000E+00 -0.00000000000E+00 -0.45593999997E+02  0.45594000000E+02  0.51100000000E-03 0. -1.
    9900012    2    1    2    0    0 -0.29288439929E+01 -0.35748456676E+02  0.19147742059E+02  0.50528852102E+02  0.29999976448E+02 0.  0.
         12    1    1    2    0    0  0.29288439929E+01  0.35748456676E+02 -0.19147742059E+02  0.40659147898E+02  0.00000000000E+00 0. -1.
         11    1    3    3    0    0  0.11470929427E+01 -0.17351122434E+01 -0.29029683862E+01  0.35712270200E+01  0.51100000000E-03 0. -1.
        -11    1    3    3    0    0 -0.70304439333E+01 -0.28022427707E+02  0.26276780504E+02  0.39053204611E+02  0.51100000000E-03 0.  1.
        -12    1    3    3    0    0  0.29545069977E+01 -0.59909167263E+01 -0.42260700596E+01  0.79044204702E+01  0.00000000000E+00 0.  1.
</event>
<event>
 7    1  0.2900470E-011  0.5052887E+02  0.7816164E-02  0.1300439E+00
        -11   -1    0    0    0    0  0.00000000000E+00  0.00000000000E+00  0.45593999997E+02  0.45594000000E+02  0.51100000000E-03 0.  1.
         11   -1    0    0    0    0 -0.00000000000E+00 -0.00000000000E+00 -0.45593999997E+02  0.45594000000E+02  0.51100000000E-03 0. -1.
    9900012    2    1    2    0    0  0.37064829141E+02  0.18836227020E+00 -0.16713109472E+02  0.50528867350E+02  0.30000022797E+02 0.  0.
         12    1    1    2    0    0 -0.37064829141E+02 -0.18836227020E+00  0.16713109472E+02  0.40659132650E+02  0.00000000000E+00 0. -1.
         11    1    3    3    0    0 -0.10773210881E+01  0.78753964409E+01 -0.14046029043E+01  0.80718894571E+01  0.51100000000E-03 0. -1.
        -11    1    3    3    0    0  0.32685296364E+02 -0.52203379849E+01 -0.15309183649E+02  0.36468501906E+02  0.51100000000E-03 0.  1.
        -12    1    3    3    0    0  0.54568538656E+01 -0.24666961858E+01  0.67708044187E-03  0.59884759866E+01  0.00000000000E+00 0.  1.
</event>
<event>
 7    1  0.2900470E-011  0.5052886E+02  0.7816164E-02  0.1300439E+00
        -11   -1    0    0    0    0  0.00000000000E+00  0.00000000000E+00  0.45593999997E+02  0.45594000000E+02  0.51100000000E-03 0.  1.
         11   -1    0    0    0    0 -0.00000000000E+00 -0.00000000000E+00 -0.45593999997E+02  0.45594000000E+02  0.51100000000E-03 0. -1.
    9900012    2    1    2    0    0 -0.15781697664E+02  0.17322331941E+02  0.33227099844E+02  0.50528864138E+02  0.30000013033E+02 0.  0.
         12    1    1    2    0    0  0.15781697664E+02 -0.17322331941E+02 -0.33227099844E+02  0.40659135862E+02  0.00000000000E+00 0. -1.
         11    1    3    3    0    0  0.73730894606E+01  0.31076850251E+01  0.15940259013E+01  0.81584969966E+01  0.51100000000E-03 0. -1.
        -11    1    3    3    0    0 -0.11348260361E+02  0.10877113358E+02  0.15237458753E+02  0.21892344729E+02  0.51100000000E-03 0.  1.
         12    1    3    3    0    0 -0.11806526763E+02  0.33375335578E+01  0.16395615190E+02  0.20478022412E+02  0.00000000000E+00 0. -1.
</event>
<event>
 7    1  0.2900470E-011  0.5052886E+02  0.7816164E-02  0.1300439E+00
        -11   -1    0    0    0    0  0.00000000000E+00  0.00000000000E+00  0.45593999997E+02  0.45594000000E+02  0.51100000000E-03 0.  1.
         11   -1    0    0    0    0 -0.00000000000E+00 -0.00000000000E+00 -0.45593999997E+02  0.45594000000E+02  0.51100000000E-03 0. -1.
    9900012    2    1    2    0    0 -0.36677027311E+02 -0.96301317010E+01  0.14670429116E+02  0.50528864994E+02  0.30000015636E+02 0.  0.
         12    1    1    2    0    0  0.36677027311E+02  0.96301317010E+01 -0.14670429116E+02  0.40659135006E+02  0.00000000000E+00 0. -1.
         11    1    3    3    0    0 -0.53079625157E+01  0.66754424455E+00  0.52074157044E+01  0.74657390770E+01  0.51100000000E-03 0.  1.
        -11    1    3    3    0    0 -0.26912439512E+02 -0.17987593750E+01 -0.32141642450E+01  0.27163316952E+02  0.51100000000E-03 0. -1.
        -12    1    3    3    0    0 -0.44566252839E+01 -0.84989165705E+01  0.12677177657E+02  0.15899808965E+02  0.00000000000E+00 0.  1.
</event>
<event>
 7    1  0.2900470E-011  0.5052885E+02  0.7816164E-02  0.1300439E+00
        -11   -1    0    0    0    0  0.00000000000E+00  0.00000000000E+00  0.45593999997E+02  0.45594000000E+02  0.51100000000E-03 0. -1.
         11   -1    0    0    0    0 -0.00000000000E+00 -0.00000000000E+00 -0.45593999997E+02  0.45594000000E+02  0.51100000000E-03 0.  1.
    9900012    2    1    2    0    0  0.98716758040E+01  0.36128251223E+02 -0.15826106378E+02  0.50528853886E+02  0.29999981873E+02 0.  0.
         12    1    1    2    0    0 -0.98716758040E+01 -0.36128251223E+02  0.15826106378E+02  0.40659146114E+02  0.00000000000E+00 0. -1.
         11    1    3    3    0    0 -0.97432564186E+01  0.47202363112E+01 -0.31897633807E+01  0.11286552492E+02  0.51100000000E-03 0. -1.
        -11    1    3    3    0    0  0.84330765042E+01  0.14453132382E+02 -0.42202201045E+01  0.17257464268E+02  0.51100000000E-03 0.  1.
         12    1    3    3    0    0  0.11181855718E+02  0.16954882530E+02 -0.84161228926E+01  0.21984837126E+02  0.00000000000E+00 0. -1.
</event>
<event>
 7    1  0.2900470E-011  0.5052886E+02  0.7816164E-02  0.1300439E+00
        -11   -1    0    0    0    0  0.00000000000E+00  0.00000000000E+00  0.45593999997E+02  0.45594000000E+02  0.51100000000E-03 0. -1.
         11   -1    0    0    0    0 -0.00000000000E+00 -0.00000000000E+00 -0.45593999997E+02  0.45594000000E+02  0.51100000000E-03 0.  1.
    9900012    2    1    2    0    0 -0.36643862557E+02 -0.17419751227E+02 -0.26354139565E+01  0.50528858314E+02  0.29999995332E+02 0.  0.
         12    1    1    2    0    0  0.36643862557E+02  0.17419751227E+02  0.26354139565E+01  0.40659141686E+02  0.00000000000E+00 0. -1.
         11    1    3    3    0    0 -0.46996368517E+01 -0.12734683742E+02  0.30307542247E+01  0.13908422915E+02  0.51100000000E-03 0. -1.
        -11    1    3    3    0    0 -0.27865341945E+02 -0.98490832890E+01 -0.39317575859E+01  0.29815104248E+02  0.51100000000E-03 0.  1.
        -12    1    3    3    0    0 -0.40788837601E+01  0.51640158046E+01 -0.17344105953E+01  0.68053311507E+01  0.00000000000E+00 0.  1.
</event>
<event>
 7    1  0.2900470E-011  0.5052886E+02  0.7816164E-02  0.1300439E+00
        -11   -1    0    0    0    0  0.00000000000E+00  0.00000000000E+00  0.45593999997E+02  0.45594000000E+02  0.51100000000E-03 0. -1.
         11   -1    0    0    0    0 -0.00000000000E+00 -0.00000000000E+00 -0.45593999997E+02  0.45594000000E+02  0.51100000000E-03 0.  1.
    9900012    2    1    2    0    0 -0.18148780579E+02 -0.17509682352E+02 -0.31893549390E+02  0.50528859512E+02  0.29999998972E+02 0.  0.
         12    1    1    2    0    0  0.18148780579E+02  0.17509682352E+02  0.31893549390E+02  0.40659140488E+02  0.00000000000E+00 0. -1.
         11    1    3    3    0    0 -0.42181127817E+00 -0.89342665734E+00  0.19349293410E+01  0.21725762961E+01  0.51100000000E-03 0. -1.
        -11    1    3    3    0    0  0.14431329662E+01 -0.11419922347E+02 -0.23035519081E+02  0.25751357222E+02  0.51100000000E-03 0.  1.
        -12    1    3    3    0    0 -0.19170102267E+02 -0.51963333480E+01 -0.10792959649E+02  0.22604925994E+02  0.00000000000E+00 0.  1.
</event>
<event>
 7    1  0.2900470E-011  0.5052886E+02  0.7816164E-02  0.1300439E+00
        -11   -1    0    0    0    0  0.00000000000E+00  0.00000000000E+00  0.45593999997E+02  0.45594000000E+02  0.51100000000E-03 0. -1.
         11   -1    0    0    0    0 -0.00000000000E+00 -0.00000000000E+00 -0.45593999997E+02  0.45594000000E+02  0.51100000000E-03 0.  1.
    9900012    2    1    2    0    0  0.53301346880E+00 -0.37784129421E+02 -0.15008028868E+02  0.50528862405E+02  0.30000007765E+02 0.  0.
         12    1    1    2    0    0 -0.53301346880E+00  0.37784129421E+02  0.15008028868E+02  0.40659137595E+02  0.00000000000E+00 0. -1.
         11    1    3    3    0    0  0.48499658676E+01 -0.32753403969E+02 -0.19016913107E+02  0.38183119632E+02  0.51100000000E-03 0. -1.
        -11    1    3    3    0    0 -0.20625088017E+01 -0.94077158927E+00 -0.30997734841E+01  0.38402590608E+01  0.51100000000E-03 0.  1.
         12    1    3    3    0    0 -0.22544435971E+01 -0.40899538637E+01  0.71086577238E+01  0.85054837119E+01  0.00000000000E+00 0. -1.
</event>
<event>
 7    1  0.2900470E-011  0.5052886E+02  0.7816164E-02  0.1300439E+00
        -11   -1    0    0    0    0  0.00000000000E+00  0.00000000000E+00  0.45593999997E+02  0.45594000000E+02  0.51100000000E-03 0.  1.
         11   -1    0    0    0    0 -0.00000000000E+00 -0.00000000000E+00 -0.45593999997E+02  0.45594000000E+02  0.51100000000E-03 0. -1.
    9900012    2    1    2    0    0 -0.13817699519E+02  0.29838253476E+02  0.23914762690E+02  0.50528855087E+02  0.29999985523E+02 0.  0.
         12    1    1    2    0    0  0.13817699519E+02 -0.29838253476E+02 -0.23914762690E+02  0.40659144913E+02  0.00000000000E+00 0. -1.
         11    1    3    3    0    0  0.46911844916E+01  0.16498395589E+02  0.53288455775E+01  0.17961093074E+02  0.51100000000E-03 0. -1.
        -11    1    3    3    0    0 -0.33224206100E+01 -0.27453916807E+01  0.50263518423E+01  0.66211681216E+01  0.51100000000E-03 0.  1.
        -12    1    3    3    0    0 -0.15186463401E+02  0.16085249567E+02  0.13559565270E+02  0.25946593892E+02  0.00000000000E+00 0.  1.
</event>
<event>
 7    1  0.2900470E-011  0.5052886E+02  0.7816164E-02  0.1300439E+00
        -11   -1    0    0    0    0  0.00000000000E+00  0.00000000000E+00  0.45593999997E+02  0.45594000000E+02  0.51100000000E-03 0.  1.
         11   -1    0    0    0    0 -0.00000000000E+00 -0.00000000000E+00 -0.45593999997E+02  0.45594000000E+02  0.51100000000E-03 0. -1.
    9900012    2    1    2    0    0 -0.28193176682E+02  0.38074815830E+01  0.29048464103E+02  0.50528863337E+02  0.30000010599E+02 0.  0.
         12    1    1    2    0    0  0.28193176682E+02 -0.38074815830E+01 -0.29048464103E+02  0.40659136663E+02  0.00000000000E+00 0. -1.
         11    1    3    3    0    0  0.30671674754E+01 -0.63166290645E+01  0.32511268903E+01  0.77380323971E+01  0.51100000000E-03 0. -1.
        -11    1    3    3    0    0 -0.18194517993E+02  0.47841948923E+01  0.20207757989E+02  0.27609463757E+02  0.51100000000E-03 0.  1.
        -12    1    3    3    0    0 -0.13065826164E+02  0.53399157551E+01  0.55895792236E+01  0.15181367182E+02  0.00000000000E+00 0.  1.
</event>
<event>
 7    1  0.2900470E-011  0.5052886E+02  0.7816164E-02  0.1300439E+00
        -11   -1    0    0    0    0  0.00000000000E+00  0.00000000000E+00  0.45593999997E+02  0.45594000000E+02  0.51100000000E-03 0.  1.
         11   -1    0    0    0    0 -0.00000000000E+00 -0.00000000000E+00 -0.45593999997E+02  0.45594000000E+02  0.51100000000E-03 0. -1.
    9900012    2    1    2    0    0 -0.40597727584E+02 -0.14755923595E+01  0.16771265740E+01  0.50528860666E+02  0.30000002480E+02 0.  0.
         12    1    1    2    0    0  0.40597727584E+02  0.14755923595E+01 -0.16771265740E+01  0.40659139334E+02  0.00000000000E+00 0. -1.
         11    1    3    3    0    0 -0.11378712652E+01 -0.31961055536E+01  0.15618177786E+01  0.37348516383E+01  0.51100000000E-03 0. -1.
        -11    1    3    3    0    0 -0.35854656064E+02 -0.50038333557E+01 -0.63968289862E+01  0.36762945082E+02  0.51100000000E-03 0.  1.
        -12    1    3    3    0    0 -0.36052002550E+01  0.67243465498E+01  0.65121377816E+01  0.10031063946E+02  0.00000000000E+00 0.  1.
</event>
<event>
 7    1  0.2900470E-011  0.5052886E+02  0.7816164E-02  0.1300439E+00
        -11   -1    0    0    0    0  0.00000000000E+00  0.00000000000E+00  0.45593999997E+02  0.45594000000E+02  0.51100000000E-03 0.  1.
         11   -1    0    0    0    0 -0.00000000000E+00 -0.00000000000E+00 -0.45593999997E+02  0.45594000000E+02  0.51100000000E-03 0. -1.
    9900012    2    1    2    0    0 -0.32249997902E+02  0.24093802596E+02  0.57089669919E+01  0.50528855982E+02  0.29999988242E+02 0.  0.
         12    1    1    2    0    0  0.32249997902E+02 -0.24093802596E+02 -0.57089669919E+01  0.40659144018E+02  0.00000000000E+00 0. -1.
         11    1    3    3    0    0 -0.65170938402E+01  0.29032277801E+01  0.12587996455E+02  0.14469239741E+02  0.51100000000E-03 0. -1.
        -11    1    3    3    0    0 -0.14292946766E+02  0.17763854115E+02 -0.11886345496E+01  0.22831024783E+02  0.51100000000E-03 0.  1.
         12    1    3    3    0    0 -0.11439957296E+02  0.34267207002E+01 -0.56903949136E+01  0.13228591458E+02  0.00000000000E+00 0. -1.
</event>
<event>
 7    1  0.2900470E-011  0.5052886E+02  0.7816164E-02  0.1300439E+00
        -11   -1    0    0    0    0  0.00000000000E+00  0.00000000000E+00  0.45593999997E+02  0.45594000000E+02  0.51100000000E-03 0. -1.
         11   -1    0    0    0    0 -0.00000000000E+00 -0.00000000000E+00 -0.45593999997E+02  0.45594000000E+02  0.51100000000E-03 0.  1.
    9900012    2    1    2    0    0  0.24429833722E+02  0.29727025578E+02 -0.13139739031E+02  0.50528861209E+02  0.30000004132E+02 0.  0.
         12    1    1    2    0    0 -0.24429833722E+02 -0.29727025578E+02  0.13139739031E+02  0.40659138791E+02  0.00000000000E+00 0. -1.
         11    1    3    3    0    0  0.73186052710E+00  0.55961519003E+01  0.73739429999E+01  0.92858802248E+01  0.51100000000E-03 0. -1.
        -11    1    3    3    0    0  0.17225590053E+02  0.13555072814E+02 -0.72523702726E+01  0.23088045099E+02  0.51100000000E-03 0.  1.
         12    1    3    3    0    0  0.64723831412E+01  0.10575800864E+02 -0.13261311759E+02  0.18154935885E+02  0.00000000000E+00 0. -1.
</event>
<event>
 7    1  0.2900470E-011  0.5052886E+02  0.7816164E-02  0.1300439E+00
        -11   -1    0    0    0    0  0.00000000000E+00  0.00000000000E+00  0.45593999997E+02  0.45594000000E+02  0.51100000000E-03 0.  1.
         11   -1    0    0    0    0 -0.00000000000E+00 -0.00000000000E+00 -0.45593999997E+02  0.45594000000E+02  0.51100000000E-03 0. -1.
    9900012    2    1    2    0    0 -0.27986648326E+02  0.29429270901E+02  0.19572659315E+01  0.50528863755E+02  0.30000011869E+02 0.  0.
         12    1    1    2    0    0  0.27986648326E+02 -0.29429270901E+02 -0.19572659315E+01  0.40659136245E+02  0.00000000000E+00 0. -1.
         11    1    3    3    0    0 -0.16174695397E+02  0.11757689803E+02 -0.57977721215E+01  0.20820139349E+02  0.51100000000E-03 0. -1.
        -11    1    3    3    0    0 -0.28231927821E+01  0.85866753606E+00  0.10079529914E+02  0.10502602105E+02  0.51100000000E-03 0.  1.
        -12    1    3    3    0    0 -0.89887601471E+01  0.16812913562E+02 -0.23244918613E+01  0.19206122301E+02  0.00000000000E+00 0.  1.
</event>
<event>
 7    1  0.2900470E-011  0.5052886E+02  0.7816164E-02  0.1300439E+00
        -11   -1    0    0    0    0  0.00000000000E+00  0.00000000000E+00  0.45593999997E+02  0.45594000000E+02  0.51100000000E-03 0.  1.
         11   -1    0    0    0    0 -0.00000000000E+00 -0.00000000000E+00 -0.45593999997E+02  0.45594000000E+02  0.51100000000E-03 0. -1.
    9900012    2    1    2    0    0  0.89710132246E+01  0.38778581259E+02  0.83011170256E+01  0.50528856052E+02  0.29999988456E+02 0.  0.
         12    1    1    2    0    0 -0.89710132246E+01 -0.38778581259E+02 -0.83011170256E+01  0.40659143948E+02  0.00000000000E+00 0. -1.
         11    1    3    3    0    0 -0.68707220978E+01  0.27047339355E+01  0.27428049731E+01  0.78768894361E+01  0.51100000000E-03 0. -1.
        -11    1    3    3    0    0  0.35985627204E+01  0.25612474529E+02  0.86664248212E+00  0.25878554338E+02  0.51100000000E-03 0.  1.
         12    1    3    3    0    0  0.12243172602E+02  0.10461372794E+02  0.46916695703E+01  0.16773412278E+02  0.00000000000E+00 0. -1.
</event>
<event>
 7    1  0.2900470E-011  0.5052886E+02  0.7816164E-02  0.1300439E+00
        -11   -1    0    0    0    0  0.00000000000E+00  0.00000000000E+00  0.45593999997E+02  0.45594000000E+02  0.51100000000E-03 0.  1.
         11   -1    0    0    0    0 -0.00000000000E+00 -0.00000000000E+00 -0.45593999997E+02  0.45594000000E+02  0.51100000000E-03 0. -1.
    9900012    2    1    2    0    0 -0.88093097296E+01 -0.24665371324E+01  0.39616637026E+02  0.50528859913E+02  0.30000000192E+02 0.  0.
         12    1    1    2    0    0  0.88093097296E+01  0.24665371324E+01 -0.39616637026E+02  0.40659140087E+02  0.00000000000E+00 0. -1.
         11    1    3    3    0    0  0.18762801438E+00  0.12407210343E+02  0.18963130840E+02  0.22662180042E+02  0.51100000000E-03 0. -1.
        -11    1    3    3    0    0 -0.79585775665E+01 -0.12771131912E+02  0.20613000509E+02  0.25521296155E+02  0.51100000000E-03 0.  1.
        -12    1    3    3    0    0 -0.10383601774E+01 -0.21026155629E+01  0.40505677786E-01  0.23453837156E+01  0.00000000000E+00 0.  1.
</event>
<event>
 7    1  0.2900470E-011  0.5052886E+02  0.7816164E-02  0.1300439E+00
        -11   -1    0    0    0    0  0.00000000000E+00  0.00000000000E+00  0.45593999997E+02  0.45594000000E+02  0.51100000000E-03 0. -1.
         11   -1    0    0    0    0 -0.00000000000E+00 -0.00000000000E+00 -0.45593999997E+02  0.45594000000E+02  0.51100000000E-03 0.  1.
    9900012    2    1    2    0    0  0.21195256675E+01 -0.11487744143E+02 -0.38944896468E+02  0.50528860616E+02  0.30000002327E+02 0.  0.
         12    1    1    2    0    0 -0.21195256675E+01  0.11487744143E+02  0.38944896468E+02  0.40659139384E+02  0.00000000000E+00 0. -1.
         11    1    3    3    0    0 -0.77869602493E+01 -0.45805071942E+01 -0.22394721197E+02  0.24148319483E+02  0.51100000000E-03 0. -1.
        -11    1    3    3    0    0  0.90335559254E+01 -0.82710464978E+01 -0.28373273274E+01  0.12572420986E+02  0.51100000000E-03 0.  1.
         12    1    3    3    0    0  0.87292999144E+00  0.13638095490E+01 -0.13712847944E+02  0.13808120147E+02  0.00000000000E+00 0. -1.
</event>
<event>
 7    1  0.2900470E-011  0.5052886E+02  0.7816164E-02  0.1300439E+00
        -11   -1    0    0    0    0  0.00000000000E+00  0.00000000000E+00  0.45593999997E+02  0.45594000000E+02  0.51100000000E-03 0.  1.
         11   -1    0    0    0    0 -0.00000000000E+00 -0.00000000000E+00 -0.45593999997E+02  0.45594000000E+02  0.51100000000E-03 0. -1.
    9900012    2    1    2    0    0 -0.37690800945E+02 -0.13006551954E+02  0.79623491062E+01  0.50528857450E+02  0.29999992705E+02 0.  0.
         12    1    1    2    0    0  0.37690800945E+02  0.13006551954E+02 -0.79623491062E+01  0.40659142550E+02  0.00000000000E+00 0. -1.
         11    1    3    3    0    0 -0.57793112066E+01 -0.19992241480E+00 -0.47246188905E+01  0.74674246509E+01  0.51100000000E-03 0. -1.
        -11    1    3    3    0    0 -0.20813999398E+02  0.23566217020E+01  0.12249938556E+02  0.24265968591E+02  0.51100000000E-03 0.  1.
        -12    1    3    3    0    0 -0.11097490340E+02 -0.15163251242E+02  0.43702944095E+00  0.18795464208E+02  0.00000000000E+00 0.  1.
</event>
<event>
 7    1  0.2900470E-011  0.5052885E+02  0.7816164E-02  0.1300439E+00
        -11   -1    0    0    0    0  0.00000000000E+00  0.00000000000E+00  0.45593999997E+02  0.45594000000E+02  0.51100000000E-03 0. -1.
         11   -1    0    0    0    0 -0.00000000000E+00 -0.00000000000E+00 -0.45593999997E+02  0.45594000000E+02  0.51100000000E-03 0.  1.
    9900012    2    1    2    0    0 -0.21319395491E+02 -0.26821761569E+02 -0.21891615595E+02  0.50528851569E+02  0.29999974828E+02 0.  0.
         12    1    1    2    0    0  0.21319395491E+02  0.26821761569E+02  0.21891615595E+02  0.40659148431E+02  0.00000000000E+00 0. -1.
         11    1    3    3    0    0 -0.39442734293E+01 -0.36671790455E+00  0.50880203755E+01  0.64482343714E+01  0.51100000000E-03 0. -1.
        -11    1    3    3    0    0 -0.58539313668E+01 -0.21559876153E+02 -0.17469004649E+02  0.28359529189E+02  0.51100000000E-03 0.  1.
        -12    1    3    3    0    0 -0.11521190695E+02 -0.48951675121E+01 -0.95106313223E+01  0.15721088008E+02  0.00000000000E+00 0.  1.
</event>
<event>
 7    1  0.2900470E-011  0.5052885E+02  0.7816164E-02  0.1300439E+00
        -11   -1    0    0    0    0  0.00000000000E+00  0.00000000000E+00  0.45593999997E+02  0.45594000000E+02  0.51100000000E-03 0. -1.
         11   -1    0    0    0    0 -0.00000000000E+00 -0.00000000000E+00 -0.45593999997E+02  0.45594000000E+02  0.51100000000E-03 0.  1.
    9900012    2    1    2    0    0  0.40453129212E+02 -0.34546994103E+01  0.21853352106E+01  0.50528852185E+02  0.29999976702E+02 0.  0.
         12    1    1    2    0    0 -0.40453129212E+02  0.34546994103E+01 -0.21853352106E+01  0.40659147815E+02  0.00000000000E+00 0. -1.
         11    1    3    3    0    0  0.36827779964E+02  0.86484219445E+00  0.53401118906E+01  0.37222978446E+02  0.51100000000E-03 0. -1.
        -11    1    3    3    0    0  0.68568563657E+01 -0.39387764910E+01 -0.51985751902E+01  0.94633833134E+01  0.51100000000E-03 0.  1.
         12    1    3    3    0    0 -0.32315071178E+01 -0.38076511367E+00  0.20437985103E+01  0.38424904261E+01  0.00000000000E+00 0. -1.
</event>
<event>
 7    1  0.2900470E-011  0.5052886E+02  0.7816164E-02  0.1300439E+00
        -11   -1    0    0    0    0  0.00000000000E+00  0.00000000000E+00  0.45593999997E+02  0.45594000000E+02  0.51100000000E-03 0.  1.
         11   -1    0    0    0    0 -0.00000000000E+00 -0.00000000000E+00 -0.45593999997E+02  0.45594000000E+02  0.51100000000E-03 0. -1.
    9900012    2    1    2    0    0  0.72449699599E+01 -0.17183384947E+02  0.36130416968E+02  0.50528864024E+02  0.30000012689E+02 0.  0.
         12    1    1    2    0    0 -0.72449699599E+01  0.17183384947E+02 -0.36130416968E+02  0.40659135976E+02  0.00000000000E+00 0. -1.
         11    1    3    3    0    0  0.12572096782E+02 -0.10054006012E+02  0.36856211663E+02  0.40218416090E+02  0.51100000000E-03 0. -1.
        -11    1    3    3    0    0 -0.76297888767E+00 -0.44028460631E+01  0.12478116553E+01  0.46394206994E+01  0.51100000000E-03 0.  1.
         12    1    3    3    0    0 -0.45641479349E+01 -0.27265328719E+01 -0.19736063499E+01  0.56710272347E+01  0.00000000000E+00 0. -1.
</event>
<event>
 7    1  0.2900470E-011  0.5052886E+02  0.7816164E-02  0.1300439E+00
        -11   -1    0    0    0    0  0.00000000000E+00  0.00000000000E+00  0.45593999997E+02  0.45594000000E+02  0.51100000000E-03 0.  1.
         11   -1    0    0    0    0 -0.00000000000E+00 -0.00000000000E+00 -0.45593999997E+02  0.45594000000E+02  0.51100000000E-03 0. -1.
    9900012    2    1    2    0    0  0.34398546782E+02  0.55626240710E+01  0.20951439096E+02  0.50528860714E+02  0.30000002627E+02 0.  0.
         12    1    1    2    0    0 -0.34398546782E+02 -0.55626240710E+01 -0.20951439096E+02  0.40659139286E+02  0.00000000000E+00 0. -1.
         11    1    3    3    0    0  0.12088119894E+02  0.12890968548E+02  0.38311691837E+01  0.18082521125E+02  0.51100000000E-03 0. -1.
        -11    1    3    3    0    0  0.14323553027E+02 -0.10261644481E+02  0.63694047619E+01  0.18735923678E+02  0.51100000000E-03 0.  1.
         12    1    3    3    0    0  0.79868738607E+01  0.29333000040E+01  0.10750865150E+02  0.13710415911E+02  0.00000000000E+00 0. -1.
</event>
<event>
 7    1  0.2900470E-011  0.5052886E+02  0.7816164E-02  0.1300439E+00
        -11   -1    0    0    0    0  0.00000000000E+00  0.00000000000E+00  0.45593999997E+02  0.45594000000E+02  0.51100000000E-03 0.  1.
         11   -1    0    0    0    0 -0.00000000000E+00 -0.00000000000E+00 -0.45593999997E+02  0.45594000000E+02  0.51100000000E-03 0. -1.
    9900012    2    1    2    0    0  0.26409279064E+02  0.29379132611E+02  0.96219731634E+01  0.50528858086E+02  0.29999994637E+02 0.  0.
         12    1    1    2    0    0 -0.26409279064E+02 -0.29379132611E+02 -0.96219731634E+01  0.40659141914E+02  0.00000000000E+00 0. -1.
         11    1    3    3    0    0  0.85304212924E+01  0.13002966690E+02 -0.10180008054E+02  0.18587032964E+02  0.51100000000E-03 0. -1.
        -11    1    3    3    0    0  0.10105739906E+02  0.84831331399E+01  0.67444210562E+01  0.14818122100E+02  0.51100000000E-03 0.  1.
         12    1    3    3    0    0  0.77731178655E+01  0.78930327809E+01  0.13057560161E+02  0.17123703022E+02  0.00000000000E+00 0. -1.
</event>
<event>
 7    1  0.2900470E-011  0.5052882E+02  0.7816164E-02  0.1300439E+00
        -11   -1    0    0    0    0  0.00000000000E+00  0.00000000000E+00  0.45593999997E+02  0.45594000000E+02  0.51100000000E-03 0.  1.
         11   -1    0    0    0    0 -0.00000000000E+00 -0.00000000000E+00 -0.45593999997E+02  0.45594000000E+02  0.51100000000E-03 0. -1.
    9900012    2    1    2    0    0 -0.40488421627E+02 -0.17739290467E+01  0.32726149628E+01  0.50528817534E+02  0.29999871375E+02 0.  0.
         12    1    1    2    0    0  0.40488421627E+02  0.17739290467E+01 -0.32726149628E+01  0.40659182466E+02  0.00000000000E+00 0. -1.
         11    1    3    3    0    0 -0.28866368686E+02 -0.12433343734E+02  0.89525291302E+01  0.32680316027E+02  0.51100000000E-03 0. -1.
        -11    1    3    3    0    0 -0.78525533019E+01  0.68491037808E+01 -0.67061341577E+01  0.12391329693E+02  0.51100000000E-03 0.  1.
        -12    1    3    3    0    0 -0.37694996390E+01  0.38103109066E+01  0.10262199902E+01  0.54571718135E+01  0.00000000000E+00 0.  1.
</event>
<event>
 7    1  0.2900470E-011  0.5052886E+02  0.7816164E-02  0.1300439E+00
        -11   -1    0    0    0    0  0.00000000000E+00  0.00000000000E+00  0.45593999997E+02  0.45594000000E+02  0.51100000000E-03 0.  1.
         11   -1    0    0    0    0 -0.00000000000E+00 -0.00000000000E+00 -0.45593999997E+02  0.45594000000E+02  0.51100000000E-03 0. -1.
    9900012    2    1    2    0    0  0.23441688178E+02  0.33215778851E+02 -0.60402251521E+00  0.50528861390E+02  0.30000004681E+02 0.  0.
         12    1    1    2    0    0 -0.23441688178E+02 -0.33215778851E+02  0.60402251521E+00  0.40659138610E+02  0.00000000000E+00 0. -1.
         11    1    3    3    0    0  0.37261934167E+00  0.18570217866E+02 -0.99633694325E+01  0.21077489591E+02  0.51100000000E-03 0. -1.
        -11    1    3    3    0    0  0.11062121058E+02  0.10236399783E+02  0.40828645850E+01  0.15614870678E+02  0.51100000000E-03 0.  1.
        -12    1    3    3    0    0  0.12006947778E+02  0.44091612023E+01  0.52764823324E+01  0.13836501121E+02  0.00000000000E+00 0.  1.
</event>
<event>
 7    1  0.2900470E-011  0.5052889E+02  0.7816164E-02  0.1300439E+00
        -11   -1    0    0    0    0  0.00000000000E+00  0.00000000000E+00  0.45593999997E+02  0.45594000000E+02  0.51100000000E-03 0.  1.
         11   -1    0    0    0    0 -0.00000000000E+00 -0.00000000000E+00 -0.45593999997E+02  0.45594000000E+02  0.51100000000E-03 0. -1.
    9900012    2    1    2    0    0  0.20180326291E+02 -0.34209577692E+00 -0.35295901483E+02  0.50528889579E+02  0.30000090366E+02 0.  0.
         12    1    1    2    0    0 -0.20180326291E+02  0.34209577692E+00  0.35295901483E+02  0.40659110421E+02  0.00000000000E+00 0. -1.
         11    1    3    3    0    0 -0.21984754370E+01  0.93988509798E+01 -0.11168492648E+02  0.14761670714E+02  0.51100000000E-03 0. -1.
        -11    1    3    3    0    0  0.20400314939E+02 -0.10330475609E+02 -0.24664801758E+02  0.33633971248E+02  0.51100000000E-03 0.  1.
         12    1    3    3    0    0  0.19784867888E+01  0.58952885246E+00  0.53739292312E+00  0.21332476169E+01  0.00000000000E+00 0. -1.
</event>
<event>
 7    1  0.2921467E-011  0.5052888E+02  0.7816164E-02  0.1300439E+00
        -11   -1    0    0    0    0  0.00000000000E+00  0.00000000000E+00  0.45593999997E+02  0.45594000000E+02  0.51100000000E-03 0.  1.
         11   -1    0    0    0    0 -0.00000000000E+00 -0.00000000000E+00 -0.45593999997E+02  0.45594000000E+02  0.51100000000E-03 0. -1.
    9900012    2    1    2    0    0  0.17636821996E+02 -0.31300910105E+02  0.19035753652E+02  0.50528875801E+02  0.30000048484E+02 0.  0.
         12    1    1    2    0    0 -0.17636821996E+02  0.31300910105E+02 -0.19035753652E+02  0.40659124199E+02  0.00000000000E+00 0. -1.
         11    1    3    3    0    0  0.12390613174E+01  0.22232351419E+01 -0.26251531114E+01  0.36564294830E+01  0.51100000000E-03 0. -1.
        -11    1    3    3    0    0  0.18981878093E+02 -0.19160711611E+02  0.13837142544E+02  0.30313546137E+02  0.51100000000E-03 0.  1.
        -12    1    3    3    0    0 -0.25841174141E+01 -0.14363433636E+02  0.78237642195E+01  0.16558900181E+02  0.00000000000E+00 0.  1.
</event>
<event>
 7    1  0.2900470E-011  0.5052886E+02  0.7816164E-02  0.1300439E+00
        -11   -1    0    0    0    0  0.00000000000E+00  0.00000000000E+00  0.45593999997E+02  0.45594000000E+02  0.51100000000E-03 0.  1.
         11   -1    0    0    0    0 -0.00000000000E+00 -0.00000000000E+00 -0.45593999997E+02  0.45594000000E+02  0.51100000000E-03 0. -1.
    9900012    2    1    2    0    0 -0.14647773783E+02  0.12120371780E+02  0.35940296664E+02  0.50528860643E+02  0.30000002412E+02 0.  0.
         12    1    1    2    0    0  0.14647773783E+02 -0.12120371780E+02 -0.35940296664E+02  0.40659139357E+02  0.00000000000E+00 0. -1.
         11    1    3    3    0    0  0.15923954503E+01 -0.76224431749E+00 -0.95465347427E-01  0.17680083607E+01  0.51100000000E-03 0. -1.
        -11    1    3    3    0    0 -0.22795623400E+02  0.10542882602E+02  0.23360677482E+02  0.34300350908E+02  0.51100000000E-03 0.  1.
        -12    1    3    3    0    0  0.65554541667E+01  0.23397334959E+01  0.12675084530E+02  0.14460501374E+02  0.00000000000E+00 0.  1.
</event>
<event>
 7    1  0.2900470E-011  0.5052886E+02  0.7816164E-02  0.1300439E+00
        -11   -1    0    0    0    0  0.00000000000E+00  0.00000000000E+00  0.45593999997E+02  0.45594000000E+02  0.51100000000E-03 0.  1.
         11   -1    0    0    0    0 -0.00000000000E+00 -0.00000000000E+00 -0.45593999997E+02  0.45594000000E+02  0.51100000000E-03 0. -1.
    9900012    2    1    2    0    0 -0.26524089492E+02  0.11032391582E+01  0.30796447197E+02  0.50528860561E+02  0.30000002160E+02 0.  0.
         12    1    1    2    0    0  0.26524089492E+02 -0.11032391582E+01 -0.30796447197E+02  0.40659139439E+02  0.00000000000E+00 0. -1.
         11    1    3    3    0    0 -0.10966742114E+02  0.21959313305E+01  0.33322956155E+01  0.11670293112E+02  0.51100000000E-03 0. -1.
        -11    1    3    3    0    0 -0.11405900098E+02 -0.82756821501E+01  0.27111011051E+02  0.30554678734E+02  0.51100000000E-03 0.  1.
        -12    1    3    3    0    0 -0.41514472806E+01  0.71829899779E+01  0.35314053063E+00  0.83038887143E+01  0.00000000000E+00 0.  1.
</event>
<event>
 7    1  0.2900470E-011  0.5052887E+02  0.7816164E-02  0.1300439E+00
        -11   -1    0    0    0    0  0.00000000000E+00  0.00000000000E+00  0.45593999997E+02  0.45594000000E+02  0.51100000000E-03 0. -1.
         11   -1    0    0    0    0 -0.00000000000E+00 -0.00000000000E+00 -0.45593999997E+02  0.45594000000E+02  0.51100000000E-03 0.  1.
    9900012    2    1    2    0    0 -0.33080191408E+02  0.61983278854E+01 -0.22813298435E+02  0.50528869197E+02  0.30000028411E+02 0.  0.
         12    1    1    2    0    0  0.33080191408E+02 -0.61983278854E+01  0.22813298435E+02  0.40659130803E+02  0.00000000000E+00 0. -1.
         11    1    3    3    0    0 -0.77154353912E+01 -0.74688091711E+01 -0.25381369951E+01  0.11034182950E+02  0.51100000000E-03 0. -1.
        -11    1    3    3    0    0 -0.24494771409E+02  0.17403625487E+02 -0.17690389845E+02  0.34868752481E+02  0.51100000000E-03 0.  1.
        -12    1    3    3    0    0 -0.86998460748E+00 -0.37364884302E+01 -0.25847715950E+01  0.46259337657E+01  0.00000000000E+00 0.  1.
</event>
<event>
 7    1  0.2900470E-011  0.5052882E+02  0.7816164E-02  0.1300439E+00
        -11   -1    0    0    0    0  0.00000000000E+00  0.00000000000E+00  0.45593999997E+02  0.45594000000E+02  0.51100000000E-03 0.  1.
         11   -1    0    0    0    0 -0.00000000000E+00 -0.00000000000E+00 -0.45593999997E+02  0.45594000000E+02  0.51100000000E-03 0. -1.
    9900012    2    1    2    0    0 -0.94591929836E+01 -0.60474111691E+01  0.39078396339E+02  0.50528824231E+02  0.29999891733E+02 0.  0.
         12    1    1    2    0    0  0.94591929836E+01  0.60474111691E+01 -0.39078396339E+02  0.40659175769E+02  0.00000000000E+00 0. -1.
         11    1    3    3    0    0 -0.41201443356E+01 -0.28931754012E+01  0.18107429258E+02  0.18794282318E+02  0.51100000000E-03 0.  1.
        -11    1    3    3    0    0 -0.83840050358E+01 -0.88112059963E+01  0.28270740200E+01  0.12486842648E+02  0.51100000000E-03 0. -1.
        -12    1    3    3    0    0  0.30449563878E+01  0.56569702284E+01  0.18143893062E+02  0.19247699265E+02  0.00000000000E+00 0.  1.
</event>
<event>
 7    1  0.2900470E-011  0.5052886E+02  0.7816164E-02  0.1300439E+00
        -11   -1    0    0    0    0  0.00000000000E+00  0.00000000000E+00  0.45593999997E+02  0.45594000000E+02  0.51100000000E-03 0.  1.
         11   -1    0    0    0    0 -0.00000000000E+00 -0.00000000000E+00 -0.45593999997E+02  0.45594000000E+02  0.51100000000E-03 0. -1.
    9900012    2    1    2    0    0 -0.25039579552E+02  0.15763447121E+02  0.27887252580E+02  0.50528859997E+02  0.30000000447E+02 0.  0.
         12    1    1    2    0    0  0.25039579552E+02 -0.15763447121E+02 -0.27887252580E+02  0.40659140003E+02  0.00000000000E+00 0. -1.
         11    1    3    3    0    0 -0.16000965219E+01  0.59705904337E+01  0.22687422394E+02  0.23514408225E+02  0.51100000000E-03 0. -1.
        -11    1    3    3    0    0 -0.82995826077E+01 -0.31955132539E-01  0.26619101518E+00  0.83039117595E+01  0.51100000000E-03 0.  1.
         12    1    3    3    0    0 -0.15139900423E+02  0.98248118197E+01  0.49336391710E+01  0.18710540013E+02  0.00000000000E+00 0. -1.
</event>
<event>
 7    1  0.2900470E-011  0.5052886E+02  0.7816164E-02  0.1300439E+00
        -11   -1    0    0    0    0  0.00000000000E+00  0.00000000000E+00  0.45593999997E+02  0.45594000000E+02  0.51100000000E-03 0.  1.
         11   -1    0    0    0    0 -0.00000000000E+00 -0.00000000000E+00 -0.45593999997E+02  0.45594000000E+02  0.51100000000E-03 0. -1.
    9900012    2    1    2    0    0 -0.33322475737E+02 -0.10405381107E+02  0.20844816396E+02  0.50528859382E+02  0.29999998577E+02 0.  0.
         12    1    1    2    0    0  0.33322475737E+02  0.10405381107E+02 -0.20844816396E+02  0.40659140618E+02  0.00000000000E+00 0. -1.
         11    1    3    3    0    0  0.50816244188E+00 -0.24632090689E+01  0.11929247834E+02  0.12191496304E+02  0.51100000000E-03 0. -1.
        -11    1    3    3    0    0 -0.23457730976E+02 -0.74093065858E+01  0.12179500270E+02  0.27450012636E+02  0.51100000000E-03 0.  1.
         12    1    3    3    0    0 -0.10372907202E+02 -0.53286545240E+00 -0.32639317088E+01  0.10887350441E+02  0.00000000000E+00 0. -1.
</event>
<event>
 7    1  0.2900470E-011  0.5052889E+02  0.7816164E-02  0.1300439E+00
        -11   -1    0    0    0    0  0.00000000000E+00  0.00000000000E+00  0.45593999997E+02  0.45594000000E+02  0.51100000000E-03 0. -1.
         11   -1    0    0    0    0 -0.00000000000E+00 -0.00000000000E+00 -0.45593999997E+02  0.45594000000E+02  0.51100000000E-03 0.  1.
    9900012    2    1    2    0    0  0.85186890343E+01  0.35749280489E+02 -0.17394934255E+02  0.50528894549E+02  0.30000105471E+02 0.  0.
         12    1    1    2    0    0 -0.85186890343E+01 -0.35749280489E+02  0.17394934255E+02  0.40659105451E+02  0.00000000000E+00 0. -1.
         11    1    3    3    0    0 -0.18908216441E+01  0.32462689965E+01  0.44179171261E+01  0.57992638224E+01  0.51100000000E-03 0. -1.
        -11    1    3    3    0    0  0.14814033150E+02  0.20874579602E+02 -0.97081191403E+01  0.27376106904E+02  0.51100000000E-03 0.  1.
        -12    1    3    3    0    0 -0.44045224714E+01  0.11628431891E+02 -0.12104732241E+02  0.17353523823E+02  0.00000000000E+00 0.  1.
</event>
<event>
 7    1  0.2900470E-011  0.5052886E+02  0.7816164E-02  0.1300439E+00
        -11   -1    0    0    0    0  0.00000000000E+00  0.00000000000E+00  0.45593999997E+02  0.45594000000E+02  0.51100000000E-03 0. -1.
         11   -1    0    0    0    0 -0.00000000000E+00 -0.00000000000E+00 -0.45593999997E+02  0.45594000000E+02  0.51100000000E-03 0.  1.
    9900012    2    1    2    0    0 -0.13018430087E+02 -0.32376196154E+02 -0.20867875925E+02  0.50528857794E+02  0.29999993751E+02 0.  0.
         12    1    1    2    0    0  0.13018430087E+02  0.32376196154E+02  0.20867875925E+02  0.40659142206E+02  0.00000000000E+00 0. -1.
         11    1    3    3    0    0  0.17051464802E+01 -0.19527736640E+02 -0.20188039041E+02  0.28138886677E+02  0.51100000000E-03 0. -1.
        -11    1    3    3    0    0 -0.11978240140E+02 -0.10848140959E+02 -0.49796972233E+01  0.16910286331E+02  0.51100000000E-03 0.  1.
         12    1    3    3    0    0 -0.27453364272E+01 -0.20003185544E+01  0.42998603395E+01  0.54796847862E+01  0.00000000000E+00 0. -1.
</event>
<event>
 7    1  0.2900470E-011  0.5052886E+02  0.7816164E-02  0.1300439E+00
        -11   -1    0    0    0    0  0.00000000000E+00  0.00000000000E+00  0.45593999997E+02  0.45594000000E+02  0.51100000000E-03 0.  1.
         11   -1    0    0    0    0 -0.00000000000E+00 -0.00000000000E+00 -0.45593999997E+02  0.45594000000E+02  0.51100000000E-03 0. -1.
    9900012    2    1    2    0    0  0.89823317642E+00  0.79961518295E+01  0.39854993281E+02  0.50528858883E+02  0.29999997062E+02 0.  0.
         12    1    1    2    0    0 -0.89823317642E+00 -0.79961518295E+01 -0.39854993281E+02  0.40659141117E+02  0.00000000000E+00 0. -1.
         11    1    3    3    0    0  0.11007465789E+02  0.15461674268E+01  0.81402976253E+01  0.13777495509E+02  0.51100000000E-03 0. -1.
        -11    1    3    3    0    0 -0.12810424542E+02  0.67227685987E+01  0.30539586619E+02  0.33793031023E+02  0.51100000000E-03 0.  1.
        -12    1    3    3    0    0  0.27011919293E+01 -0.27278419604E+00  0.11751090366E+01  0.29583323519E+01  0.00000000000E+00 0.  1.
</event>
<event>
 7    1  0.2900470E-011  0.5052886E+02  0.7816164E-02  0.1300439E+00
        -11   -1    0    0    0    0  0.00000000000E+00  0.00000000000E+00  0.45593999997E+02  0.45594000000E+02  0.51100000000E-03 0. -1.
         11   -1    0    0    0    0 -0.00000000000E+00 -0.00000000000E+00 -0.45593999997E+02  0.45594000000E+02  0.51100000000E-03 0.  1.
    9900012    2    1    2    0    0  0.38084875529E+02 -0.90931317250E+01  0.10955511086E+02  0.50528855742E+02  0.29999987513E+02 0.  0.
         12    1    1    2    0    0 -0.38084875529E+02  0.90931317250E+01 -0.10955511086E+02  0.40659144258E+02  0.00000000000E+00 0. -1.
         11    1    3    3    0    0 -0.17742519794E+01  0.18996337907E+01 -0.68909621185E+00  0.26891322904E+01  0.51100000000E-03 0. -1.
        -11    1    3    3    0    0  0.40769397044E+02 -0.72826017234E+01  0.72978217942E+01  0.42052802836E+02  0.51100000000E-03 0.  1.
         12    1    3    3    0    0 -0.91026953549E+00 -0.37101637924E+01  0.43467855033E+01  0.57869206151E+01  0.00000000000E+00 0. -1.
</event>
<event>
 7    1  0.2900470E-011  0.5052886E+02  0.7816164E-02  0.1300439E+00
        -11   -1    0    0    0    0  0.00000000000E+00  0.00000000000E+00  0.45593999997E+02  0.45594000000E+02  0.51100000000E-03 0.  1.
         11   -1    0    0    0    0 -0.00000000000E+00 -0.00000000000E+00 -0.45593999997E+02  0.45594000000E+02  0.51100000000E-03 0. -1.
    9900012    2    1    2    0    0 -0.26356654506E+01  0.10908182123E+02  0.39079796424E+02  0.50528860091E+02  0.30000000731E+02 0.  0.
         12    1    1    2    0    0  0.26356654506E+01 -0.10908182123E+02 -0.39079796424E+02  0.40659139909E+02  0.00000000000E+00 0. -1.
         11    1    3    3    0    0 -0.59292458433E+01 -0.60742001201E+01  0.92250173733E+00  0.85383179307E+01  0.51100000000E-03 0. -1.
        -11    1    3    3    0    0  0.26532589854E+01  0.15027669190E+02  0.35412567432E+02  0.38560608877E+02  0.51100000000E-03 0.  1.
         12    1    3    3    0    0  0.64032140729E+00  0.19547130528E+01  0.27447272548E+01  0.34299332831E+01  0.00000000000E+00 0. -1.
</event>
<event>
 7    1  0.2900470E-011  0.5052886E+02  0.7816164E-02  0.1300439E+00
        -11   -1    0    0    0    0  0.00000000000E+00  0.00000000000E+00  0.45593999997E+02  0.45594000000E+02  0.51100000000E-03 0. -1.
         11   -1    0    0    0    0 -0.00000000000E+00 -0.00000000000E+00 -0.45593999997E+02  0.45594000000E+02  0.51100000000E-03 0.  1.
    9900012    2    1    2    0    0  0.18081926728E+02  0.33546874563E+02 -0.14170981433E+02  0.50528861028E+02  0.30000003581E+02 0.  0.
         12    1    1    2    0    0 -0.18081926728E+02 -0.33546874563E+02  0.14170981433E+02  0.40659138972E+02  0.00000000000E+00 0. -1.
         11    1    3    3    0    0  0.31096199325E+01  0.14709691383E+02 -0.19391830933E+02  0.24537478760E+02  0.51100000000E-03 0. -1.
        -11    1    3    3    0    0  0.90632560432E+01  0.11753598937E+02 -0.98295403793E+00  0.14874673004E+02  0.51100000000E-03 0.  1.
         12    1    3    3    0    0  0.59090507524E+01  0.70835842431E+01  0.62038035375E+01  0.11116709264E+02  0.00000000000E+00 0. -1.
</event>
<event>
 7    1  0.2900470E-011  0.5052885E+02  0.7816164E-02  0.1300439E+00
        -11   -1    0    0    0    0  0.00000000000E+00  0.00000000000E+00  0.45593999997E+02  0.45594000000E+02  0.51100000000E-03 0. -1.
         11   -1    0    0    0    0 -0.00000000000E+00 -0.00000000000E+00 -0.45593999997E+02  0.45594000000E+02  0.51100000000E-03 0.  1.
    9900012    2    1    2    0    0 -0.33737498877E+02 -0.63703860346E+01  0.21779936189E+02  0.50528852578E+02  0.29999977895E+02 0.  0.
         12    1    1    2    0    0  0.33737498877E+02  0.63703860346E+01 -0.21779936189E+02  0.40659147422E+02  0.00000000000E+00 0. -1.
         11    1    3    3    0    0 -0.56532872177E+01  0.70141007791E+01  0.15349226185E+01  0.91385586288E+01  0.51100000000E-03 0. -1.
        -11    1    3    3    0    0 -0.27623883769E+02 -0.12430671977E+02  0.23261746311E+02  0.38193054369E+02  0.51100000000E-03 0.  1.
        -12    1    3    3    0    0 -0.46032789005E+00 -0.95381483634E+00 -0.30167327401E+01  0.31972395803E+01  0.00000000000E+00 0.  1.
</event>
<event>
 7    1  0.2900470E-011  0.5052885E+02  0.7816164E-02  0.1300439E+00
        -11   -1    0    0    0    0  0.00000000000E+00  0.00000000000E+00  0.45593999997E+02  0.45594000000E+02  0.51100000000E-03 0. -1.
         11   -1    0    0    0    0 -0.00000000000E+00 -0.00000000000E+00 -0.45593999997E+02  0.45594000000E+02  0.51100000000E-03 0.  1.
    9900012    2    1    2    0    0 -0.32705427049E+00  0.22557021237E+02 -0.33826619156E+02  0.50528851766E+02  0.29999975429E+02 0.  0.
         12    1    1    2    0    0  0.32705427049E+00 -0.22557021237E+02  0.33826619156E+02  0.40659148234E+02  0.00000000000E+00 0. -1.
         11    1    3    3    0    0 -0.47348674714E+01 -0.15213089762E+01 -0.25531507700E+01  0.55903425735E+01  0.51100000000E-03 0. -1.
        -11    1    3    3    0    0  0.61798824912E+01  0.27452869933E+02 -0.29381618885E+02  0.40683295635E+02  0.51100000000E-03 0.  1.
        -12    1    3    3    0    0 -0.17720692903E+01 -0.33745397199E+01 -0.18918495011E+01  0.42552135581E+01  0.00000000000E+00 0.  1.
</event>
<event>
 7    1  0.2900470E-011  0.5052889E+02  0.7816164E-02  0.1300439E+00
        -11   -1    0    0    0    0  0.00000000000E+00  0.00000000000E+00  0.45593999997E+02  0.45594000000E+02  0.51100000000E-03 0. -1.
         11   -1    0    0    0    0 -0.00000000000E+00 -0.00000000000E+00 -0.45593999997E+02  0.45594000000E+02  0.51100000000E-03 0.  1.
    9900012    2    1    2    0    0 -0.40448147949E+02  0.25774530510E+01  0.32353804683E+01  0.50528885111E+02  0.30000076784E+02 0.  0.
         12    1    1    2    0    0  0.40448147949E+02 -0.25774530510E+01 -0.32353804683E+01  0.40659114889E+02  0.00000000000E+00 0. -1.
         11    1    3    3    0    0  0.99434595831E+00  0.46015471779E+01 -0.52356700562E+01  0.70409659504E+01  0.51100000000E-03 0. -1.
        -11    1    3    3    0    0 -0.24056255683E+02  0.24201296030E+01  0.82332509196E+01  0.25541082314E+02  0.51100000000E-03 0.  1.
         12    1    3    3    0    0 -0.17386238225E+02 -0.44442237299E+01  0.23779960493E+00  0.17946836847E+02  0.00000000000E+00 0. -1.
</event>
<event>
 7    1  0.2900470E-011  0.5052886E+02  0.7816164E-02  0.1300439E+00
        -11   -1    0    0    0    0  0.00000000000E+00  0.00000000000E+00  0.45593999997E+02  0.45594000000E+02  0.51100000000E-03 0.  1.
         11   -1    0    0    0    0 -0.00000000000E+00 -0.00000000000E+00 -0.45593999997E+02  0.45594000000E+02  0.51100000000E-03 0. -1.
    9900012    2    1    2    0    0 -0.23124642546E+02  0.27290348560E+02  0.19330117995E+02  0.50528859833E+02  0.29999999949E+02 0.  0.
         12    1    1    2    0    0  0.23124642546E+02 -0.27290348560E+02 -0.19330117995E+02  0.40659140167E+02  0.00000000000E+00 0. -1.
         11    1    3    3    0    0 -0.42284803110E+01  0.19568667108E+01 -0.24316295024E+01  0.52556821976E+01  0.51100000000E-03 0. -1.
        -11    1    3    3    0    0  0.38929330833E+01  0.27831969740E+01  0.10067034050E+02  0.11146581907E+02  0.51100000000E-03 0.  1.
        -12    1    3    3    0    0 -0.22789095318E+02  0.22550284875E+02  0.11694713447E+02  0.34126595728E+02  0.00000000000E+00 0.  1.
</event>
<event>
 7    1  0.2900470E-011  0.5052887E+02  0.7816164E-02  0.1300439E+00
        -11   -1    0    0    0    0  0.00000000000E+00  0.00000000000E+00  0.45593999997E+02  0.45594000000E+02  0.51100000000E-03 0.  1.
         11   -1    0    0    0    0 -0.00000000000E+00 -0.00000000000E+00 -0.45593999997E+02  0.45594000000E+02  0.51100000000E-03 0. -1.
    9900012    2    1    2    0    0  0.13911554430E+02  0.15282377886E+02  0.35015465602E+02  0.50528865087E+02  0.30000015919E+02 0.  0.
         12    1    1    2    0    0 -0.13911554430E+02 -0.15282377886E+02 -0.35015465602E+02  0.40659134913E+02  0.00000000000E+00 0. -1.
         11    1    3    3    0    0  0.32221873567E+01 -0.64123745640E+01  0.15623509506E+02  0.17192879004E+02  0.51100000000E-03 0. -1.
        -11    1    3    3    0    0  0.88045129004E+00  0.70978208608E+01  0.12590356454E+02  0.14480032160E+02  0.51100000000E-03 0.  1.
         12    1    3    3    0    0  0.98089157831E+01  0.14596931589E+02  0.68015996424E+01  0.18855953923E+02  0.00000000000E+00 0. -1.
</event>
<event>
 7    1  0.2900470E-011  0.5052886E+02  0.7816164E-02  0.1300439E+00
        -11   -1    0    0    0    0  0.00000000000E+00  0.00000000000E+00  0.45593999997E+02  0.45594000000E+02  0.51100000000E-03 0. -1.
         11   -1    0    0    0    0 -0.00000000000E+00 -0.00000000000E+00 -0.45593999997E+02  0.45594000000E+02  0.51100000000E-03 0.  1.
    9900012    2    1    2    0    0  0.20780370893E+02  0.50982122076E+01 -0.34573836530E+02  0.50528858906E+02  0.29999997130E+02 0.  0.
         12    1    1    2    0    0 -0.20780370893E+02 -0.50982122076E+01  0.34573836530E+02  0.40659141094E+02  0.00000000000E+00 0. -1.
         11    1    3    3    0    0 -0.50790373733E+01  0.98156769768E+00 -0.10291886229E+02  0.11518811492E+02  0.51100000000E-03 0. -1.
        -11    1    3    3    0    0  0.19782128275E+02  0.68725388329E+01 -0.99180297452E+01  0.23171786798E+02  0.51100000000E-03 0.  1.
        -12    1    3    3    0    0  0.60772799904E+01 -0.27558943230E+01 -0.14363920556E+02  0.15838260616E+02  0.00000000000E+00 0.  1.
</event>
<event>
 7    1  0.2900470E-011  0.5052886E+02  0.7816164E-02  0.1300439E+00
        -11   -1    0    0    0    0  0.00000000000E+00  0.00000000000E+00  0.45593999997E+02  0.45594000000E+02  0.51100000000E-03 0.  1.
         11   -1    0    0    0    0 -0.00000000000E+00 -0.00000000000E+00 -0.45593999997E+02  0.45594000000E+02  0.51100000000E-03 0. -1.
    9900012    2    1    2    0    0  0.30070538695E+02  0.21588689480E+02  0.16818348607E+02  0.50528860059E+02  0.30000000636E+02 0.  0.
         12    1    1    2    0    0 -0.30070538695E+02 -0.21588689480E+02 -0.16818348607E+02  0.40659139941E+02  0.00000000000E+00 0. -1.
         11    1    3    3    0    0 -0.33145555119E+01 -0.16618034953E+01  0.61877727975E+01  0.72136261029E+01  0.51100000000E-03 0. -1.
        -11    1    3    3    0    0  0.21894686393E+02  0.15271690634E+02  0.17635793515E+01  0.26752794984E+02  0.51100000000E-03 0.  1.
         12    1    3    3    0    0  0.11490407814E+02  0.79788023413E+01  0.88669964575E+01  0.16562438972E+02  0.00000000000E+00 0. -1.
</event>
<event>
 7    1  0.2900470E-011  0.5052886E+02  0.7816164E-02  0.1300439E+00
        -11   -1    0    0    0    0  0.00000000000E+00  0.00000000000E+00  0.45593999997E+02  0.45594000000E+02  0.51100000000E-03 0.  1.
         11   -1    0    0    0    0 -0.00000000000E+00 -0.00000000000E+00 -0.45593999997E+02  0.45594000000E+02  0.51100000000E-03 0. -1.
    9900012    2    1    2    0    0  0.17620773237E+02  0.36519998846E+02  0.29939861643E+01  0.50528856891E+02  0.29999991006E+02 0.  0.
         12    1    1    2    0    0 -0.17620773237E+02 -0.36519998846E+02 -0.29939861643E+01  0.40659143109E+02  0.00000000000E+00 0. -1.
         11    1    3    3    0    0 -0.23224529770E+01 -0.49487673179E+00 -0.13782848089E+01  0.27456074165E+01  0.51100000000E-03 0. -1.
        -11    1    3    3    0    0  0.85930548034E+01  0.34552892280E+02  0.73524162642E+00  0.35612968653E+02  0.51100000000E-03 0.  1.
        -12    1    3    3    0    0  0.11350171411E+02  0.24619832984E+01  0.36370293468E+01  0.12170280822E+02  0.00000000000E+00 0.  1.
</event>
<event>
 7    1  0.2900470E-011  0.5052886E+02  0.7816164E-02  0.1300439E+00
        -11   -1    0    0    0    0  0.00000000000E+00  0.00000000000E+00  0.45593999997E+02  0.45594000000E+02  0.51100000000E-03 0.  1.
         11   -1    0    0    0    0 -0.00000000000E+00 -0.00000000000E+00 -0.45593999997E+02  0.45594000000E+02  0.51100000000E-03 0. -1.
    9900012    2    1    2    0    0  0.13375298651E+02 -0.20865041168E+01  0.38339455561E+02  0.50528856304E+02  0.29999989220E+02 0.  0.
         12    1    1    2    0    0 -0.13375298651E+02  0.20865041168E+01 -0.38339455561E+02  0.40659143696E+02  0.00000000000E+00 0. -1.
         11    1    3    3    0    0  0.95472969925E+01 -0.90186165359E+01  0.31348718794E+02  0.33988652435E+02  0.51100000000E-03 0. -1.
        -11    1    3    3    0    0  0.45091214360E+01  0.16730952720E+01 -0.26837801175E+01  0.55076401384E+01  0.51100000000E-03 0.  1.
        -12    1    3    3    0    0 -0.68111977785E+00  0.52590171471E+01  0.96745168844E+01  0.11032563730E+02  0.00000000000E+00 0.  1.
</event>
<event>
 7    1  0.2900470E-011  0.5052889E+02  0.7816164E-02  0.1300439E+00
        -11   -1    0    0    0    0  0.00000000000E+00  0.00000000000E+00  0.45593999997E+02  0.45594000000E+02  0.51100000000E-03 0.  1.
         11   -1    0    0    0    0 -0.00000000000E+00 -0.00000000000E+00 -0.45593999997E+02  0.45594000000E+02  0.51100000000E-03 0. -1.
    9900012    2    1    2    0    0  0.24942828529E+02  0.12288344147E+02  0.29665055088E+02  0.50528885520E+02  0.30000078027E+02 0.  0.
         12    1    1    2    0    0 -0.24942828529E+02 -0.12288344147E+02 -0.29665055088E+02  0.40659114480E+02  0.00000000000E+00 0. -1.
         11    1    3    3    0    0  0.13672625299E+02  0.92065619649E+01  0.80719636976E+00  0.16503121887E+02  0.51100000000E-03 0. -1.
        -11    1    3    3    0    0  0.22683979453E+01 -0.20966541429E+00  0.22291351901E+02  0.22407453194E+02  0.51100000000E-03 0.  1.
        -12    1    3    3    0    0  0.90018052847E+01  0.32914475963E+01  0.65665068171E+01  0.11618310438E+02  0.00000000000E+00 0.  1.
</event>
<event>
 7    1  0.2900470E-011  0.5052886E+02  0.7816164E-02  0.1300439E+00
        -11   -1    0    0    0    0  0.00000000000E+00  0.00000000000E+00  0.45593999997E+02  0.45594000000E+02  0.51100000000E-03 0.  1.
         11   -1    0    0    0    0 -0.00000000000E+00 -0.00000000000E+00 -0.45593999997E+02  0.45594000000E+02  0.51100000000E-03 0. -1.
    9900012    2    1    2    0    0 -0.90857681318E+01  0.15795613353E+02  0.36347119402E+02  0.50528859914E+02  0.30000000194E+02 0.  0.
         12    1    1    2    0    0  0.90857681318E+01 -0.15795613353E+02 -0.36347119402E+02  0.40659140086E+02  0.00000000000E+00 0. -1.
         11    1    3    3    0    0  0.84071508139E+01  0.80763728008E+01  0.10489111478E+02  0.15682137682E+02  0.51100000000E-03 0. -1.
        -11    1    3    3    0    0 -0.13681792280E+02  0.15910939784E+01  0.23527982851E+02  0.27263326967E+02  0.51100000000E-03 0.  1.
        -12    1    3    3    0    0 -0.38111266657E+01  0.61281465738E+01  0.23300250724E+01  0.75833952640E+01  0.00000000000E+00 0.  1.
</event>
<event>
 7    1  0.2900470E-011  0.5052885E+02  0.7816164E-02  0.1300439E+00
        -11   -1    0    0    0    0  0.00000000000E+00  0.00000000000E+00  0.45593999997E+02  0.45594000000E+02  0.51100000000E-03 0.  1.
         11   -1    0    0    0    0 -0.00000000000E+00 -0.00000000000E+00 -0.45593999997E+02  0.45594000000E+02  0.51100000000E-03 0. -1.
    9900012    2    1    2    0    0  0.11245817337E+02  0.16474169794E+02  0.35430212517E+02  0.50528848054E+02  0.29999964144E+02 0.  0.
         12    1    1    2    0    0 -0.11245817337E+02 -0.16474169794E+02 -0.35430212517E+02  0.40659151946E+02  0.00000000000E+00 0. -1.
         11    1    3    3    0    0  0.11516082288E+02  0.18404567352E+02  0.17523490990E+02  0.27900196906E+02  0.51100000000E-03 0. -1.
        -11    1    3    3    0    0 -0.37583229221E+01 -0.16798169042E+01  0.18611458476E+02  0.19061300136E+02  0.51100000000E-03 0.  1.
        -12    1    3    3    0    0  0.34880579708E+01 -0.25058065347E+00 -0.70473694825E+00  0.35673510113E+01  0.00000000000E+00 0.  1.
</event>
<event>
 7    1  0.2900470E-011  0.5052886E+02  0.7816164E-02  0.1300439E+00
        -11   -1    0    0    0    0  0.00000000000E+00  0.00000000000E+00  0.45593999997E+02  0.45594000000E+02  0.51100000000E-03 0.  1.
         11   -1    0    0    0    0 -0.00000000000E+00 -0.00000000000E+00 -0.45593999997E+02  0.45594000000E+02  0.51100000000E-03 0. -1.
    9900012    2    1    2    0    0 -0.13904179977E+02  0.17618023029E+02  0.33903466528E+02  0.50528855901E+02  0.29999987995E+02 0.  0.
         12    1    1    2    0    0  0.13904179977E+02 -0.17618023029E+02 -0.33903466528E+02  0.40659144099E+02  0.00000000000E+00 0. -1.
         11    1    3    3    0    0  0.51106521075E+01  0.67462801282E+01  0.56413896729E+01  0.10171348890E+02  0.51100000000E-03 0. -1.
        -11    1    3    3    0    0 -0.21926161368E+02  0.11245161007E+02  0.20483160329E+02  0.32043252890E+02  0.51100000000E-03 0.  1.
        -12    1    3    3    0    0  0.29113292834E+01 -0.37341810626E+00  0.77789165258E+01  0.83142541213E+01  0.00000000000E+00 0.  1.
</event>
<event>
 7    1  0.2900470E-011  0.5052886E+02  0.7816164E-02  0.1300439E+00
        -11   -1    0    0    0    0  0.00000000000E+00  0.00000000000E+00  0.45593999997E+02  0.45594000000E+02  0.51100000000E-03 0.  1.
         11   -1    0    0    0    0 -0.00000000000E+00 -0.00000000000E+00 -0.45593999997E+02  0.45594000000E+02  0.51100000000E-03 0. -1.
    9900012    2    1    2    0    0 -0.28138954439E+02  0.57499494850E+01  0.28780256080E+02  0.50528858149E+02  0.29999994830E+02 0.  0.
         12    1    1    2    0    0  0.28138954439E+02 -0.57499494850E+01 -0.28780256080E+02  0.40659141851E+02  0.00000000000E+00 0. -1.
         11    1    3    3    0    0  0.27025300815E+01  0.72148604750E+01  0.81680883567E+01  0.11228336839E+02  0.51100000000E-03 0. -1.
        -11    1    3    3    0    0 -0.23588141078E+02 -0.10021874648E+01  0.83430093522E+01  0.25040179403E+02  0.51100000000E-03 0.  1.
        -12    1    3    3    0    0 -0.72533434424E+01 -0.46272352521E+00  0.12269158371E+02  0.14260341907E+02  0.00000000000E+00 0.  1.
</event>
<event>
 7    1  0.2900470E-011  0.5052885E+02  0.7816164E-02  0.1300439E+00
        -11   -1    0    0    0    0  0.00000000000E+00  0.00000000000E+00  0.45593999997E+02  0.45594000000E+02  0.51100000000E-03 0.  1.
         11   -1    0    0    0    0 -0.00000000000E+00 -0.00000000000E+00 -0.45593999997E+02  0.45594000000E+02  0.51100000000E-03 0. -1.
    9900012    2    1    2    0    0  0.12707166987E+01  0.36875761631E+02  0.17080095002E+02  0.50528853894E+02  0.29999981897E+02 0.  0.
         12    1    1    2    0    0 -0.12707166987E+01 -0.36875761631E+02 -0.17080095002E+02  0.40659146106E+02  0.00000000000E+00 0. -1.
         11    1    3    3    0    0  0.80565959007E+01  0.35534582858E+01  0.84067591176E+00  0.88454813066E+01  0.51100000000E-03 0.  1.
        -11    1    3    3    0    0 -0.10516874646E+02  0.16018997359E+02  0.14230394496E+02  0.23868746437E+02  0.51100000000E-03 0. -1.
         12    1    3    3    0    0  0.37309954440E+01  0.17303305987E+02  0.20090245935E+01  0.17814626151E+02  0.00000000000E+00 0. -1.
</event>
<event>
 7    1  0.2900470E-011  0.5052886E+02  0.7816164E-02  0.1300439E+00
        -11   -1    0    0    0    0  0.00000000000E+00  0.00000000000E+00  0.45593999997E+02  0.45594000000E+02  0.51100000000E-03 0. -1.
         11   -1    0    0    0    0 -0.00000000000E+00 -0.00000000000E+00 -0.45593999997E+02  0.45594000000E+02  0.51100000000E-03 0.  1.
    9900012    2    1    2    0    0 -0.76971984468E+01 -0.39485788062E+02 -0.58984355155E+01  0.50528857555E+02  0.29999993025E+02 0.  0.
         12    1    1    2    0    0  0.76971984468E+01  0.39485788062E+02  0.58984355155E+01  0.40659142445E+02  0.00000000000E+00 0. -1.
         11    1    3    3    0    0 -0.41107252398E+01  0.27143187530E+01  0.18537109225E+00  0.49294980467E+01  0.51100000000E-03 0. -1.
        -11    1    3    3    0    0  0.31450617616E+01 -0.30358120614E+02 -0.86837592017E+01  0.31731917289E+02  0.51100000000E-03 0.  1.
        -12    1    3    3    0    0 -0.67315349687E+01 -0.11841986201E+02  0.25999525940E+01  0.13867442219E+02  0.00000000000E+00 0.  1.
</event>
<event>
 7    1  0.2900470E-011  0.5052882E+02  0.7816164E-02  0.1300439E+00
        -11   -1    0    0    0    0  0.00000000000E+00  0.00000000000E+00  0.45593999997E+02  0.45594000000E+02  0.51100000000E-03 0.  1.
         11   -1    0    0    0    0 -0.00000000000E+00 -0.00000000000E+00 -0.45593999997E+02  0.45594000000E+02  0.51100000000E-03 0. -1.
    9900012    2    1    2    0    0 -0.35590282804E+02 -0.19292510064E+02 -0.37814681765E+01  0.50528822977E+02  0.29999887920E+02 0.  0.
         12    1    1    2    0    0  0.35590282804E+02  0.19292510064E+02  0.37814681765E+01  0.40659177023E+02  0.00000000000E+00 0. -1.
         11    1    3    3    0    0 -0.17341402712E+02  0.34117640154E+01 -0.13010424872E+01  0.17721656061E+02  0.51100000000E-03 0. -1.
        -11    1    3    3    0    0 -0.17282391730E+02 -0.16782703553E+02  0.34912786304E+01  0.24341923285E+02  0.51100000000E-03 0.  1.
         12    1    3    3    0    0 -0.96648836194E+00 -0.59215705265E+01 -0.59717043197E+01  0.84652436312E+01  0.00000000000E+00 0. -1.
</event>
<event>
 7    1  0.2900470E-011  0.5052886E+02  0.7816164E-02  0.1300439E+00
        -11   -1    0    0    0    0  0.00000000000E+00  0.00000000000E+00  0.45593999997E+02  0.45594000000E+02  0.51100000000E-03 0.  1.
         11   -1    0    0    0    0 -0.00000000000E+00 -0.00000000000E+00 -0.45593999997E+02  0.45594000000E+02  0.51100000000E-03 0. -1.
    9900012    2    1    2    0    0 -0.75315147958E+00 -0.73011589198E+01  0.39991139358E+02  0.50528863439E+02  0.30000010908E+02 0.  0.
         12    1    1    2    0    0  0.75315147958E+00  0.73011589198E+01 -0.39991139358E+02  0.40659136561E+02  0.00000000000E+00 0. -1.
         11    1    3    3    0    0 -0.26232555723E+01 -0.11957552849E+02  0.14098042992E+02  0.18671351221E+02  0.51100000000E-03 0. -1.
        -11    1    3    3    0    0  0.91956145698E+01  0.59896526540E+01  0.13477883155E+02  0.17380696213E+02  0.51100000000E-03 0.  1.
        -12    1    3    3    0    0 -0.73255104771E+01 -0.13332587247E+01  0.12415213211E+02  0.14476816005E+02  0.00000000000E+00 0.  1.
</event>
<event>
 7    1  0.2900470E-011  0.5052886E+02  0.7816164E-02  0.1300439E+00
        -11   -1    0    0    0    0  0.00000000000E+00  0.00000000000E+00  0.45593999997E+02  0.45594000000E+02  0.51100000000E-03 0.  1.
         11   -1    0    0    0    0 -0.00000000000E+00 -0.00000000000E+00 -0.45593999997E+02  0.45594000000E+02  0.51100000000E-03 0. -1.
    9900012    2    1    2    0    0 -0.20136484923E+02  0.70579742648E+01  0.34610298725E+02  0.50528858302E+02  0.29999995294E+02 0.  0.
         12    1    1    2    0    0  0.20136484923E+02 -0.70579742648E+01 -0.34610298725E+02  0.40659141698E+02  0.00000000000E+00 0. -1.
         11    1    3    3    0    0 -0.13702701468E+02  0.16806040989E+01  0.31837852781E+02  0.34702122811E+02  0.51100000000E-03 0.  1.
        -11    1    3    3    0    0 -0.58687682594E+01  0.96260705102E+01  0.16323185492E+01  0.11391581912E+02  0.51100000000E-03 0. -1.
         12    1    3    3    0    0 -0.56501519536E+00 -0.42487003444E+01  0.11401273953E+01  0.44351535785E+01  0.00000000000E+00 0. -1.
</event>
<event>
 7    1  0.2900470E-011  0.5052887E+02  0.7816164E-02  0.1300439E+00
        -11   -1    0    0    0    0  0.00000000000E+00  0.00000000000E+00  0.45593999997E+02  0.45594000000E+02  0.51100000000E-03 0. -1.
         11   -1    0    0    0    0 -0.00000000000E+00 -0.00000000000E+00 -0.45593999997E+02  0.45594000000E+02  0.51100000000E-03 0.  1.
    9900012    2    1    2    0    0  0.38444224296E+02  0.13149081630E+02  0.15192100460E+01  0.50528871522E+02  0.30000035478E+02 0.  0.
         12    1    1    2    0    0 -0.38444224296E+02 -0.13149081630E+02 -0.15192100460E+01  0.40659128478E+02  0.00000000000E+00 0. -1.
         11    1    3    3    0    0  0.99086113718E+01 -0.84176786664E+01 -0.18411118075E+01  0.13131168508E+02  0.51100000000E-03 0. -1.
        -11    1    3    3    0    0  0.60079699096E+01  0.64071594322E+01 -0.33948929044E+01  0.94166178917E+01  0.51100000000E-03 0.  1.
         12    1    3    3    0    0  0.22527643015E+02  0.15159600864E+02  0.67552147580E+01  0.27981085122E+02  0.00000000000E+00 0. -1.
</event>
<event>
 7    1  0.2900470E-011  0.5052886E+02  0.7816164E-02  0.1300439E+00
        -11   -1    0    0    0    0  0.00000000000E+00  0.00000000000E+00  0.45593999997E+02  0.45594000000E+02  0.51100000000E-03 0. -1.
         11   -1    0    0    0    0 -0.00000000000E+00 -0.00000000000E+00 -0.45593999997E+02  0.45594000000E+02  0.51100000000E-03 0.  1.
    9900012    2    1    2    0    0 -0.30805321004E+02  0.24799419844E+02 -0.94438606162E+01  0.50528861666E+02  0.30000005520E+02 0.  0.
         12    1    1    2    0    0  0.30805321004E+02 -0.24799419844E+02  0.94438606162E+01  0.40659138334E+02  0.00000000000E+00 0. -1.
         11    1    3    3    0    0 -0.93935258271E+01  0.14976172340E+02  0.90664535211E+01  0.19867678403E+02  0.51100000000E-03 0. -1.
        -11    1    3    3    0    0 -0.15562645028E+02  0.37641985898E+01 -0.12549670479E+02  0.20343533141E+02  0.51100000000E-03 0.  1.
         12    1    3    3    0    0 -0.58491501488E+01  0.60590489136E+01 -0.59606436585E+01  0.10317650121E+02  0.00000000000E+00 0. -1.
</event>
<event>
 7    1  0.2900470E-011  0.5052889E+02  0.7816164E-02  0.1300439E+00
        -11   -1    0    0    0    0  0.00000000000E+00  0.00000000000E+00  0.45593999997E+02  0.45594000000E+02  0.51100000000E-03 0.  1.
         11   -1    0    0    0    0 -0.00000000000E+00 -0.00000000000E+00 -0.45593999997E+02  0.45594000000E+02  0.51100000000E-03 0. -1.
    9900012    2    1    2    0    0  0.31544029887E+02  0.16014166295E+02  0.20042045867E+02  0.50528893441E+02  0.30000102104E+02 0.  0.
         12    1    1    2    0    0 -0.31544029887E+02 -0.16014166295E+02 -0.20042045867E+02  0.40659106559E+02  0.00000000000E+00 0. -1.
         11    1    3    3    0    0  0.24160437917E+02  0.76742235380E+01 -0.10004003144E+01  0.25369691924E+02  0.51100000000E-03 0. -1.
        -11    1    3    3    0    0  0.55617275973E+01  0.15345699584E+01  0.49871210663E+01  0.76262110917E+01  0.51100000000E-03 0.  1.
         12    1    3    3    0    0  0.18218643725E+01  0.68053727986E+01  0.16055325115E+02  0.17532990426E+02  0.00000000000E+00 0. -1.
</event>
<event>
 7    1  0.2900470E-011  0.5052886E+02  0.7816164E-02  0.1300439E+00
        -11   -1    0    0    0    0  0.00000000000E+00  0.00000000000E+00  0.45593999997E+02  0.45594000000E+02  0.51100000000E-03 0.  1.
         11   -1    0    0    0    0 -0.00000000000E+00 -0.00000000000E+00 -0.45593999997E+02  0.45594000000E+02  0.51100000000E-03 0. -1.
    9900012    2    1    2    0    0  0.36378228237E+02  0.17314469997E+02  0.54771759168E+01  0.50528858138E+02  0.29999994797E+02 0.  0.
         12    1    1    2    0    0 -0.36378228237E+02 -0.17314469997E+02 -0.54771759168E+01  0.40659141862E+02  0.00000000000E+00 0. -1.
         11    1    3    3    0    0 -0.31253581452E+00  0.66458249495E+01 -0.37592389944E+01  0.76417632764E+01  0.51100000000E-03 0. -1.
        -11    1    3    3    0    0  0.28071209288E+02  0.14388765954E+02  0.10856910400E+02  0.33360184056E+02  0.51100000000E-03 0.  1.
         12    1    3    3    0    0  0.86195547629E+01 -0.37201209062E+01 -0.16204954889E+01  0.95269108056E+01  0.00000000000E+00 0. -1.
</event>
<event>
 7    1  0.2900470E-011  0.5052891E+02  0.7816164E-02  0.1300439E+00
        -11   -1    0    0    0    0  0.00000000000E+00  0.00000000000E+00  0.45593999997E+02  0.45594000000E+02  0.51100000000E-03 0.  1.
         11   -1    0    0    0    0 -0.00000000000E+00 -0.00000000000E+00 -0.45593999997E+02  0.45594000000E+02  0.51100000000E-03 0. -1.
    9900012    2    1    2    0    0  0.78181846383E+01 -0.56967248315E+01  0.39491577491E+02  0.50528912731E+02  0.30000160737E+02 0.  0.
         12    1    1    2    0    0 -0.78181846383E+01  0.56967248315E+01 -0.39491577491E+02  0.40659087269E+02  0.00000000000E+00 0. -1.
         11    1    3    3    0    0 -0.68837876369E+01 -0.73959137218E+00  0.27677839086E+02  0.28530620470E+02  0.51100000000E-03 0.  1.
        -11    1    3    3    0    0  0.13307888302E+02 -0.74038465563E+01  0.11656552549E+02  0.19177905320E+02  0.51100000000E-03 0. -1.
         12    1    3    3    0    0  0.13940839736E+01  0.24467130970E+01  0.15718585514E+00  0.28203869411E+01  0.00000000000E+00 0. -1.
</event>
<event>
 7    1  0.2900470E-011  0.5052884E+02  0.7816164E-02  0.1300439E+00
        -11   -1    0    0    0    0  0.00000000000E+00  0.00000000000E+00  0.45593999997E+02  0.45594000000E+02  0.51100000000E-03 0.  1.
         11   -1    0    0    0    0 -0.00000000000E+00 -0.00000000000E+00 -0.45593999997E+02  0.45594000000E+02  0.51100000000E-03 0. -1.
    9900012    2    1    2    0    0 -0.23118361832E+02 -0.29339062584E+02  0.16060128844E+02  0.50528843767E+02  0.29999951114E+02 0.  0.
         12    1    1    2    0    0  0.23118361832E+02  0.29339062584E+02 -0.16060128844E+02  0.40659156233E+02  0.00000000000E+00 0. -1.
         11    1    3    3    0    0  0.23616069773E+00 -0.19361863982E+01 -0.62019244954E+01  0.65014196412E+01  0.51100000000E-03 0. -1.
        -11    1    3    3    0    0 -0.12041136316E+02 -0.86511516485E+01  0.36077439622E+01  0.15259331748E+02  0.51100000000E-03 0.  1.
         12    1    3    3    0    0 -0.11313386213E+02 -0.18751724537E+02  0.18654309377E+02  0.28768092378E+02  0.00000000000E+00 0. -1.
</event>
<event>
 7    1  0.2900470E-011  0.5052887E+02  0.7816164E-02  0.1300439E+00
        -11   -1    0    0    0    0  0.00000000000E+00  0.00000000000E+00  0.45593999997E+02  0.45594000000E+02  0.51100000000E-03 0.  1.
         11   -1    0    0    0    0 -0.00000000000E+00 -0.00000000000E+00 -0.45593999997E+02  0.45594000000E+02  0.51100000000E-03 0. -1.
    9900012    2    1    2    0    0 -0.89185092214E+01 -0.38598167380E+02  0.91545991690E+01  0.50528867966E+02  0.30000024669E+02 0.  0.
         12    1    1    2    0    0  0.89185092214E+01  0.38598167380E+02 -0.91545991690E+01  0.40659132034E+02  0.00000000000E+00 0. -1.
         11    1    3    3    0    0 -0.43821527623E+01  0.21668743564E+01  0.26385178525E+01  0.55552123297E+01  0.51100000000E-03 0. -1.
        -11    1    3    3    0    0 -0.77621986452E+01 -0.40505367378E+02  0.63936773687E+01  0.41735064691E+02  0.51100000000E-03 0.  1.
        -12    1    3    3    0    0  0.32258421861E+01 -0.25967435829E+00  0.12240394777E+00  0.32385909449E+01  0.00000000000E+00 0.  1.
</event>
<event>
 7    1  0.2900470E-011  0.5052886E+02  0.7816164E-02  0.1300439E+00
        -11   -1    0    0    0    0  0.00000000000E+00  0.00000000000E+00  0.45593999997E+02  0.45594000000E+02  0.51100000000E-03 0. -1.
         11   -1    0    0    0    0 -0.00000000000E+00 -0.00000000000E+00 -0.45593999997E+02  0.45594000000E+02  0.51100000000E-03 0.  1.
    9900012    2    1    2    0    0  0.38580499756E+02 -0.11986123615E+02 -0.45873510279E+01  0.50528856992E+02  0.29999991312E+02 0.  0.
         12    1    1    2    0    0 -0.38580499756E+02  0.11986123615E+02  0.45873510279E+01  0.40659143008E+02  0.00000000000E+00 0. -1.
         11    1    3    3    0    0 -0.31882725573E+01  0.18311190929E+01 -0.21574644657E+01  0.42629487698E+01  0.51100000000E-03 0. -1.
        -11    1    3    3    0    0  0.34546808725E+02 -0.16420007464E+02 -0.39033392238E+01  0.38449118267E+02  0.51100000000E-03 0.  1.
        -12    1    3    3    0    0  0.72219635883E+01  0.26027647560E+01  0.14734526616E+01  0.78167899544E+01  0.00000000000E+00 0.  1.
</event>
<event>
 7    1  0.2900470E-011  0.5052887E+02  0.7816164E-02  0.1300439E+00
        -11   -1    0    0    0    0  0.00000000000E+00  0.00000000000E+00  0.45593999997E+02  0.45594000000E+02  0.51100000000E-03 0.  1.
         11   -1    0    0    0    0 -0.00000000000E+00 -0.00000000000E+00 -0.45593999997E+02  0.45594000000E+02  0.51100000000E-03 0. -1.
    9900012    2    1    2    0    0  0.43506915906E+01 -0.11605367904E+02  0.38724047959E+02  0.50528868531E+02  0.30000026386E+02 0.  0.
         12    1    1    2    0    0 -0.43506915906E+01  0.11605367904E+02 -0.38724047959E+02  0.40659131469E+02  0.00000000000E+00 0. -1.
         11    1    3    3    0    0 -0.25309625777E+01 -0.28972856437E+01  0.92879556984E+00  0.39576125559E+01  0.51100000000E-03 0. -1.
        -11    1    3    3    0    0  0.35444386070E+01 -0.14265488348E+02  0.37274283975E+02  0.40067935422E+02  0.51100000000E-03 0.  1.
        -12    1    3    3    0    0  0.33372155613E+01  0.55574060880E+01  0.52096841436E+00  0.65033205532E+01  0.00000000000E+00 0.  1.
</event>
<event>
 7    1  0.2900470E-011  0.5052886E+02  0.7816164E-02  0.1300439E+00
        -11   -1    0    0    0    0  0.00000000000E+00  0.00000000000E+00  0.45593999997E+02  0.45594000000E+02  0.51100000000E-03 0. -1.
         11   -1    0    0    0    0 -0.00000000000E+00 -0.00000000000E+00 -0.45593999997E+02  0.45594000000E+02  0.51100000000E-03 0.  1.
    9900012    2    1    2    0    0 -0.32875331245E+02 -0.22213685342E+02 -0.88842900320E+01  0.50528857974E+02  0.29999994297E+02 0.  0.
         12    1    1    2    0    0  0.32875331245E+02  0.22213685342E+02  0.88842900320E+01  0.40659142026E+02  0.00000000000E+00 0. -1.
         11    1    3    3    0    0  0.26940237043E+01 -0.36860569968E+01 -0.24338223570E+01  0.51738062807E+01  0.51100000000E-03 0. -1.
        -11    1    3    3    0    0 -0.33647937330E+02 -0.20972791241E+02 -0.97404939567E+01  0.40827917922E+02  0.51100000000E-03 0.  1.
        -12    1    3    3    0    0 -0.19214176187E+01  0.24451628956E+01  0.32900262817E+01  0.45271337715E+01  0.00000000000E+00 0.  1.
</event>
<event>
 7    1  0.2900470E-011  0.5052886E+02  0.7816164E-02  0.1300439E+00
        -11   -1    0    0    0    0  0.00000000000E+00  0.00000000000E+00  0.45593999997E+02  0.45594000000E+02  0.51100000000E-03 0.  1.
         11   -1    0    0    0    0 -0.00000000000E+00 -0.00000000000E+00 -0.45593999997E+02  0.45594000000E+02  0.51100000000E-03 0. -1.
    9900012    2    1    2    0    0 -0.13438404989E+02  0.29600771077E+02  0.24420676414E+02  0.50528858180E+02  0.29999994924E+02 0.  0.
         12    1    1    2    0    0  0.13438404989E+02 -0.29600771077E+02 -0.24420676414E+02  0.40659141820E+02  0.00000000000E+00 0. -1.
         11    1    3    3    0    0 -0.12266618659E+01  0.31300141053E+02  0.17198978280E+02  0.35735254069E+02  0.51100000000E-03 0.  1.
        -11    1    3    3    0    0 -0.11708731432E+02 -0.23034335296E+01  0.73231251262E+01  0.14001012808E+02  0.51100000000E-03 0. -1.
         12    1    3    3    0    0 -0.50301169101E+00  0.60406355380E+00 -0.10142699210E+00  0.79259130266E+00  0.00000000000E+00 0. -1.
</event>
<event>
 7    1  0.2900470E-011  0.5052885E+02  0.7816164E-02  0.1300439E+00
        -11   -1    0    0    0    0  0.00000000000E+00  0.00000000000E+00  0.45593999997E+02  0.45594000000E+02  0.51100000000E-03 0.  1.
         11   -1    0    0    0    0 -0.00000000000E+00 -0.00000000000E+00 -0.45593999997E+02  0.45594000000E+02  0.51100000000E-03 0. -1.
    9900012    2    1    2    0    0  0.76407107285E-01 -0.40207842381E+02 -0.60406944396E+01  0.50528850768E+02  0.29999972393E+02 0.  0.
         12    1    1    2    0    0 -0.76407107285E-01  0.40207842381E+02  0.60406944396E+01  0.40659149232E+02  0.00000000000E+00 0. -1.
         11    1    3    3    0    0  0.68350357035E+01 -0.45941658440E+01 -0.34588919586E+01  0.89324132637E+01  0.51100000000E-03 0. -1.
        -11    1    3    3    0    0 -0.13888666098E+02 -0.24085407639E+02 -0.34365939289E+01  0.28014497768E+02  0.51100000000E-03 0.  1.
        -12    1    3    3    0    0  0.71300375019E+01 -0.11528268898E+02  0.85479144794E+00  0.13581939736E+02  0.00000000000E+00 0.  1.
</event>
<event>
 7    1  0.2900470E-011  0.5052885E+02  0.7816164E-02  0.1300439E+00
        -11   -1    0    0    0    0  0.00000000000E+00  0.00000000000E+00  0.45593999997E+02  0.45594000000E+02  0.51100000000E-03 0.  1.
         11   -1    0    0    0    0 -0.00000000000E+00 -0.00000000000E+00 -0.45593999997E+02  0.45594000000E+02  0.51100000000E-03 0. -1.
    9900012    2    1    2    0    0 -0.22336033011E+02  0.29037842391E+02  0.17637216876E+02  0.50528854897E+02  0.29999984946E+02 0.  0.
         12    1    1    2    0    0  0.22336033011E+02 -0.29037842391E+02 -0.17637216876E+02  0.40659145103E+02  0.00000000000E+00 0. -1.
         11    1    3    3    0    0 -0.17531479948E+01 -0.45587708929E+01  0.73329396491E+01  0.88106710359E+01  0.51100000000E-03 0. -1.
        -11    1    3    3    0    0 -0.18774153449E+01  0.96354652138E+01  0.43749496792E+01  0.10747421236E+02  0.51100000000E-03 0.  1.
         12    1    3    3    0    0 -0.18705469671E+02  0.23961148070E+02  0.59293275475E+01  0.30970762626E+02  0.00000000000E+00 0. -1.
</event>
<event>
 7    1  0.2900470E-011  0.5052886E+02  0.7816164E-02  0.1300439E+00
        -11   -1    0    0    0    0  0.00000000000E+00  0.00000000000E+00  0.45593999997E+02  0.45594000000E+02  0.51100000000E-03 0.  1.
         11   -1    0    0    0    0 -0.00000000000E+00 -0.00000000000E+00 -0.45593999997E+02  0.45594000000E+02  0.51100000000E-03 0. -1.
    9900012    2    1    2    0    0  0.33054061225E+01  0.32568936601E+02  0.24114405843E+02  0.50528856993E+02  0.29999991314E+02 0.  0.
         12    1    1    2    0    0 -0.33054061225E+01 -0.32568936601E+02 -0.24114405843E+02  0.40659143007E+02  0.00000000000E+00 0. -1.
         11    1    3    3    0    0  0.17298859559E+01  0.16031153743E+02  0.57073245448E+01  0.17104500854E+02  0.51100000000E-03 0. -1.
        -11    1    3    3    0    0  0.47242826805E+01 -0.29938233530E+01 -0.10332439998E+01  0.56876549244E+01  0.51100000000E-03 0.  1.
        -12    1    3    3    0    0 -0.31487625140E+01  0.19531606211E+02  0.19440325298E+02  0.27736701214E+02  0.00000000000E+00 0.  1.
</event>
<event>
 7    1  0.2900470E-011  0.5052886E+02  0.7816164E-02  0.1300439E+00
        -11   -1    0    0    0    0  0.00000000000E+00  0.00000000000E+00  0.45593999997E+02  0.45594000000E+02  0.51100000000E-03 0.  1.
         11   -1    0    0    0    0 -0.00000000000E+00 -0.00000000000E+00 -0.45593999997E+02  0.45594000000E+02  0.51100000000E-03 0. -1.
    9900012    2    1    2    0    0 -0.17086611004E+02 -0.14184679552E+01  0.36867344794E+02  0.50528862785E+02  0.30000008920E+02 0.  0.
         12    1    1    2    0    0  0.17086611004E+02  0.14184679552E+01 -0.36867344794E+02  0.40659137215E+02  0.00000000000E+00 0. -1.
         11    1    3    3    0    0 -0.76572019972E+01  0.12961129777E+02  0.15599543131E+02  0.21678777034E+02  0.51100000000E-03 0. -1.
        -11    1    3    3    0    0 -0.82077676526E+01 -0.44361997502E+01  0.12020635619E+02  0.15216537025E+02  0.51100000000E-03 0.  1.
         12    1    3    3    0    0 -0.12216413543E+01 -0.99433979821E+01  0.92471660436E+01  0.13633548726E+02  0.00000000000E+00 0. -1.
</event>
<event>
 7    1  0.2900470E-011  0.5052887E+02  0.7816164E-02  0.1300439E+00
        -11   -1    0    0    0    0  0.00000000000E+00  0.00000000000E+00  0.45593999997E+02  0.45594000000E+02  0.51100000000E-03 0.  1.
         11   -1    0    0    0    0 -0.00000000000E+00 -0.00000000000E+00 -0.45593999997E+02  0.45594000000E+02  0.51100000000E-03 0. -1.
    9900012    2    1    2    0    0  0.81696362695E+01 -0.37931959451E+02  0.12148598423E+02  0.50528868821E+02  0.30000027268E+02 0.  0.
         12    1    1    2    0    0 -0.81696362695E+01  0.37931959451E+02 -0.12148598423E+02  0.40659131179E+02  0.00000000000E+00 0. -1.
         11    1    3    3    0    0  0.86798046866E+01 -0.97496038855E+01  0.11480456479E+02  0.17383747195E+02  0.51100000000E-03 0. -1.
        -11    1    3    3    0    0  0.59506360097E+01 -0.22710889210E+02 -0.34511634751E+01  0.23729835381E+02  0.51100000000E-03 0.  1.
        -12    1    3    3    0    0 -0.64608044267E+01 -0.54714663559E+01  0.41193054193E+01  0.94152862443E+01  0.00000000000E+00 0.  1.
</event>
<event>
 7    1  0.2900470E-011  0.5052886E+02  0.7816164E-02  0.1300439E+00
        -11   -1    0    0    0    0  0.00000000000E+00  0.00000000000E+00  0.45593999997E+02  0.45594000000E+02  0.51100000000E-03 0. -1.
         11   -1    0    0    0    0 -0.00000000000E+00 -0.00000000000E+00 -0.45593999997E+02  0.45594000000E+02  0.51100000000E-03 0.  1.
    9900012    2    1    2    0    0  0.20028409481E+02 -0.24797481095E+02 -0.25241109104E+02  0.50528857808E+02  0.29999993794E+02 0.  0.
         12    1    1    2    0    0 -0.20028409481E+02  0.24797481095E+02  0.25241109104E+02  0.40659142192E+02  0.00000000000E+00 0. -1.
         11    1    3    3    0    0  0.11073293507E+01  0.47039228567E+01 -0.91444016022E+01  0.10342782481E+02  0.51100000000E-03 0. -1.
        -11    1    3    3    0    0  0.12064264014E+02 -0.17228215363E+02 -0.15478084779E+02  0.26113769921E+02  0.51100000000E-03 0.  1.
        -12    1    3    3    0    0  0.68568161164E+01 -0.12273188588E+02 -0.61862272272E+00  0.14072305406E+02  0.00000000000E+00 0.  1.
</event>
<event>
 7    1  0.2900470E-011  0.5052886E+02  0.7816164E-02  0.1300439E+00
        -11   -1    0    0    0    0  0.00000000000E+00  0.00000000000E+00  0.45593999997E+02  0.45594000000E+02  0.51100000000E-03 0.  1.
         11   -1    0    0    0    0 -0.00000000000E+00 -0.00000000000E+00 -0.45593999997E+02  0.45594000000E+02  0.51100000000E-03 0. -1.
    9900012    2    1    2    0    0 -0.55904898756E+01 -0.26976832241E+02  0.29902545265E+02  0.50528864887E+02  0.30000015311E+02 0.  0.
         12    1    1    2    0    0  0.55904898756E+01  0.26976832241E+02 -0.29902545265E+02  0.40659135113E+02  0.00000000000E+00 0. -1.
         11    1    3    3    0    0 -0.79740015082E+00 -0.18761828238E+02  0.11139175732E+01  0.18811774463E+02  0.51100000000E-03 0. -1.
        -11    1    3    3    0    0 -0.47576106535E+01 -0.71337601566E+01  0.11250558322E+02  0.14145686831E+02  0.51100000000E-03 0.  1.
         12    1    3    3    0    0 -0.35479071311E-01 -0.10812438467E+01  0.17538069369E+02  0.17571403593E+02  0.00000000000E+00 0. -1.
</event>
<event>
 7    1  0.2900470E-011  0.5052886E+02  0.7816164E-02  0.1300439E+00
        -11   -1    0    0    0    0  0.00000000000E+00  0.00000000000E+00  0.45593999997E+02  0.45594000000E+02  0.51100000000E-03 0.  1.
         11   -1    0    0    0    0 -0.00000000000E+00 -0.00000000000E+00 -0.45593999997E+02  0.45594000000E+02  0.51100000000E-03 0. -1.
    9900012    2    1    2    0    0  0.23959813531E+02 -0.32057913960E+02 -0.71682147528E+01  0.50528858166E+02  0.29999994882E+02 0.  0.
         12    1    1    2    0    0 -0.23959813531E+02  0.32057913960E+02  0.71682147528E+01  0.40659141834E+02  0.00000000000E+00 0. -1.
         11    1    3    3    0    0  0.20042522246E+02 -0.30123022909E+02  0.50336479611E+01  0.36529944145E+02  0.51100000000E-03 0.  1.
        -11    1    3    3    0    0  0.14816938768E+01  0.12778165290E+01 -0.77486437472E+01  0.79918528521E+01  0.51100000000E-03 0. -1.
        -12    1    3    3    0    0  0.24355974077E+01 -0.32127075805E+01 -0.44532189666E+01  0.60070611696E+01  0.00000000000E+00 0.  1.
</event>
<event>
 7    1  0.2900470E-011  0.5052886E+02  0.7816164E-02  0.1300439E+00
        -11   -1    0    0    0    0  0.00000000000E+00  0.00000000000E+00  0.45593999997E+02  0.45594000000E+02  0.51100000000E-03 0.  1.
         11   -1    0    0    0    0 -0.00000000000E+00 -0.00000000000E+00 -0.45593999997E+02  0.45594000000E+02  0.51100000000E-03 0. -1.
    9900012    2    1    2    0    0 -0.12560458671E+02 -0.83998467778E+00  0.38661285876E+02  0.50528859307E+02  0.29999998351E+02 0.  0.
         12    1    1    2    0    0  0.12560458671E+02  0.83998467778E+00 -0.38661285876E+02  0.40659140693E+02  0.00000000000E+00 0. -1.
         11    1    3    3    0    0 -0.88526094070E+01 -0.34264502396E+01  0.13165848239E+02  0.16231106391E+02  0.51100000000E-03 0. -1.
        -11    1    3    3    0    0  0.51645645725E+01 -0.68500793744E+01  0.46555520766E+01  0.97606598167E+01  0.51100000000E-03 0.  1.
        -12    1    3    3    0    0 -0.88724138362E+01  0.94365449362E+01  0.20839885560E+02  0.24537093100E+02  0.00000000000E+00 0.  1.
</event>
<event>
 7    1  0.2900470E-011  0.5052887E+02  0.7816164E-02  0.1300439E+00
        -11   -1    0    0    0    0  0.00000000000E+00  0.00000000000E+00  0.45593999997E+02  0.45594000000E+02  0.51100000000E-03 0. -1.
         11   -1    0    0    0    0 -0.00000000000E+00 -0.00000000000E+00 -0.45593999997E+02  0.45594000000E+02  0.51100000000E-03 0.  1.
    9900012    2    1    2    0    0  0.24441147559E+02 -0.56099433620E-01 -0.32492959427E+02  0.50528865067E+02  0.30000015858E+02 0.  0.
         12    1    1    2    0    0 -0.24441147559E+02  0.56099433620E-01  0.32492959427E+02  0.40659134933E+02  0.00000000000E+00 0. -1.
         11    1    3    3    0    0  0.51534782346E+01 -0.66552549066E+01  0.49954627177E-01  0.84174373483E+01  0.51100000000E-03 0. -1.
        -11    1    3    3    0    0  0.15066187575E+02  0.12007319175E+02 -0.19722291334E+02  0.27570536766E+02  0.51100000000E-03 0.  1.
        -12    1    3    3    0    0  0.42214817491E+01 -0.54081637017E+01 -0.12820622720E+02  0.14540890953E+02  0.00000000000E+00 0.  1.
</event>
<event>
 7    1  0.2900470E-011  0.5052886E+02  0.7816164E-02  0.1300439E+00
        -11   -1    0    0    0    0  0.00000000000E+00  0.00000000000E+00  0.45593999997E+02  0.45594000000E+02  0.51100000000E-03 0.  1.
         11   -1    0    0    0    0 -0.00000000000E+00 -0.00000000000E+00 -0.45593999997E+02  0.45594000000E+02  0.51100000000E-03 0. -1.
    9900012    2    1    2    0    0  0.33478305549E+02  0.85184491891E+01  0.21443057099E+02  0.50528860600E+02  0.30000002279E+02 0.  0.
         12    1    1    2    0    0 -0.33478305549E+02 -0.85184491891E+01 -0.21443057099E+02  0.40659139400E+02  0.00000000000E+00 0. -1.
         11    1    3    3    0    0  0.25239595993E+01 -0.18443070062E+01  0.75475052675E+01  0.81692518884E+01  0.51100000000E-03 0. -1.
        -11    1    3    3    0    0  0.22188048797E+02  0.16611857941E+02  0.45198870574E+01  0.28083673423E+02  0.51100000000E-03 0.  1.
        -12    1    3    3    0    0  0.87662971523E+01 -0.62491017454E+01  0.93756647744E+01  0.14275935288E+02  0.00000000000E+00 0.  1.
</event>
<event>
 7    1  0.2900470E-011  0.5052887E+02  0.7816164E-02  0.1300439E+00
        -11   -1    0    0    0    0  0.00000000000E+00  0.00000000000E+00  0.45593999997E+02  0.45594000000E+02  0.51100000000E-03 0.  1.
         11   -1    0    0    0    0 -0.00000000000E+00 -0.00000000000E+00 -0.45593999997E+02  0.45594000000E+02  0.51100000000E-03 0. -1.
    9900012    2    1    2    0    0 -0.14439835040E+00 -0.49935752432E+01  0.40351065207E+02  0.50528866857E+02  0.30000021299E+02 0.  0.
         12    1    1    2    0    0  0.14439835040E+00  0.49935752432E+01 -0.40351065207E+02  0.40659133143E+02  0.00000000000E+00 0. -1.
         11    1    3    3    0    0  0.48495087756E+01  0.95684898072E+01  0.14917070436E+02  0.18373696504E+02  0.51100000000E-03 0. -1.
        -11    1    3    3    0    0 -0.15953801475E+01 -0.37936404677E+01  0.18393139994E+02  0.18847932112E+02  0.51100000000E-03 0.  1.
         12    1    3    3    0    0 -0.33985269785E+01 -0.10768424583E+02  0.70408547770E+01  0.13307238241E+02  0.00000000000E+00 0. -1.
</event>
<event>
 7    1  0.2900470E-011  0.5052886E+02  0.7816164E-02  0.1300439E+00
        -11   -1    0    0    0    0  0.00000000000E+00  0.00000000000E+00  0.45593999997E+02  0.45594000000E+02  0.51100000000E-03 0. -1.
         11   -1    0    0    0    0 -0.00000000000E+00 -0.00000000000E+00 -0.45593999997E+02  0.45594000000E+02  0.51100000000E-03 0.  1.
    9900012    2    1    2    0    0  0.20716730585E+02  0.32383764834E+02  0.13239130967E+02  0.50528859088E+02  0.29999997683E+02 0.  0.
         12    1    1    2    0    0 -0.20716730585E+02 -0.32383764834E+02 -0.13239130967E+02  0.40659140912E+02  0.00000000000E+00 0. -1.
         11    1    3    3    0    0  0.16921795346E+02  0.21532324471E+02  0.18601085061E+01  0.27449010160E+02  0.51100000000E-03 0.  1.
        -11    1    3    3    0    0  0.22927300551E+01  0.10580766879E+02  0.15373866379E+02  0.18803324348E+02  0.51100000000E-03 0. -1.
        -12    1    3    3    0    0  0.15022051841E+01  0.27067348441E+00 -0.39948439180E+01  0.42765245795E+01  0.00000000000E+00 0.  1.
</event>
<event>
 7    1  0.2900470E-011  0.5052886E+02  0.7816164E-02  0.1300439E+00
        -11   -1    0    0    0    0  0.00000000000E+00  0.00000000000E+00  0.45593999997E+02  0.45594000000E+02  0.51100000000E-03 0. -1.
         11   -1    0    0    0    0 -0.00000000000E+00 -0.00000000000E+00 -0.45593999997E+02  0.45594000000E+02  0.51100000000E-03 0.  1.
    9900012    2    1    2    0    0 -0.18183815678E+02  0.31898643552E+02 -0.17463993447E+02  0.50528859820E+02  0.29999999907E+02 0.  0.
         12    1    1    2    0    0  0.18183815678E+02 -0.31898643552E+02  0.17463993447E+02  0.40659140180E+02  0.00000000000E+00 0. -1.
         11    1    3    3    0    0 -0.34578679400E+01 -0.23978883762E+01 -0.90859379746E+00  0.43049114167E+01  0.51100000000E-03 0. -1.
        -11    1    3    3    0    0 -0.40095131556E+01  0.31262911200E+02 -0.15236700121E+02  0.35008610987E+02  0.51100000000E-03 0.  1.
        -12    1    3    3    0    0 -0.10716434583E+02  0.30336207286E+01 -0.13186995287E+01  0.11215337415E+02  0.00000000000E+00 0.  1.
</event>
<event>
 7    1  0.2900470E-011  0.5052886E+02  0.7816164E-02  0.1300439E+00
        -11   -1    0    0    0    0  0.00000000000E+00  0.00000000000E+00  0.45593999997E+02  0.45594000000E+02  0.51100000000E-03 0. -1.
         11   -1    0    0    0    0 -0.00000000000E+00 -0.00000000000E+00 -0.45593999997E+02  0.45594000000E+02  0.51100000000E-03 0.  1.
    9900012    2    1    2    0    0 -0.33722598375E+02  0.22191412317E+02  0.48470074403E+01  0.50528857081E+02  0.29999991583E+02 0.  0.
         12    1    1    2    0    0  0.33722598375E+02 -0.22191412317E+02 -0.48470074403E+01  0.40659142919E+02  0.00000000000E+00 0. -1.
         11    1    3    3    0    0 -0.69347733751E+01  0.94556275423E+01  0.10217064374E+02  0.15552761127E+02  0.51100000000E-03 0. -1.
        -11    1    3    3    0    0 -0.28646308613E+02  0.10105714790E+02 -0.21983282485E+01  0.30456019371E+02  0.51100000000E-03 0.  1.
         12    1    3    3    0    0  0.18584836129E+01  0.26300699846E+01 -0.31717286854E+01  0.45200765831E+01  0.00000000000E+00 0. -1.
</event>
<event>
 7    1  0.2900470E-011  0.5052886E+02  0.7816164E-02  0.1300439E+00
        -11   -1    0    0    0    0  0.00000000000E+00  0.00000000000E+00  0.45593999997E+02  0.45594000000E+02  0.51100000000E-03 0.  1.
         11   -1    0    0    0    0 -0.00000000000E+00 -0.00000000000E+00 -0.45593999997E+02  0.45594000000E+02  0.51100000000E-03 0. -1.
    9900012    2    1    2    0    0  0.18335720465E+02  0.90498441462E+01  0.35143523465E+02  0.50528861229E+02  0.30000004192E+02 0.  0.
         12    1    1    2    0    0 -0.18335720465E+02 -0.90498441462E+01 -0.35143523465E+02  0.40659138771E+02  0.00000000000E+00 0. -1.
         11    1    3    3    0    0  0.15717989090E+01  0.92822985534E+01  0.12165359597E+01  0.94927118490E+01  0.51100000000E-03 0. -1.
        -11    1    3    3    0    0  0.11305114423E+02  0.15264537607E+01  0.33379356426E+02  0.35274879289E+02  0.51100000000E-03 0.  1.
         12    1    3    3    0    0  0.54588071333E+01 -0.17589081679E+01  0.54763107949E+00  0.57612700910E+01  0.00000000000E+00 0. -1.
</event>
<event>
 7    1  0.2900470E-011  0.5052886E+02  0.7816164E-02  0.1300439E+00
        -11   -1    0    0    0    0  0.00000000000E+00  0.00000000000E+00  0.45593999997E+02  0.45594000000E+02  0.51100000000E-03 0.  1.
         11   -1    0    0    0    0 -0.00000000000E+00 -0.00000000000E+00 -0.45593999997E+02  0.45594000000E+02  0.51100000000E-03 0. -1.
    9900012    2    1    2    0    0  0.11690655929E+02 -0.33501341231E+02  0.19853328137E+02  0.50528856645E+02  0.29999990257E+02 0.  0.
         12    1    1    2    0    0 -0.11690655929E+02  0.33501341231E+02 -0.19853328137E+02  0.40659143355E+02  0.00000000000E+00 0. -1.
         11    1    3    3    0    0  0.60188536468E+01  0.43903534428E+01  0.32287813577E+01  0.81195339701E+01  0.51100000000E-03 0. -1.
        -11    1    3    3    0    0  0.64061338920E+01 -0.33695128351E+02  0.16700127756E+02  0.38148322288E+02  0.51100000000E-03 0.  1.
        -12    1    3    3    0    0 -0.73433161016E+00 -0.41965663224E+01 -0.75580977059E-01  0.42610003868E+01  0.00000000000E+00 0.  1.
</event>
<event>
 7    1  0.2900470E-011  0.5052886E+02  0.7816164E-02  0.1300439E+00
        -11   -1    0    0    0    0  0.00000000000E+00  0.00000000000E+00  0.45593999997E+02  0.45594000000E+02  0.51100000000E-03 0. -1.
         11   -1    0    0    0    0 -0.00000000000E+00 -0.00000000000E+00 -0.45593999997E+02  0.45594000000E+02  0.51100000000E-03 0.  1.
    9900012    2    1    2    0    0 -0.37527708356E+02  0.15628983361E+02 -0.75600776671E+00  0.50528861260E+02  0.30000004286E+02 0.  0.
         12    1    1    2    0    0  0.37527708356E+02 -0.15628983361E+02  0.75600776671E+00  0.40659138740E+02  0.00000000000E+00 0. -1.
         11    1    3    3    0    0 -0.32520176376E+01  0.54510973750E+01  0.70504927926E+01  0.94868082191E+01  0.51100000000E-03 0. -1.
        -11    1    3    3    0    0 -0.31720660417E+02  0.11460107617E+02 -0.12144153146E+02  0.35847103367E+02  0.51100000000E-03 0.  1.
        -12    1    3    3    0    0 -0.25550303007E+01 -0.12822216309E+01  0.43376525868E+01  0.51949496736E+01  0.00000000000E+00 0.  1.
</event>
<event>
 7    1  0.2900470E-011  0.5052886E+02  0.7816164E-02  0.1300439E+00
        -11   -1    0    0    0    0  0.00000000000E+00  0.00000000000E+00  0.45593999997E+02  0.45594000000E+02  0.51100000000E-03 0. -1.
         11   -1    0    0    0    0 -0.00000000000E+00 -0.00000000000E+00 -0.45593999997E+02  0.45594000000E+02  0.51100000000E-03 0.  1.
    9900012    2    1    2    0    0 -0.25493507242E+02 -0.23338306502E+02 -0.21414247998E+02  0.50528862291E+02  0.30000007420E+02 0.  0.
         12    1    1    2    0    0  0.25493507242E+02  0.23338306502E+02  0.21414247998E+02  0.40659137709E+02  0.00000000000E+00 0. -1.
         11    1    3    3    0    0 -0.47442187806E+00  0.51069863063E+01  0.56860452030E+00  0.51603969433E+01  0.51100000000E-03 0. -1.
        -11    1    3    3    0    0 -0.23712042160E+01 -0.76073957170E+01 -0.88473726783E+01  0.11906766253E+02  0.51100000000E-03 0.  1.
         12    1    3    3    0    0 -0.22647881148E+02 -0.20837897092E+02 -0.13135479840E+02  0.33461699095E+02  0.00000000000E+00 0. -1.
</event>
<event>
 7    1  0.2900470E-011  0.5052887E+02  0.7816164E-02  0.1300439E+00
        -11   -1    0    0    0    0  0.00000000000E+00  0.00000000000E+00  0.45593999997E+02  0.45594000000E+02  0.51100000000E-03 0. -1.
         11   -1    0    0    0    0 -0.00000000000E+00 -0.00000000000E+00 -0.45593999997E+02  0.45594000000E+02  0.51100000000E-03 0.  1.
    9900012    2    1    2    0    0 -0.39513700898E+02 -0.83043898420E+01  0.47822224754E+01  0.50528866941E+02  0.30000021553E+02 0.  0.
         12    1    1    2    0    0  0.39513700898E+02  0.83043898420E+01 -0.47822224754E+01  0.40659133059E+02  0.00000000000E+00 0. -1.
         11    1    3    3    0    0 -0.34831233214E+02 -0.91219176997E+01  0.82329420149E+01  0.36935152961E+02  0.51100000000E-03 0. -1.
        -11    1    3    3    0    0 -0.71464874386E+01 -0.21665194584E+01 -0.54433038236E+01  0.92409764663E+01  0.51100000000E-03 0.  1.
         12    1    3    3    0    0  0.24640197544E+01  0.29840473162E+01  0.19925842842E+01  0.43527375139E+01  0.00000000000E+00 0. -1.
</event>
<event>
 7    1  0.2900470E-011  0.5052886E+02  0.7816164E-02  0.1300439E+00
        -11   -1    0    0    0    0  0.00000000000E+00  0.00000000000E+00  0.45593999997E+02  0.45594000000E+02  0.51100000000E-03 0. -1.
         11   -1    0    0    0    0 -0.00000000000E+00 -0.00000000000E+00 -0.45593999997E+02  0.45594000000E+02  0.51100000000E-03 0.  1.
    9900012    2    1    2    0    0 -0.10528059923E+02 -0.43262906961E+01 -0.39033432877E+02  0.50528859341E+02  0.29999998454E+02 0.  0.
         12    1    1    2    0    0  0.10528059923E+02  0.43262906961E+01  0.39033432877E+02  0.40659140659E+02  0.00000000000E+00 0. -1.
         11    1    3    3    0    0  0.35776251183E+01 -0.15512626929E+01  0.31242968471E+01  0.49967037614E+01  0.51100000000E-03 0. -1.
        -11    1    3    3    0    0 -0.12324140788E+01 -0.36847331948E+01 -0.14502676729E+02  0.15014117881E+02  0.51100000000E-03 0.  1.
         12    1    3    3    0    0 -0.12873270962E+02  0.90970519161E+00 -0.27655052995E+02  0.30518037699E+02  0.00000000000E+00 0. -1.
</event>
<event>
 7    1  0.2900470E-011  0.5052886E+02  0.7816164E-02  0.1300439E+00
        -11   -1    0    0    0    0  0.00000000000E+00  0.00000000000E+00  0.45593999997E+02  0.45594000000E+02  0.51100000000E-03 0.  1.
         11   -1    0    0    0    0 -0.00000000000E+00 -0.00000000000E+00 -0.45593999997E+02  0.45594000000E+02  0.51100000000E-03 0. -1.
    9900012    2    1    2    0    0 -0.19935913647E+02  0.30734640802E+02  0.17638220445E+02  0.50528860577E+02  0.30000002210E+02 0.  0.
         12    1    1    2    0    0  0.19935913647E+02 -0.30734640802E+02 -0.17638220445E+02  0.40659139423E+02  0.00000000000E+00 0. -1.
         11    1    3    3    0    0  0.53620394775E+01  0.13430730893E+02  0.49007053308E+01  0.15269345523E+02  0.51100000000E-03 0. -1.
        -11    1    3    3    0    0 -0.19397937237E+02  0.13623151412E+02  0.14874824607E+02  0.27984471244E+02  0.51100000000E-03 0.  1.
        -12    1    3    3    0    0 -0.59000158872E+01  0.36807584957E+01 -0.21373094930E+01  0.72750438103E+01  0.00000000000E+00 0.  1.
</event>
<event>
 7    1  0.2900470E-011  0.5052886E+02  0.7816164E-02  0.1300439E+00
        -11   -1    0    0    0    0  0.00000000000E+00  0.00000000000E+00  0.45593999997E+02  0.45594000000E+02  0.51100000000E-03 0.  1.
         11   -1    0    0    0    0 -0.00000000000E+00 -0.00000000000E+00 -0.45593999997E+02  0.45594000000E+02  0.51100000000E-03 0. -1.
    9900012    2    1    2    0    0  0.26393360454E+02 -0.23155242535E+02  0.20503441626E+02  0.50528857714E+02  0.29999993507E+02 0.  0.
         12    1    1    2    0    0 -0.26393360454E+02  0.23155242535E+02 -0.20503441626E+02  0.40659142286E+02  0.00000000000E+00 0. -1.
         11    1    3    3    0    0  0.18222711351E+02 -0.19238118195E+02  0.30983636279E+01  0.26679060292E+02  0.51100000000E-03 0. -1.
        -11    1    3    3    0    0 -0.11960707987E+01 -0.25277856130E+01  0.13192867235E+02  0.13485993905E+02  0.51100000000E-03 0.  1.
        -12    1    3    3    0    0  0.93667199022E+01 -0.13893387278E+01  0.42122107632E+01  0.10363803517E+02  0.00000000000E+00 0.  1.
</event>
<event>
 7    1  0.2900470E-011  0.5052886E+02  0.7816164E-02  0.1300439E+00
        -11   -1    0    0    0    0  0.00000000000E+00  0.00000000000E+00  0.45593999997E+02  0.45594000000E+02  0.51100000000E-03 0.  1.
         11   -1    0    0    0    0 -0.00000000000E+00 -0.00000000000E+00 -0.45593999997E+02  0.45594000000E+02  0.51100000000E-03 0. -1.
    9900012    2    1    2    0    0 -0.24157109339E+01 -0.37642392328E+02  0.15178285763E+02  0.50528859352E+02  0.29999998487E+02 0.  0.
         12    1    1    2    0    0  0.24157109339E+01  0.37642392328E+02 -0.15178285763E+02  0.40659140648E+02  0.00000000000E+00 0. -1.
         11    1    3    3    0    0  0.25233240611E+01 -0.11980795688E+00  0.19783064873E+01  0.32086157581E+01  0.51100000000E-03 0. -1.
        -11    1    3    3    0    0 -0.65955327259E+01 -0.35535276683E+02  0.19099441467E+02  0.40878424695E+02  0.51100000000E-03 0.  1.
        -12    1    3    3    0    0  0.16564977309E+01 -0.19873076884E+01 -0.58994621919E+01  0.64418188995E+01  0.00000000000E+00 0.  1.
</event>
<event>
 7    1  0.2900470E-011  0.5052885E+02  0.7816164E-02  0.1300439E+00
        -11   -1    0    0    0    0  0.00000000000E+00  0.00000000000E+00  0.45593999997E+02  0.45594000000E+02  0.51100000000E-03 0.  1.
         11   -1    0    0    0    0 -0.00000000000E+00 -0.00000000000E+00 -0.45593999997E+02  0.45594000000E+02  0.51100000000E-03 0. -1.
    9900012    2    1    2    0    0 -0.24102913175E+02  0.30309649237E+02  0.12391175953E+02  0.50528849714E+02  0.29999969192E+02 0.  0.
         12    1    1    2    0    0  0.24102913175E+02 -0.30309649237E+02 -0.12391175953E+02  0.40659150286E+02  0.00000000000E+00 0. -1.
         11    1    3    3    0    0  0.48870971554E+00  0.14135979974E+02  0.33664527116E+01  0.14539524447E+02  0.51100000000E-03 0. -1.
        -11    1    3    3    0    0 -0.25746210890E+02  0.11783765730E+02  0.11793150690E+02  0.30672510713E+02  0.51100000000E-03 0.  1.
        -12    1    3    3    0    0  0.11545879989E+01  0.43899035332E+01 -0.27684274480E+01  0.53168145551E+01  0.00000000000E+00 0.  1.
</event>
<event>
 7    1  0.2900470E-011  0.5052885E+02  0.7816164E-02  0.1300439E+00
        -11   -1    0    0    0    0  0.00000000000E+00  0.00000000000E+00  0.45593999997E+02  0.45594000000E+02  0.51100000000E-03 0. -1.
         11   -1    0    0    0    0 -0.00000000000E+00 -0.00000000000E+00 -0.45593999997E+02  0.45594000000E+02  0.51100000000E-03 0.  1.
    9900012    2    1    2    0    0 -0.28902748746E+02  0.86955029486E+01 -0.27243080341E+02  0.50528854865E+02  0.29999984848E+02 0.  0.
         12    1    1    2    0    0  0.28902748746E+02 -0.86955029486E+01  0.27243080341E+02  0.40659145135E+02  0.00000000000E+00 0. -1.
         11    1    3    3    0    0 -0.38249317782E+01 -0.96583986844E+01 -0.11924184717E+02  0.15814580288E+02  0.51100000000E-03 0. -1.
        -11    1    3    3    0    0 -0.98988752144E+01  0.59611232997E+01 -0.55624694796E+01  0.12824343589E+02  0.51100000000E-03 0.  1.
         12    1    3    3    0    0 -0.15178941754E+02  0.12392778333E+02 -0.97564261441E+01  0.21889930988E+02  0.00000000000E+00 0. -1.
</event>
<event>
 7    1  0.2900470E-011  0.5052891E+02  0.7816164E-02  0.1300439E+00
        -11   -1    0    0    0    0  0.00000000000E+00  0.00000000000E+00  0.45593999997E+02  0.45594000000E+02  0.51100000000E-03 0.  1.
         11   -1    0    0    0    0 -0.00000000000E+00 -0.00000000000E+00 -0.45593999997E+02  0.45594000000E+02  0.51100000000E-03 0. -1.
    9900012    2    1    2    0    0 -0.26491801282E+02  0.75688921596E+01  0.29900799751E+02  0.50528911355E+02  0.30000156554E+02 0.  0.
         12    1    1    2    0    0  0.26491801282E+02 -0.75688921596E+01 -0.29900799751E+02  0.40659088645E+02  0.00000000000E+00 0. -1.
         11    1    3    3    0    0 -0.81248810142E+01  0.13235090927E+02  0.50557054855E+01  0.16332222186E+02  0.51100000000E-03 0. -1.
        -11    1    3    3    0    0  0.65224151067E+00 -0.42078645629E+00  0.86139039291E+01  0.86488046220E+01  0.51100000000E-03 0.  1.
         12    1    3    3    0    0 -0.19019161779E+02 -0.52454123107E+01  0.16231190336E+02  0.25547884547E+02  0.00000000000E+00 0. -1.
</event>
<event>
 7    1  0.2900470E-011  0.5052886E+02  0.7816164E-02  0.1300439E+00
        -11   -1    0    0    0    0  0.00000000000E+00  0.00000000000E+00  0.45593999997E+02  0.45594000000E+02  0.51100000000E-03 0.  1.
         11   -1    0    0    0    0 -0.00000000000E+00 -0.00000000000E+00 -0.45593999997E+02  0.45594000000E+02  0.51100000000E-03 0. -1.
    9900012    2    1    2    0    0 -0.14993475803E+02 -0.35687315297E+01  0.37624801451E+02  0.50528857785E+02  0.29999993724E+02 0.  0.
         12    1    1    2    0    0  0.14993475803E+02  0.35687315297E+01 -0.37624801451E+02  0.40659142215E+02  0.00000000000E+00 0. -1.
         11    1    3    3    0    0 -0.39985263255E+01  0.91617131716E+01  0.19279662495E+02  0.21717057517E+02  0.51100000000E-03 0.  1.
        -11    1    3    3    0    0 -0.11212765662E+02 -0.12679145745E+02  0.84569310127E+01  0.18921060569E+02  0.51100000000E-03 0. -1.
         12    1    3    3    0    0  0.21781618463E+00 -0.51298955864E-01  0.98882079433E+01  0.98907396995E+01  0.00000000000E+00 0. -1.
</event>
<event>
 7    1  0.2900470E-011  0.5052886E+02  0.7816164E-02  0.1300439E+00
        -11   -1    0    0    0    0  0.00000000000E+00  0.00000000000E+00  0.45593999997E+02  0.45594000000E+02  0.51100000000E-03 0. -1.
         11   -1    0    0    0    0 -0.00000000000E+00 -0.00000000000E+00 -0.45593999997E+02  0.45594000000E+02  0.51100000000E-03 0.  1.
    9900012    2    1    2    0    0  0.35066145122E+02  0.20455259440E+02 -0.22612657198E+01  0.50528862096E+02  0.30000006826E+02 0.  0.
         12    1    1    2    0    0 -0.35066145122E+02 -0.20455259440E+02  0.22612657198E+01  0.40659137904E+02  0.00000000000E+00 0. -1.
         11    1    3    3    0    0  0.24365205248E+02  0.94254215300E+01  0.76625026461E+01  0.27225277682E+02  0.51100000000E-03 0. -1.
        -11    1    3    3    0    0 -0.24311290036E+01  0.68913109981E+01 -0.37595578187E+01  0.82179578217E+01  0.51100000000E-03 0.  1.
         12    1    3    3    0    0  0.13132068878E+02  0.41385269117E+01 -0.61642105472E+01  0.15085626592E+02  0.00000000000E+00 0. -1.
</event>
<event>
 7    1  0.2900470E-011  0.5052886E+02  0.7816164E-02  0.1300439E+00
        -11   -1    0    0    0    0  0.00000000000E+00  0.00000000000E+00  0.45593999997E+02  0.45594000000E+02  0.51100000000E-03 0. -1.
         11   -1    0    0    0    0 -0.00000000000E+00 -0.00000000000E+00 -0.45593999997E+02  0.45594000000E+02  0.51100000000E-03 0.  1.
    9900012    2    1    2    0    0 -0.79587014878E+01  0.15367485751E+02 -0.36792184415E+02  0.50528863490E+02  0.30000011065E+02 0.  0.
         12    1    1    2    0    0  0.79587014878E+01 -0.15367485751E+02  0.36792184415E+02  0.40659136510E+02  0.00000000000E+00 0. -1.
         11    1    3    3    0    0  0.62434890664E+01 -0.26069056410E+01 -0.98995678623E+01  0.11990769653E+02  0.51100000000E-03 0. -1.
        -11    1    3    3    0    0 -0.17479348046E+02  0.16363732621E+02 -0.23001908292E+02  0.33202215870E+02  0.51100000000E-03 0.  1.
        -12    1    3    3    0    0  0.32771574918E+01  0.16106587716E+01 -0.38907082613E+01  0.53358779670E+01  0.00000000000E+00 0.  1.
</event>
<event>
 7    1  0.2900470E-011  0.5052885E+02  0.7816164E-02  0.1300439E+00
        -11   -1    0    0    0    0  0.00000000000E+00  0.00000000000E+00  0.45593999997E+02  0.45594000000E+02  0.51100000000E-03 0.  1.
         11   -1    0    0    0    0 -0.00000000000E+00 -0.00000000000E+00 -0.45593999997E+02  0.45594000000E+02  0.51100000000E-03 0. -1.
    9900012    2    1    2    0    0  0.21647360625E+01 -0.33358786545E+02  0.23144587031E+02  0.50528848129E+02  0.29999964374E+02 0.  0.
         12    1    1    2    0    0 -0.21647360625E+01  0.33358786545E+02 -0.23144587031E+02  0.40659151871E+02  0.00000000000E+00 0. -1.
         11    1    3    3    0    0  0.27939762909E+01 -0.41774611488E+01  0.10405498741E+02  0.11555599919E+02  0.51100000000E-03 0. -1.
        -11    1    3    3    0    0 -0.11460394848E+02 -0.12694763860E+02  0.56385173743E+01  0.18008069246E+02  0.51100000000E-03 0.  1.
        -12    1    3    3    0    0  0.10831154620E+02 -0.16486561537E+02  0.71005709157E+01  0.20965178965E+02  0.00000000000E+00 0.  1.
</event>
<event>
 7    1  0.2900470E-011  0.5052892E+02  0.7816164E-02  0.1300439E+00
        -11   -1    0    0    0    0  0.00000000000E+00  0.00000000000E+00  0.45593999997E+02  0.45594000000E+02  0.51100000000E-03 0.  1.
         11   -1    0    0    0    0 -0.00000000000E+00 -0.00000000000E+00 -0.45593999997E+02  0.45594000000E+02  0.51100000000E-03 0. -1.
    9900012    2    1    2    0    0  0.34680087115E+02  0.20939603999E+02 -0.34620099349E+01  0.50528917734E+02  0.30000175943E+02 0.  0.
         12    1    1    2    0    0 -0.34680087115E+02 -0.20939603999E+02  0.34620099349E+01  0.40659082266E+02  0.00000000000E+00 0. -1.
         11    1    3    3    0    0  0.21548173422E+02  0.22662836223E+02 -0.58063480883E+01  0.31806313868E+02  0.51100000000E-03 0. -1.
        -11    1    3    3    0    0  0.82081240108E+00  0.10983808207E+01  0.55294049437E+01  0.56968844747E+01  0.51100000000E-03 0.  1.
         12    1    3    3    0    0  0.12311101292E+02 -0.28216130447E+01 -0.31850667903E+01  0.13025719391E+02  0.00000000000E+00 0. -1.
</event>
<event>
 7    1  0.2900470E-011  0.5052885E+02  0.7816164E-02  0.1300439E+00
        -11   -1    0    0    0    0  0.00000000000E+00  0.00000000000E+00  0.45593999997E+02  0.45594000000E+02  0.51100000000E-03 0.  1.
         11   -1    0    0    0    0 -0.00000000000E+00 -0.00000000000E+00 -0.45593999997E+02  0.45594000000E+02  0.51100000000E-03 0. -1.
    9900012    2    1    2    0    0 -0.29824524187E+02 -0.17775923696E+02  0.21158462291E+02  0.50528853025E+02  0.29999979255E+02 0.  0.
         12    1    1    2    0    0  0.29824524187E+02  0.17775923696E+02 -0.21158462291E+02  0.40659146975E+02  0.00000000000E+00 0. -1.
         11    1    3    3    0    0 -0.45128521381E+01 -0.16728964395E+02 -0.20204406950E+00  0.17328153572E+02  0.51100000000E-03 0. -1.
        -11    1    3    3    0    0 -0.17337745858E+02 -0.14532275049E+01  0.15428376556E+02  0.23253905156E+02  0.51100000000E-03 0.  1.
         12    1    3    3    0    0 -0.79739261914E+01  0.40626820449E+00  0.59321298042E+01  0.99467942963E+01  0.00000000000E+00 0. -1.
</event>
<event>
 7    1  0.3631131E-011  0.5052886E+02  0.7816164E-02  0.1300439E+00
        -11   -1    0    0    0    0  0.00000000000E+00  0.00000000000E+00  0.45593999997E+02  0.45594000000E+02  0.51100000000E-03 0.  1.
         11   -1    0    0    0    0 -0.00000000000E+00 -0.00000000000E+00 -0.45593999997E+02  0.45594000000E+02  0.51100000000E-03 0. -1.
    9900012    2    1    2    0    0  0.36249217586E+02 -0.65872262272E+01  0.17197907630E+02  0.50528863858E+02  0.30000012182E+02 0.  0.
         12    1    1    2    0    0 -0.36249217586E+02  0.65872262272E+01 -0.17197907630E+02  0.40659136142E+02  0.00000000000E+00 0. -1.
         11    1    3    3    0    0 -0.26782830244E+01  0.28373475081E+00  0.77317986072E+01  0.81874547529E+01  0.51100000000E-03 0. -1.
        -11    1    3    3    0    0  0.29093502494E+02 -0.91174983674E+01  0.10393387257E+02  0.32211537728E+02  0.51100000000E-03 0.  1.
         12    1    3    3    0    0  0.98339981160E+01  0.22465373894E+01 -0.92727823385E+00  0.10129871377E+02  0.00000000000E+00 0. -1.
</event>
<event>
 7    1  0.2900470E-011  0.5052886E+02  0.7816164E-02  0.1300439E+00
        -11   -1    0    0    0    0  0.00000000000E+00  0.00000000000E+00  0.45593999997E+02  0.45594000000E+02  0.51100000000E-03 0.  1.
         11   -1    0    0    0    0 -0.00000000000E+00 -0.00000000000E+00 -0.45593999997E+02  0.45594000000E+02  0.51100000000E-03 0. -1.
    9900012    2    1    2    0    0 -0.34230260688E+02  0.99687531210E+01  0.19546833018E+02  0.50528862447E+02  0.30000007893E+02 0.  0.
         12    1    1    2    0    0  0.34230260688E+02 -0.99687531210E+01 -0.19546833018E+02  0.40659137553E+02  0.00000000000E+00 0. -1.
         11    1    3    3    0    0 -0.30286501891E+02 -0.18794396732E+01  0.57680201568E+01  0.30888097175E+02  0.51100000000E-03 0. -1.
        -11    1    3    3    0    0  0.44120605338E+00  0.84165460730E+01  0.82307228633E+01  0.11780395142E+02  0.51100000000E-03 0.  1.
         12    1    3    3    0    0 -0.43849648502E+01  0.34316467212E+01  0.55480899982E+01  0.78603701303E+01  0.00000000000E+00 0. -1.
</event>
<event>
 7    1  0.2900470E-011  0.5052886E+02  0.7816164E-02  0.1300439E+00
        -11   -1    0    0    0    0  0.00000000000E+00  0.00000000000E+00  0.45593999997E+02  0.45594000000E+02  0.51100000000E-03 0.  1.
         11   -1    0    0    0    0 -0.00000000000E+00 -0.00000000000E+00 -0.45593999997E+02  0.45594000000E+02  0.51100000000E-03 0. -1.
    9900012    2    1    2    0    0  0.53747027749E+01 -0.38743766245E+02  0.11099492281E+02  0.50528861031E+02  0.30000003590E+02 0.  0.
         12    1    1    2    0    0 -0.53747027749E+01  0.38743766245E+02 -0.11099492281E+02  0.40659138969E+02  0.00000000000E+00 0. -1.
         11    1    3    3    0    0 -0.37082339781E+01 -0.25888342581E+02  0.39086532078E+01  0.26443049200E+02  0.51100000000E-03 0. -1.
        -11    1    3    3    0    0  0.95598552694E+01 -0.85788113700E+01 -0.28540841110E+01  0.13157987447E+02  0.51100000000E-03 0.  1.
         12    1    3    3    0    0 -0.47691851636E+00 -0.42766122948E+01  0.10044923184E+02  0.10927824384E+02  0.00000000000E+00 0. -1.
</event>
<event>
 7    1  0.2900470E-011  0.5052886E+02  0.7816164E-02  0.1300439E+00
        -11   -1    0    0    0    0  0.00000000000E+00  0.00000000000E+00  0.45593999997E+02  0.45594000000E+02  0.51100000000E-03 0. -1.
         11   -1    0    0    0    0 -0.00000000000E+00 -0.00000000000E+00 -0.45593999997E+02  0.45594000000E+02  0.51100000000E-03 0.  1.
    9900012    2    1    2    0    0 -0.21727348420E+02 -0.48162602283E+01 -0.34027807535E+02  0.50528859360E+02  0.29999998509E+02 0.  0.
         12    1    1    2    0    0  0.21727348420E+02  0.48162602283E+01  0.34027807535E+02  0.40659140640E+02  0.00000000000E+00 0. -1.
         11    1    3    3    0    0  0.29242811688E+00 -0.98464612777E+01 -0.52547041048E+01  0.11164686712E+02  0.51100000000E-03 0. -1.
        -11    1    3    3    0    0 -0.71947474264E+01  0.19945984712E+01 -0.21131305542E+02  0.22411490083E+02  0.51100000000E-03 0.  1.
        -12    1    3    3    0    0 -0.14825029110E+02  0.30356025782E+01 -0.76417978889E+01  0.16952682564E+02  0.00000000000E+00 0.  1.
</event>
<event>
 7    1  0.2900470E-011  0.5052885E+02  0.7816164E-02  0.1300439E+00
        -11   -1    0    0    0    0  0.00000000000E+00  0.00000000000E+00  0.45593999997E+02  0.45594000000E+02  0.51100000000E-03 0. -1.
         11   -1    0    0    0    0 -0.00000000000E+00 -0.00000000000E+00 -0.45593999997E+02  0.45594000000E+02  0.51100000000E-03 0.  1.
    9900012    2    1    2    0    0 -0.35342668653E+02  0.14904219090E+02 -0.13488000847E+02  0.50528854153E+02  0.29999982682E+02 0.  0.
         12    1    1    2    0    0  0.35342668653E+02 -0.14904219090E+02  0.13488000847E+02  0.40659145847E+02  0.00000000000E+00 0. -1.
         11    1    3    3    0    0 -0.60822216724E+01 -0.59022602287E+01 -0.55611913501E+01  0.10136910070E+02  0.51100000000E-03 0. -1.
        -11    1    3    3    0    0 -0.70097138320E+01  0.11671533882E+02 -0.89908390719E+01  0.16315513435E+02  0.51100000000E-03 0.  1.
        -12    1    3    3    0    0 -0.22250733149E+02  0.91349454369E+01  0.10640295752E+01  0.24076430648E+02  0.00000000000E+00 0.  1.
</event>
<event>
 7    1  0.2900470E-011  0.5052885E+02  0.7816164E-02  0.1300439E+00
        -11   -1    0    0    0    0  0.00000000000E+00  0.00000000000E+00  0.45593999997E+02  0.45594000000E+02  0.51100000000E-03 0.  1.
         11   -1    0    0    0    0 -0.00000000000E+00 -0.00000000000E+00 -0.45593999997E+02  0.45594000000E+02  0.51100000000E-03 0. -1.
    9900012    2    1    2    0    0  0.38863694716E+02 -0.51090403981E+01 -0.10801719189E+02  0.50528853450E+02  0.29999980546E+02 0.  0.
         12    1    1    2    0    0 -0.38863694716E+02  0.51090403981E+01  0.10801719189E+02  0.40659146550E+02  0.00000000000E+00 0. -1.
         11    1    3    3    0    0  0.15635455004E+01  0.45811617613E+01  0.22861121665E+00  0.48460273384E+01  0.51100000000E-03 0. -1.
        -11    1    3    3    0    0  0.28663227441E+02 -0.15502424061E+02 -0.13006061231E+02  0.35086512909E+02  0.51100000000E-03 0.  1.
        -12    1    3    3    0    0  0.86369217750E+01  0.58122219021E+01  0.19757308258E+01  0.10596313202E+02  0.00000000000E+00 0.  1.
</event>
<event>
 7    1  0.2900470E-011  0.5052889E+02  0.7816164E-02  0.1300439E+00
        -11   -1    0    0    0    0  0.00000000000E+00  0.00000000000E+00  0.45593999997E+02  0.45594000000E+02  0.51100000000E-03 0.  1.
         11   -1    0    0    0    0 -0.00000000000E+00 -0.00000000000E+00 -0.45593999997E+02  0.45594000000E+02  0.51100000000E-03 0. -1.
    9900012    2    1    2    0    0 -0.25361907108E+02  0.31573248309E+02  0.36148207440E+01  0.50528889459E+02  0.30000089999E+02 0.  0.
         12    1    1    2    0    0  0.25361907108E+02 -0.31573248309E+02 -0.36148207440E+01  0.40659110541E+02  0.00000000000E+00 0. -1.
         11    1    3    3    0    0  0.34006649721E+01  0.22495146392E+01 -0.13644309310E+01  0.42995942123E+01  0.51100000000E-03 0. -1.
        -11    1    3    3    0    0 -0.17673998401E+02  0.29689444173E+02  0.14325465034E+01  0.34581577530E+02  0.51100000000E-03 0.  1.
        -12    1    3    3    0    0 -0.11088573680E+02 -0.36571050240E+00  0.35467051715E+01  0.11647717716E+02  0.00000000000E+00 0.  1.
</event>
<event>
 7    1  0.2900470E-011  0.5052885E+02  0.7816164E-02  0.1300439E+00
        -11   -1    0    0    0    0  0.00000000000E+00  0.00000000000E+00  0.45593999997E+02  0.45594000000E+02  0.51100000000E-03 0.  1.
         11   -1    0    0    0    0 -0.00000000000E+00 -0.00000000000E+00 -0.45593999997E+02  0.45594000000E+02  0.51100000000E-03 0. -1.
    9900012    2    1    2    0    0  0.30824876105E+02 -0.25807916525E+02 -0.60782597062E+01  0.50528846254E+02  0.29999958675E+02 0.  0.
         12    1    1    2    0    0 -0.30824876105E+02  0.25807916525E+02  0.60782597062E+01  0.40659153746E+02  0.00000000000E+00 0. -1.
         11    1    3    3    0    0  0.26210137456E+02 -0.97737771548E+01 -0.10359486389E+02  0.29829800265E+02  0.51100000000E-03 0. -1.
        -11    1    3    3    0    0 -0.27650038262E+01 -0.10929819886E+02  0.25962512932E+01  0.11569214750E+02  0.51100000000E-03 0.  1.
        -12    1    3    3    0    0  0.73797424753E+01 -0.51043194838E+01  0.16849753891E+01  0.91298312392E+01  0.00000000000E+00 0.  1.
</event>
<event>
 7    1  0.2900470E-011  0.5052885E+02  0.7816164E-02  0.1300439E+00
        -11   -1    0    0    0    0  0.00000000000E+00  0.00000000000E+00  0.45593999997E+02  0.45594000000E+02  0.51100000000E-03 0. -1.
         11   -1    0    0    0    0 -0.00000000000E+00 -0.00000000000E+00 -0.45593999997E+02  0.45594000000E+02  0.51100000000E-03 0.  1.
    9900012    2    1    2    0    0  0.39113941490E+02 -0.10576446204E+02 -0.33770622406E+01  0.50528853642E+02  0.29999981130E+02 0.  0.
         12    1    1    2    0    0 -0.39113941490E+02  0.10576446204E+02  0.33770622406E+01  0.40659146358E+02  0.00000000000E+00 0. -1.
         11    1    3    3    0    0  0.24603595438E+02 -0.16978213637E+02  0.46087871693E+01  0.30246281858E+02  0.51100000000E-03 0. -1.
        -11    1    3    3    0    0  0.68585228129E+01 -0.40893355632E+00 -0.72863884354E+01  0.10014889841E+02  0.51100000000E-03 0.  1.
         12    1    3    3    0    0  0.76518232387E+01  0.68107009887E+01 -0.69946097443E+00  0.10267681943E+02  0.00000000000E+00 0. -1.
</event>
<event>
 7    1  0.2900470E-011  0.5052886E+02  0.7816164E-02  0.1300439E+00
        -11   -1    0    0    0    0  0.00000000000E+00  0.00000000000E+00  0.45593999997E+02  0.45594000000E+02  0.51100000000E-03 0. -1.
         11   -1    0    0    0    0 -0.00000000000E+00 -0.00000000000E+00 -0.45593999997E+02  0.45594000000E+02  0.51100000000E-03 0.  1.
    9900012    2    1    2    0    0 -0.16315490398E+02  0.92598300173E+01 -0.36072513202E+02  0.50528857269E+02  0.29999992156E+02 0.  0.
         12    1    1    2    0    0  0.16315490398E+02 -0.92598300173E+01  0.36072513202E+02  0.40659142731E+02  0.00000000000E+00 0. -1.
         11    1    3    3    0    0 -0.69570589020E+01 -0.50306368652E+01 -0.56858537761E+01  0.10297422457E+02  0.51100000000E-03 0. -1.
        -11    1    3    3    0    0  0.48644222224E+01  0.96795060035E+01 -0.87198382258E+01  0.13906509949E+02  0.51100000000E-03 0.  1.
         12    1    3    3    0    0 -0.14222853718E+02  0.46109608790E+01 -0.21666821200E+02  0.26324924863E+02  0.00000000000E+00 0. -1.
</event>
<event>
 7    1  0.2900470E-011  0.5052886E+02  0.7816164E-02  0.1300439E+00
        -11   -1    0    0    0    0  0.00000000000E+00  0.00000000000E+00  0.45593999997E+02  0.45594000000E+02  0.51100000000E-03 0. -1.
         11   -1    0    0    0    0 -0.00000000000E+00 -0.00000000000E+00 -0.45593999997E+02  0.45594000000E+02  0.51100000000E-03 0.  1.
    9900012    2    1    2    0    0  0.28451954945E+02  0.33582678874E+01 -0.28850896166E+02  0.50528856957E+02  0.29999991206E+02 0.  0.
         12    1    1    2    0    0 -0.28451954945E+02 -0.33582678874E+01  0.28850896166E+02  0.40659143043E+02  0.00000000000E+00 0. -1.
         11    1    3    3    0    0  0.31229500655E+02 -0.38445787127E+01 -0.25649333882E+02  0.40594960592E+02  0.51100000000E-03 0. -1.
        -11    1    3    3    0    0  0.65820171480E+00  0.24116059770E+01 -0.31712133320E+01  0.40380276304E+01  0.51100000000E-03 0.  1.
         12    1    3    3    0    0 -0.34357474245E+01  0.47912406231E+01 -0.30348952643E-01  0.58958687343E+01  0.00000000000E+00 0. -1.
</event>
<event>
 7    1  0.2900470E-011  0.5052888E+02  0.7816164E-02  0.1300439E+00
        -11   -1    0    0    0    0  0.00000000000E+00  0.00000000000E+00  0.45593999997E+02  0.45594000000E+02  0.51100000000E-03 0. -1.
         11   -1    0    0    0    0 -0.00000000000E+00 -0.00000000000E+00 -0.45593999997E+02  0.45594000000E+02  0.51100000000E-03 0.  1.
    9900012    2    1    2    0    0  0.34322715948E+02 -0.74667988790E+01 -0.20478333626E+02  0.50528879699E+02  0.30000060333E+02 0.  0.
         12    1    1    2    0    0 -0.34322715948E+02  0.74667988790E+01  0.20478333626E+02  0.40659120301E+02  0.00000000000E+00 0. -1.
         11    1    3    3    0    0  0.77926289368E+01 -0.34301287798E+01  0.45183658471E+01  0.96388007232E+01  0.51100000000E-03 0.  1.
        -11    1    3    3    0    0  0.28222671201E+02 -0.52932127066E+01 -0.25830447145E+02  0.38623170124E+02  0.51100000000E-03 0. -1.
         12    1    3    3    0    0 -0.16925841897E+01  0.12565426073E+01  0.83374767137E+00  0.22669088519E+01  0.00000000000E+00 0. -1.
</event>
<event>
 7    1  0.2900470E-011  0.5052887E+02  0.7816164E-02  0.1300439E+00
        -11   -1    0    0    0    0  0.00000000000E+00  0.00000000000E+00  0.45593999997E+02  0.45594000000E+02  0.51100000000E-03 0. -1.
         11   -1    0    0    0    0 -0.00000000000E+00 -0.00000000000E+00 -0.45593999997E+02  0.45594000000E+02  0.51100000000E-03 0.  1.
    9900012    2    1    2    0    0  0.23398481471E+02  0.31535267240E+02  0.10545294050E+02  0.50528865213E+02  0.30000016300E+02 0.  0.
         12    1    1    2    0    0 -0.23398481471E+02 -0.31535267240E+02 -0.10545294050E+02  0.40659134787E+02  0.00000000000E+00 0. -1.
         11    1    3    3    0    0  0.24149461778E+02  0.21609517821E+02  0.10815884161E+02  0.34163593415E+02  0.51100000000E-03 0. -1.
        -11    1    3    3    0    0 -0.28132757038E+01  0.12595561252E+02 -0.88494532992E+00  0.12936220929E+02  0.51100000000E-03 0.  1.
         12    1    3    3    0    0  0.20622953964E+01 -0.26698118319E+01  0.61435521834E+00  0.34290508678E+01  0.00000000000E+00 0. -1.
</event>
<event>
 7    1  0.2900470E-011  0.5052885E+02  0.7816164E-02  0.1300439E+00
        -11   -1    0    0    0    0  0.00000000000E+00  0.00000000000E+00  0.45593999997E+02  0.45594000000E+02  0.51100000000E-03 0.  1.
         11   -1    0    0    0    0 -0.00000000000E+00 -0.00000000000E+00 -0.45593999997E+02  0.45594000000E+02  0.51100000000E-03 0. -1.
    9900012    2    1    2    0    0 -0.55982064479E+01  0.12996703900E+02  0.38117081440E+02  0.50528854348E+02  0.29999983275E+02 0.  0.
         12    1    1    2    0    0  0.55982064479E+01 -0.12996703900E+02 -0.38117081440E+02  0.40659145652E+02  0.00000000000E+00 0. -1.
         11    1    3    3    0    0 -0.12315192027E+02  0.17903256030E+02  0.19195658772E+02  0.28994203681E+02  0.51100000000E-03 0. -1.
        -11    1    3    3    0    0  0.68694586834E+01 -0.38484675307E+01  0.10923623738E+02  0.13465723923E+02  0.51100000000E-03 0.  1.
         12    1    3    3    0    0 -0.15247310448E+00 -0.10580845999E+01  0.79977989302E+01  0.80689267437E+01  0.00000000000E+00 0. -1.
</event>
<event>
 7    1  0.2900470E-011  0.5052875E+02  0.7816164E-02  0.1300439E+00
        -11   -1    0    0    0    0  0.00000000000E+00  0.00000000000E+00  0.45593999997E+02  0.45594000000E+02  0.51100000000E-03 0. -1.
         11   -1    0    0    0    0 -0.00000000000E+00 -0.00000000000E+00 -0.45593999997E+02  0.45594000000E+02  0.51100000000E-03 0.  1.
    9900012    2    1    2    0    0  0.12596237529E+02  0.34599690979E+02 -0.17244444524E+02  0.50528749113E+02  0.29999663403E+02 0.  0.
         12    1    1    2    0    0 -0.12596237529E+02 -0.34599690979E+02  0.17244444524E+02  0.40659250887E+02  0.00000000000E+00 0. -1.
         11    1    3    3    0    0  0.35056547748E+01 -0.37222069281E-01 -0.62878362589E+01  0.71991586983E+01  0.51100000000E-03 0. -1.
        -11    1    3    3    0    0  0.14075417856E+02  0.32835184211E+02 -0.63039847331E+01  0.36276809862E+02  0.51100000000E-03 0.  1.
        -12    1    3    3    0    0 -0.49848351018E+01  0.18017288364E+01 -0.46526235324E+01  0.70527805528E+01  0.00000000000E+00 0.  1.
</event>
<event>
 7    1  0.2900470E-011  0.5052886E+02  0.7816164E-02  0.1300439E+00
        -11   -1    0    0    0    0  0.00000000000E+00  0.00000000000E+00  0.45593999997E+02  0.45594000000E+02  0.51100000000E-03 0.  1.
         11   -1    0    0    0    0 -0.00000000000E+00 -0.00000000000E+00 -0.45593999997E+02  0.45594000000E+02  0.51100000000E-03 0. -1.
    9900012    2    1    2    0    0  0.18430299063E+02  0.35709320743E+02  0.61914821821E+01  0.50528856341E+02  0.29999989334E+02 0.  0.
         12    1    1    2    0    0 -0.18430299063E+02 -0.35709320743E+02 -0.61914821821E+01  0.40659143659E+02  0.00000000000E+00 0. -1.
         11    1    3    3    0    0  0.33949340015E+01 -0.24622914324E+01  0.34590523478E+00  0.42081001253E+01  0.51100000000E-03 0. -1.
        -11    1    3    3    0    0  0.13796865834E+02  0.19545676463E+02  0.11867682854E+02  0.26706345160E+02  0.51100000000E-03 0.  1.
        -12    1    3    3    0    0  0.12384992280E+01  0.18625935713E+02 -0.60221059065E+01  0.19614411056E+02  0.00000000000E+00 0.  1.
</event>
<event>
 7    1  0.2900470E-011  0.5052887E+02  0.7816164E-02  0.1300439E+00
        -11   -1    0    0    0    0  0.00000000000E+00  0.00000000000E+00  0.45593999997E+02  0.45594000000E+02  0.51100000000E-03 0. -1.
         11   -1    0    0    0    0 -0.00000000000E+00 -0.00000000000E+00 -0.45593999997E+02  0.45594000000E+02  0.51100000000E-03 0.  1.
    9900012    2    1    2    0    0 -0.19101610647E+02 -0.99526640089E+01 -0.34485328249E+02  0.50528869234E+02  0.30000028524E+02 0.  0.
         12    1    1    2    0    0  0.19101610647E+02  0.99526640089E+01  0.34485328249E+02  0.40659130766E+02  0.00000000000E+00 0. -1.
         11    1    3    3    0    0 -0.21460456784E+02 -0.14140570992E+00 -0.12457812241E+02  0.24814678862E+02  0.51100000000E-03 0. -1.
        -11    1    3    3    0    0 -0.26793196723E+01 -0.65189039711E+00 -0.56106082988E+01  0.62516110516E+01  0.51100000000E-03 0.  1.
         12    1    3    3    0    0  0.50381658087E+01 -0.91593679019E+01 -0.16416907709E+02  0.19462579320E+02  0.00000000000E+00 0. -1.
</event>
<event>
 7    1  0.2900470E-011  0.5052886E+02  0.7816164E-02  0.1300439E+00
        -11   -1    0    0    0    0  0.00000000000E+00  0.00000000000E+00  0.45593999997E+02  0.45594000000E+02  0.51100000000E-03 0.  1.
         11   -1    0    0    0    0 -0.00000000000E+00 -0.00000000000E+00 -0.45593999997E+02  0.45594000000E+02  0.51100000000E-03 0. -1.
    9900012    2    1    2    0    0 -0.19693371819E+02 -0.31924717359E+02 -0.15689142041E+02  0.50528860191E+02  0.30000001036E+02 0.  0.
         12    1    1    2    0    0  0.19693371819E+02  0.31924717359E+02  0.15689142041E+02  0.40659139809E+02  0.00000000000E+00 0. -1.
         11    1    3    3    0    0 -0.12179711222E+01  0.25179186538E+01  0.10986825883E+01  0.30050743240E+01  0.51100000000E-03 0. -1.
        -11    1    3    3    0    0 -0.14694308885E+02 -0.34581947128E+02 -0.86614606035E+01  0.38559754678E+02  0.51100000000E-03 0.  1.
        -12    1    3    3    0    0 -0.37810918113E+01  0.13931111540E+00 -0.81263640261E+01  0.89640311890E+01  0.00000000000E+00 0.  1.
</event>
<event>
 7    1  0.2900470E-011  0.5052886E+02  0.7816164E-02  0.1300439E+00
        -11   -1    0    0    0    0  0.00000000000E+00  0.00000000000E+00  0.45593999997E+02  0.45594000000E+02  0.51100000000E-03 0.  1.
         11   -1    0    0    0    0 -0.00000000000E+00 -0.00000000000E+00 -0.45593999997E+02  0.45594000000E+02  0.51100000000E-03 0. -1.
    9900012    2    1    2    0    0  0.45522939803E+01 -0.18561117883E+02  0.35887700981E+02  0.50528861307E+02  0.30000004429E+02 0.  0.
         12    1    1    2    0    0 -0.45522939803E+01  0.18561117883E+02 -0.35887700981E+02  0.40659138693E+02  0.00000000000E+00 0. -1.
         11    1    3    3    0    0  0.23438642919E+01 -0.91368543195E+01  0.47937763331E+01  0.10580930889E+02  0.51100000000E-03 0. -1.
        -11    1    3    3    0    0  0.14026346851E+01  0.61295559226E+01  0.14369829299E+01  0.64500976791E+01  0.51100000000E-03 0.  1.
        -12    1    3    3    0    0  0.80579500325E+00 -0.15553819486E+02  0.29656941718E+02  0.33497832740E+02  0.00000000000E+00 0.  1.
</event>
<event>
 7    1  0.2900470E-011  0.5052885E+02  0.7816164E-02  0.1300439E+00
        -11   -1    0    0    0    0  0.00000000000E+00  0.00000000000E+00  0.45593999997E+02  0.45594000000E+02  0.51100000000E-03 0.  1.
         11   -1    0    0    0    0 -0.00000000000E+00 -0.00000000000E+00 -0.45593999997E+02  0.45594000000E+02  0.51100000000E-03 0. -1.
    9900012    2    1    2    0    0 -0.31524758103E+02 -0.12811530638E+02  0.22253550209E+02  0.50528853579E+02  0.29999980940E+02 0.  0.
         12    1    1    2    0    0  0.31524758103E+02  0.12811530638E+02 -0.22253550209E+02  0.40659146421E+02  0.00000000000E+00 0. -1.
         11    1    3    3    0    0 -0.11029846634E+02  0.69726318102E+01  0.32309342551E+01  0.13442992507E+02  0.51100000000E-03 0. -1.
        -11    1    3    3    0    0 -0.31073625587E+01 -0.12528102005E+02  0.90893275353E+01  0.15786859004E+02  0.51100000000E-03 0.  1.
        -12    1    3    3    0    0 -0.17387548910E+02 -0.72560604435E+01  0.99332884187E+01  0.21299002068E+02  0.00000000000E+00 0.  1.
</event>
<event>
 7    1  0.2900470E-011  0.5052886E+02  0.7816164E-02  0.1300439E+00
        -11   -1    0    0    0    0  0.00000000000E+00  0.00000000000E+00  0.45593999997E+02  0.45594000000E+02  0.51100000000E-03 0.  1.
         11   -1    0    0    0    0 -0.00000000000E+00 -0.00000000000E+00 -0.45593999997E+02  0.45594000000E+02  0.51100000000E-03 0. -1.
    9900012    2    1    2    0    0 -0.12117386734E+02  0.77185054541E+01  0.38036285958E+02  0.50528862808E+02  0.30000008992E+02 0.  0.
         12    1    1    2    0    0  0.12117386734E+02 -0.77185054541E+01 -0.38036285958E+02  0.40659137192E+02  0.00000000000E+00 0. -1.
         11    1    3    3    0    0 -0.89520378420E+01  0.45937213997E+01  0.27248955030E+01  0.10424313579E+02  0.51100000000E-03 0. -1.
        -11    1    3    3    0    0  0.65042866440E+01  0.13550037553E+01  0.52232817591E+01  0.84512988659E+01  0.51100000000E-03 0.  1.
        -12    1    3    3    0    0 -0.96696355356E+01  0.17697802990E+01  0.30088108696E+02  0.31653250364E+02  0.00000000000E+00 0.  1.
</event>
<event>
 7    1  0.2900470E-011  0.5052885E+02  0.7816164E-02  0.1300439E+00
        -11   -1    0    0    0    0  0.00000000000E+00  0.00000000000E+00  0.45593999997E+02  0.45594000000E+02  0.51100000000E-03 0.  1.
         11   -1    0    0    0    0 -0.00000000000E+00 -0.00000000000E+00 -0.45593999997E+02  0.45594000000E+02  0.51100000000E-03 0. -1.
    9900012    2    1    2    0    0  0.93584734910E+01 -0.63075061584E+01  0.39061504146E+02  0.50528846465E+02  0.29999959314E+02 0.  0.
         12    1    1    2    0    0 -0.93584734910E+01  0.63075061584E+01 -0.39061504146E+02  0.40659153535E+02  0.00000000000E+00 0. -1.
         11    1    3    3    0    0  0.21918914676E+01 -0.32978608407E+01 -0.73765959895E+00  0.40279543537E+01  0.51100000000E-03 0. -1.
        -11    1    3    3    0    0 -0.26734555033E+01  0.61293686416E+01  0.27463398160E+02  0.28265787854E+02  0.51100000000E-03 0.  1.
        -12    1    3    3    0    0  0.98400375268E+01 -0.91390139593E+01  0.12335765585E+02  0.18235104257E+02  0.00000000000E+00 0.  1.
</event>
<event>
 7    1  0.2900470E-011  0.5052885E+02  0.7816164E-02  0.1300439E+00
        -11   -1    0    0    0    0  0.00000000000E+00  0.00000000000E+00  0.45593999997E+02  0.45594000000E+02  0.51100000000E-03 0. -1.
         11   -1    0    0    0    0 -0.00000000000E+00 -0.00000000000E+00 -0.45593999997E+02  0.45594000000E+02  0.51100000000E-03 0.  1.
    9900012    2    1    2    0    0  0.48383891342E+00  0.22031842968E+02 -0.34169142644E+02  0.50528849570E+02  0.29999968752E+02 0.  0.
         12    1    1    2    0    0 -0.48383891342E+00 -0.22031842968E+02  0.34169142644E+02  0.40659150430E+02  0.00000000000E+00 0. -1.
         11    1    3    3    0    0 -0.91431193986E+00  0.15614020277E+02 -0.66263487060E+01  0.16986526807E+02  0.51100000000E-03 0. -1.
        -11    1    3    3    0    0  0.66376648896E+01  0.37299889436E+01 -0.26487116069E+02  0.27559730235E+02  0.51100000000E-03 0.  1.
        -12    1    3    3    0    0 -0.52395140363E+01  0.26878337479E+01 -0.10556778695E+01  0.59825925281E+01  0.00000000000E+00 0.  1.
</event>
<event>
 7    1  0.2900470E-011  0.5052886E+02  0.7816164E-02  0.1300439E+00
        -11   -1    0    0    0    0  0.00000000000E+00  0.00000000000E+00  0.45593999997E+02  0.45594000000E+02  0.51100000000E-03 0.  1.
         11   -1    0    0    0    0 -0.00000000000E+00 -0.00000000000E+00 -0.45593999997E+02  0.45594000000E+02  0.51100000000E-03 0. -1.
    9900012    2    1    2    0    0 -0.97308185801E+01  0.32261563755E+02  0.22752323394E+02  0.50528861470E+02  0.30000004925E+02 0.  0.
         12    1    1    2    0    0  0.97308185801E+01 -0.32261563755E+02 -0.22752323394E+02  0.40659138530E+02  0.00000000000E+00 0. -1.
         11    1    3    3    0    0  0.18036509879E+01 -0.40625858140E+01  0.52248038029E+01  0.68597620529E+01  0.51100000000E-03 0. -1.
        -11    1    3    3    0    0 -0.10269039868E+02  0.15026268683E+02  0.11382566743E+02  0.21466363368E+02  0.51100000000E-03 0.  1.
         12    1    3    3    0    0 -0.12654297003E+01  0.21297880886E+02  0.61449528480E+01  0.22202736049E+02  0.00000000000E+00 0. -1.
</event>
<event>
 7    1  0.2900470E-011  0.5052886E+02  0.7816164E-02  0.1300439E+00
        -11   -1    0    0    0    0  0.00000000000E+00  0.00000000000E+00  0.45593999997E+02  0.45594000000E+02  0.51100000000E-03 0.  1.
         11   -1    0    0    0    0 -0.00000000000E+00 -0.00000000000E+00 -0.45593999997E+02  0.45594000000E+02  0.51100000000E-03 0. -1.
    9900012    2    1    2    0    0  0.16714415900E+01  0.31161937422E+02  0.26063496589E+02  0.50528856928E+02  0.29999991119E+02 0.  0.
         12    1    1    2    0    0 -0.16714415900E+01 -0.31161937422E+02 -0.26063496589E+02  0.40659143072E+02  0.00000000000E+00 0. -1.
         11    1    3    3    0    0  0.58103914496E+01 -0.37655029928E+01  0.42327698469E+01  0.81151711272E+01  0.51100000000E-03 0. -1.
        -11    1    3    3    0    0 -0.20419835858E+01  0.15505772970E+02  0.15133882229E+02  0.21763112920E+02  0.51100000000E-03 0.  1.
         12    1    3    3    0    0 -0.20969662738E+01  0.19421667445E+02  0.66968445126E+01  0.20650572881E+02  0.00000000000E+00 0. -1.
</event>
<event>
 7    1  0.2900470E-011  0.5052886E+02  0.7816164E-02  0.1300439E+00
        -11   -1    0    0    0    0  0.00000000000E+00  0.00000000000E+00  0.45593999997E+02  0.45594000000E+02  0.51100000000E-03 0.  1.
         11   -1    0    0    0    0 -0.00000000000E+00 -0.00000000000E+00 -0.45593999997E+02  0.45594000000E+02  0.51100000000E-03 0. -1.
    9900012    2    1    2    0    0  0.64363443504E+01 -0.36342137773E+02  0.17058384822E+02  0.50528855897E+02  0.29999987983E+02 0.  0.
         12    1    1    2    0    0 -0.64363443504E+01  0.36342137773E+02 -0.17058384822E+02  0.40659144103E+02  0.00000000000E+00 0. -1.
         11    1    3    3    0    0  0.94740080360E+01 -0.35617992099E+02  0.11703852169E+02  0.38670122126E+02  0.51100000000E-03 0. -1.
        -11    1    3    3    0    0 -0.56010882614E+01  0.82959553553E+00 -0.68268470953E-01  0.56626035805E+01  0.51100000000E-03 0.  1.
         12    1    3    3    0    0  0.25634245759E+01 -0.15537412095E+01  0.54228011234E+01  0.61961301896E+01  0.00000000000E+00 0. -1.
</event>
<event>
 7    1  0.2900470E-011  0.5052887E+02  0.7816164E-02  0.1300439E+00
        -11   -1    0    0    0    0  0.00000000000E+00  0.00000000000E+00  0.45593999997E+02  0.45594000000E+02  0.51100000000E-03 0.  1.
         11   -1    0    0    0    0 -0.00000000000E+00 -0.00000000000E+00 -0.45593999997E+02  0.45594000000E+02  0.51100000000E-03 0. -1.
    9900012    2    1    2    0    0  0.90138910994E+01  0.20733835964E+02  0.33793828674E+02  0.50528867656E+02  0.30000023727E+02 0.  0.
         12    1    1    2    0    0 -0.90138910994E+01 -0.20733835964E+02 -0.33793828674E+02  0.40659132344E+02  0.00000000000E+00 0. -1.
         11    1    3    3    0    0 -0.34812286983E-01 -0.38063340430E+01  0.93469243434E+01  0.10092293381E+02  0.51100000000E-03 0. -1.
        -11    1    3    3    0    0  0.12552026301E+02  0.25171467695E+02  0.23741046571E+02  0.36807518835E+02  0.51100000000E-03 0.  1.
        -12    1    3    3    0    0 -0.35033229145E+01 -0.63129768832E+00  0.70585775917E+00  0.36290554406E+01  0.00000000000E+00 0.  1.
</event>
<event>
 7    1  0.2900470E-011  0.5052886E+02  0.7816164E-02  0.1300439E+00
        -11   -1    0    0    0    0  0.00000000000E+00  0.00000000000E+00  0.45593999997E+02  0.45594000000E+02  0.51100000000E-03 0.  1.
         11   -1    0    0    0    0 -0.00000000000E+00 -0.00000000000E+00 -0.45593999997E+02  0.45594000000E+02  0.51100000000E-03 0. -1.
    9900012    2    1    2    0    0 -0.19528272707E+02 -0.29825044549E+02  0.19551957174E+02  0.50528859003E+02  0.29999997426E+02 0.  0.
         12    1    1    2    0    0  0.19528272707E+02  0.29825044549E+02 -0.19551957174E+02  0.40659140997E+02  0.00000000000E+00 0. -1.
         11    1    3    3    0    0 -0.14229228014E+02 -0.21415932454E+02  0.94514543250E+01  0.27394216212E+02  0.51100000000E-03 0. -1.
        -11    1    3    3    0    0 -0.40906477801E+01  0.12650174732E+00  0.13318316110E+02  0.13932944635E+02  0.51100000000E-03 0.  1.
        -12    1    3    3    0    0 -0.12083969133E+01 -0.85356138426E+01 -0.32178132610E+01  0.92016981559E+01  0.00000000000E+00 0.  1.
</event>
<event>
 7    1  0.2900470E-011  0.5052886E+02  0.7816164E-02  0.1300439E+00
        -11   -1    0    0    0    0  0.00000000000E+00  0.00000000000E+00  0.45593999997E+02  0.45594000000E+02  0.51100000000E-03 0.  1.
         11   -1    0    0    0    0 -0.00000000000E+00 -0.00000000000E+00 -0.45593999997E+02  0.45594000000E+02  0.51100000000E-03 0. -1.
    9900012    2    1    2    0    0  0.12325703659E+02  0.24281417156E+02  0.30193631210E+02  0.50528861354E+02  0.30000004571E+02 0.  0.
         12    1    1    2    0    0 -0.12325703659E+02 -0.24281417156E+02 -0.30193631210E+02  0.40659138646E+02  0.00000000000E+00 0. -1.
         11    1    3    3    0    0 -0.48174609442E+01  0.79212886147E+01 -0.44153962187E+00  0.92816863104E+01  0.51100000000E-03 0. -1.
        -11    1    3    3    0    0  0.82095113852E+01 -0.72599708196E+00  0.76348871471E+01  0.11234529405E+02  0.51100000000E-03 0.  1.
         12    1    3    3    0    0  0.89336532178E+01  0.17086125624E+02  0.23000283685E+02  0.30012645638E+02  0.00000000000E+00 0. -1.
</event>
<event>
 7    1  0.2900470E-011  0.5052885E+02  0.7816164E-02  0.1300439E+00
        -11   -1    0    0    0    0  0.00000000000E+00  0.00000000000E+00  0.45593999997E+02  0.45594000000E+02  0.51100000000E-03 0. -1.
         11   -1    0    0    0    0 -0.00000000000E+00 -0.00000000000E+00 -0.45593999997E+02  0.45594000000E+02  0.51100000000E-03 0.  1.
    9900012    2    1    2    0    0  0.50437248529E+01 -0.37361620880E+02  0.15226175131E+02  0.50528852391E+02  0.29999977328E+02 0.  0.
         12    1    1    2    0    0 -0.50437248529E+01  0.37361620880E+02 -0.15226175131E+02  0.40659147609E+02  0.00000000000E+00 0. -1.
         11    1    3    3    0    0  0.48886367408E+01  0.41561089531E+01  0.10363627258E+01  0.64996968217E+01  0.51100000000E-03 0. -1.
        -11    1    3    3    0    0  0.14132578270E+01 -0.88420979536E+01  0.24195220894E+01  0.92754558546E+01  0.51100000000E-03 0.  1.
         12    1    3    3    0    0 -0.12581697149E+01 -0.32675631879E+02  0.11770290316E+02  0.34753699715E+02  0.00000000000E+00 0. -1.
</event>
<event>
 7    1  0.2900470E-011  0.5052885E+02  0.7816164E-02  0.1300439E+00
        -11   -1    0    0    0    0  0.00000000000E+00  0.00000000000E+00  0.45593999997E+02  0.45594000000E+02  0.51100000000E-03 0. -1.
         11   -1    0    0    0    0 -0.00000000000E+00 -0.00000000000E+00 -0.45593999997E+02  0.45594000000E+02  0.51100000000E-03 0.  1.
    9900012    2    1    2    0    0 -0.35824868277E+00 -0.16393630872E+02 -0.37206003324E+02  0.50528853937E+02  0.29999982025E+02 0.  0.
         12    1    1    2    0    0  0.35824868277E+00  0.16393630872E+02  0.37206003324E+02  0.40659146063E+02  0.00000000000E+00 0. -1.
         11    1    3    3    0    0  0.35223442147E+01 -0.15368361343E+01 -0.93137710646E+01  0.10075470499E+02  0.51100000000E-03 0. -1.
        -11    1    3    3    0    0 -0.14515340467E+02 -0.75069644244E+01 -0.16494875987E+02  0.23219185124E+02  0.51100000000E-03 0.  1.
        -12    1    3    3    0    0  0.10634747570E+02 -0.73498303137E+01 -0.11397356272E+02  0.17234198314E+02  0.00000000000E+00 0.  1.
</event>
<event>
 7    1  0.2900470E-011  0.5052887E+02  0.7816164E-02  0.1300439E+00
        -11   -1    0    0    0    0  0.00000000000E+00  0.00000000000E+00  0.45593999997E+02  0.45594000000E+02  0.51100000000E-03 0.  1.
         11   -1    0    0    0    0 -0.00000000000E+00 -0.00000000000E+00 -0.45593999997E+02  0.45594000000E+02  0.51100000000E-03 0. -1.
    9900012    2    1    2    0    0 -0.13363069374E+02 -0.20538647102E+02  0.32446223230E+02  0.50528867572E+02  0.30000023471E+02 0.  0.
         12    1    1    2    0    0  0.13363069374E+02  0.20538647102E+02 -0.32446223230E+02  0.40659132428E+02  0.00000000000E+00 0. -1.
         11    1    3    3    0    0 -0.12099440257E+01  0.12709628421E+01  0.64588444455E+01  0.66929801228E+01  0.51100000000E-03 0. -1.
        -11    1    3    3    0    0 -0.31066025551E+01 -0.18680520884E+02  0.33142836318E+01  0.19224913945E+02  0.51100000000E-03 0.  1.
        -12    1    3    3    0    0 -0.90465227935E+01 -0.31290890602E+01  0.22673095153E+02  0.24610973504E+02  0.00000000000E+00 0.  1.
</event>
<event>
 7    1  0.2900470E-011  0.5052885E+02  0.7816164E-02  0.1300439E+00
        -11   -1    0    0    0    0  0.00000000000E+00  0.00000000000E+00  0.45593999997E+02  0.45594000000E+02  0.51100000000E-03 0. -1.
         11   -1    0    0    0    0 -0.00000000000E+00 -0.00000000000E+00 -0.45593999997E+02  0.45594000000E+02  0.51100000000E-03 0.  1.
    9900012    2    1    2    0    0  0.28753888958E+02 -0.44303775668E+01 -0.28403374866E+02  0.50528854911E+02  0.29999984986E+02 0.  0.
         12    1    1    2    0    0 -0.28753888958E+02  0.44303775668E+01  0.28403374866E+02  0.40659145089E+02  0.00000000000E+00 0. -1.
         11    1    3    3    0    0  0.15232427421E+02  0.32505855560E+01  0.12962309647E+01  0.15629247153E+02  0.51100000000E-03 0. -1.
        -11    1    3    3    0    0  0.10271605980E+02 -0.77985873080E+00 -0.20550223779E+02  0.22987513277E+02  0.51100000000E-03 0.  1.
         12    1    3    3    0    0  0.32498555576E+01 -0.69011043920E+01 -0.91493820521E+01  0.11912094480E+02  0.00000000000E+00 0. -1.
</event>
<event>
 7    1  0.2900470E-011  0.5052886E+02  0.7816164E-02  0.1300439E+00
        -11   -1    0    0    0    0  0.00000000000E+00  0.00000000000E+00  0.45593999997E+02  0.45594000000E+02  0.51100000000E-03 0.  1.
         11   -1    0    0    0    0 -0.00000000000E+00 -0.00000000000E+00 -0.45593999997E+02  0.45594000000E+02  0.51100000000E-03 0. -1.
    9900012    2    1    2    0    0  0.27978308113E+00  0.23487079861E+02  0.33188019554E+02  0.50528857844E+02  0.29999993902E+02 0.  0.
         12    1    1    2    0    0 -0.27978308113E+00 -0.23487079861E+02 -0.33188019554E+02  0.40659142156E+02  0.00000000000E+00 0. -1.
         11    1    3    3    0    0  0.71710700304E+00 -0.14464970602E+01  0.21377534024E+00  0.16285872271E+01  0.51100000000E-03 0. -1.
        -11    1    3    3    0    0 -0.36732603519E+00  0.16795016174E+02  0.36384809145E+02  0.40075701285E+02  0.51100000000E-03 0.  1.
        -12    1    3    3    0    0 -0.69997886720E-01  0.81385607475E+01 -0.34105649314E+01  0.88245693320E+01  0.00000000000E+00 0.  1.
</event>
<event>
 7    1  0.2900470E-011  0.5052885E+02  0.7816164E-02  0.1300439E+00
        -11   -1    0    0    0    0  0.00000000000E+00  0.00000000000E+00  0.45593999997E+02  0.45594000000E+02  0.51100000000E-03 0. -1.
         11   -1    0    0    0    0 -0.00000000000E+00 -0.00000000000E+00 -0.45593999997E+02  0.45594000000E+02  0.51100000000E-03 0.  1.
    9900012    2    1    2    0    0 -0.21995087396E+02  0.34105565174E+02 -0.24885203561E+01  0.50528853686E+02  0.29999981264E+02 0.  0.
         12    1    1    2    0    0  0.21995087396E+02 -0.34105565174E+02  0.24885203561E+01  0.40659146314E+02  0.00000000000E+00 0. -1.
         11    1    3    3    0    0 -0.83237805527E+01  0.68929468605E+01  0.10648110736E+02  0.15171694092E+02  0.51100000000E-03 0. -1.
        -11    1    3    3    0    0 -0.50899365955E+01  0.21908198352E+02 -0.70313214996E+01  0.23565145700E+02  0.51100000000E-03 0.  1.
        -12    1    3    3    0    0 -0.85813702482E+01  0.53044199615E+01 -0.61053095921E+01  0.11792013894E+02  0.00000000000E+00 0.  1.
</event>
<event>
 7    1  0.2900470E-011  0.5052886E+02  0.7816164E-02  0.1300439E+00
        -11   -1    0    0    0    0  0.00000000000E+00  0.00000000000E+00  0.45593999997E+02  0.45594000000E+02  0.51100000000E-03 0.  1.
         11   -1    0    0    0    0 -0.00000000000E+00 -0.00000000000E+00 -0.45593999997E+02  0.45594000000E+02  0.51100000000E-03 0. -1.
    9900012    2    1    2    0    0  0.75035422848E+01 -0.39960624672E+02 -0.10475129236E+00  0.50528860267E+02  0.30000001268E+02 0.  0.
         12    1    1    2    0    0 -0.75035422848E+01  0.39960624672E+02  0.10475129236E+00  0.40659139733E+02  0.00000000000E+00 0. -1.
         11    1    3    3    0    0 -0.31569870740E+01 -0.19984496570E+02 -0.10709126560E+02  0.22891746602E+02  0.51100000000E-03 0. -1.
        -11    1    3    3    0    0  0.58056923746E+01 -0.18573634246E+02  0.11351684033E+02  0.22528796765E+02  0.51100000000E-03 0.  1.
        -12    1    3    3    0    0  0.48548369842E+01 -0.14024938565E+01 -0.74730876541E+00  0.51083169000E+01  0.00000000000E+00 0.  1.
</event>
<event>
 7    1  0.2900470E-011  0.5052886E+02  0.7816164E-02  0.1300439E+00
        -11   -1    0    0    0    0  0.00000000000E+00  0.00000000000E+00  0.45593999997E+02  0.45594000000E+02  0.51100000000E-03 0.  1.
         11   -1    0    0    0    0 -0.00000000000E+00 -0.00000000000E+00 -0.45593999997E+02  0.45594000000E+02  0.51100000000E-03 0. -1.
    9900012    2    1    2    0    0  0.31900000599E+02 -0.19696466589E+02  0.15735452809E+02  0.50528864379E+02  0.30000013766E+02 0.  0.
         12    1    1    2    0    0 -0.31900000599E+02  0.19696466589E+02 -0.15735452809E+02  0.40659135621E+02  0.00000000000E+00 0. -1.
         11    1    3    3    0    0  0.65270122440E+01  0.71760547677E+01  0.37850219311E+01  0.10412686596E+02  0.51100000000E-03 0.  1.
        -11    1    3    3    0    0  0.67000513740E+01 -0.79159967449E+01  0.82485049322E+01  0.13251095304E+02  0.51100000000E-03 0. -1.
         12    1    3    3    0    0  0.18672936982E+02 -0.18956524612E+02  0.37019259461E+01  0.26865082479E+02  0.00000000000E+00 0. -1.
</event>
<event>
 7    1  0.2900470E-011  0.5052892E+02  0.7816164E-02  0.1300439E+00
        -11   -1    0    0    0    0  0.00000000000E+00  0.00000000000E+00  0.45593999997E+02  0.45594000000E+02  0.51100000000E-03 0.  1.
         11   -1    0    0    0    0 -0.00000000000E+00 -0.00000000000E+00 -0.45593999997E+02  0.45594000000E+02  0.51100000000E-03 0. -1.
    9900012    2    1    2    0    0  0.87980369087E+01 -0.31347450646E+02  0.24353497763E+02  0.50528917759E+02  0.30000176019E+02 0.  0.
         12    1    1    2    0    0 -0.87980369087E+01  0.31347450646E+02 -0.24353497763E+02  0.40659082241E+02  0.00000000000E+00 0. -1.
         11    1    3    3    0    0  0.71809897861E+01  0.23532331281E+01  0.91514394011E+01  0.11868157559E+02  0.51100000000E-03 0. -1.
        -11    1    3    3    0    0  0.64259405331E+01 -0.20599461355E+02  0.97227879118E+01  0.23667765524E+02  0.51100000000E-03 0.  1.
         12    1    3    3    0    0 -0.48088934105E+01 -0.13101222419E+02  0.54792704497E+01  0.14992994676E+02  0.00000000000E+00 0. -1.
</event>
<event>
 7    1  0.2900470E-011  0.5052884E+02  0.7816164E-02  0.1300439E+00
        -11   -1    0    0    0    0  0.00000000000E+00  0.00000000000E+00  0.45593999997E+02  0.45594000000E+02  0.51100000000E-03 0. -1.
         11   -1    0    0    0    0 -0.00000000000E+00 -0.00000000000E+00 -0.45593999997E+02  0.45594000000E+02  0.51100000000E-03 0.  1.
    9900012    2    1    2    0    0  0.30820720258E+02 -0.42743012677E+01  0.26172144847E+02  0.50528836034E+02  0.29999927609E+02 0.  0.
         12    1    1    2    0    0 -0.30820720258E+02  0.42743012677E+01 -0.26172144847E+02  0.40659163966E+02  0.00000000000E+00 0. -1.
         11    1    3    3    0    0  0.49648089509E+01 -0.27462928447E+01  0.38762595938E+01  0.68714511573E+01  0.51100000000E-03 0. -1.
        -11    1    3    3    0    0  0.14937287725E+02 -0.12296991438E+02  0.39517981535E+01  0.19747285178E+02  0.51100000000E-03 0.  1.
        -12    1    3    3    0    0  0.10918623582E+02  0.10768983015E+02  0.18344087099E+02  0.23910099699E+02  0.00000000000E+00 0.  1.
</event>
<event>
 7    1  0.2900470E-011  0.5052886E+02  0.7816164E-02  0.1300439E+00
        -11   -1    0    0    0    0  0.00000000000E+00  0.00000000000E+00  0.45593999997E+02  0.45594000000E+02  0.51100000000E-03 0.  1.
         11   -1    0    0    0    0 -0.00000000000E+00 -0.00000000000E+00 -0.45593999997E+02  0.45594000000E+02  0.51100000000E-03 0. -1.
    9900012    2    1    2    0    0 -0.74208106478E+01 -0.26133739765E+02  0.30251034559E+02  0.50528857404E+02  0.29999992565E+02 0.  0.
         12    1    1    2    0    0  0.74208106478E+01  0.26133739765E+02 -0.30251034559E+02  0.40659142596E+02  0.00000000000E+00 0. -1.
         11    1    3    3    0    0 -0.13100669358E+02 -0.65377445324E+01  0.23006961416E+02  0.27270678669E+02  0.51100000000E-03 0. -1.
        -11    1    3    3    0    0  0.14286575731E+01 -0.13030873068E+01  0.36591974290E+01  0.41386984760E+01  0.51100000000E-03 0.  1.
         12    1    3    3    0    0  0.42512011374E+01 -0.18292907925E+02  0.35848757141E+01  0.19119480259E+02  0.00000000000E+00 0. -1.
</event>
<event>
 7    1  0.2900470E-011  0.5052885E+02  0.7816164E-02  0.1300439E+00
        -11   -1    0    0    0    0  0.00000000000E+00  0.00000000000E+00  0.45593999997E+02  0.45594000000E+02  0.51100000000E-03 0.  1.
         11   -1    0    0    0    0 -0.00000000000E+00 -0.00000000000E+00 -0.45593999997E+02  0.45594000000E+02  0.51100000000E-03 0. -1.
    9900012    2    1    2    0    0  0.38112892518E+02  0.12407385106E+02  0.68286801243E+01  0.50528847851E+02  0.29999963528E+02 0.  0.
         12    1    1    2    0    0 -0.38112892518E+02 -0.12407385106E+02 -0.68286801243E+01  0.40659152149E+02  0.00000000000E+00 0. -1.
         11    1    3    3    0    0  0.20434058071E+01  0.48616316493E+01 -0.82778396036E+01  0.98149680769E+01  0.51100000000E-03 0. -1.
        -11    1    3    3    0    0  0.30042633768E+02  0.84173086358E+01  0.99891714510E+01  0.32759647051E+02  0.51100000000E-03 0.  1.
         12    1    3    3    0    0  0.60268529430E+01 -0.87155517943E+00  0.51173482769E+01  0.79542327231E+01  0.00000000000E+00 0. -1.
</event>
<event>
 7    1  0.2900470E-011  0.5052890E+02  0.7816164E-02  0.1300439E+00
        -11   -1    0    0    0    0  0.00000000000E+00  0.00000000000E+00  0.45593999997E+02  0.45594000000E+02  0.51100000000E-03 0.  1.
         11   -1    0    0    0    0 -0.00000000000E+00 -0.00000000000E+00 -0.45593999997E+02  0.45594000000E+02  0.51100000000E-03 0. -1.
    9900012    2    1    2    0    0  0.81051114885E+01  0.37406792199E+02  0.13718644498E+02  0.50528903334E+02  0.30000132174E+02 0.  0.
         12    1    1    2    0    0 -0.81051114885E+01 -0.37406792199E+02 -0.13718644498E+02  0.40659096666E+02  0.00000000000E+00 0. -1.
         11    1    3    3    0    0  0.14178541878E+02  0.29230298530E+02  0.76760977497E+01  0.33382089192E+02  0.51100000000E-03 0. -1.
        -11    1    3    3    0    0 -0.40973467047E+01  0.79357576319E+01 -0.17526515536E+01  0.91014442228E+01  0.51100000000E-03 0.  1.
         12    1    3    3    0    0 -0.19760836843E+01  0.24073603685E+00  0.77951983017E+01  0.80453699188E+01  0.00000000000E+00 0. -1.
</event>
<event>
 7    1  0.2900470E-011  0.5052888E+02  0.7816164E-02  0.1300439E+00
        -11   -1    0    0    0    0  0.00000000000E+00  0.00000000000E+00  0.45593999997E+02  0.45594000000E+02  0.51100000000E-03 0.  1.
         11   -1    0    0    0    0 -0.00000000000E+00 -0.00000000000E+00 -0.45593999997E+02  0.45594000000E+02  0.51100000000E-03 0. -1.
    9900012    2    1    2    0    0 -0.11874006043E+02  0.35618661976E+02  0.15603929288E+02  0.50528884052E+02  0.30000073563E+02 0.  0.
         12    1    1    2    0    0  0.11874006043E+02 -0.35618661976E+02 -0.15603929288E+02  0.40659115948E+02  0.00000000000E+00 0. -1.
         11    1    3    3    0    0 -0.13071860064E+02  0.94963893392E+00  0.30788202348E+01  0.13463078175E+02  0.51100000000E-03 0. -1.
        -11    1    3    3    0    0  0.12567539984E+01  0.15778020615E+02  0.75161713542E+01  0.17521934745E+02  0.51100000000E-03 0.  1.
         12    1    3    3    0    0 -0.58899977035E-01  0.18891002428E+02  0.50089376988E+01  0.19543871132E+02  0.00000000000E+00 0. -1.
</event>
<event>
 7    1  0.2900470E-011  0.5052886E+02  0.7816164E-02  0.1300439E+00
        -11   -1    0    0    0    0  0.00000000000E+00  0.00000000000E+00  0.45593999997E+02  0.45594000000E+02  0.51100000000E-03 0.  1.
         11   -1    0    0    0    0 -0.00000000000E+00 -0.00000000000E+00 -0.45593999997E+02  0.45594000000E+02  0.51100000000E-03 0. -1.
    9900012    2    1    2    0    0 -0.93562005187E+01  0.48655732971E+00  0.39565016691E+02  0.50528858691E+02  0.29999996478E+02 0.  0.
         12    1    1    2    0    0  0.93562005187E+01 -0.48655732971E+00 -0.39565016691E+02  0.40659141309E+02  0.00000000000E+00 0. -1.
         11    1    3    3    0    0 -0.28030720562E+01 -0.21453674164E+01 -0.26578577440E+01  0.44185995918E+01  0.51100000000E-03 0. -1.
        -11    1    3    3    0    0 -0.16042176948E+01 -0.70029931662E+00  0.39522780573E+02  0.39561523202E+02  0.51100000000E-03 0.  1.
        -12    1    3    3    0    0 -0.49489107677E+01  0.33322240628E+01  0.27000938620E+01  0.65487358975E+01  0.00000000000E+00 0.  1.
</event>
<event>
 7    1  0.2900470E-011  0.5052883E+02  0.7816164E-02  0.1300439E+00
        -11   -1    0    0    0    0  0.00000000000E+00  0.00000000000E+00  0.45593999997E+02  0.45594000000E+02  0.51100000000E-03 0. -1.
         11   -1    0    0    0    0 -0.00000000000E+00 -0.00000000000E+00 -0.45593999997E+02  0.45594000000E+02  0.51100000000E-03 0.  1.
    9900012    2    1    2    0    0 -0.21155181850E+02 -0.16133462160E+01 -0.34684626551E+02  0.50528832226E+02  0.29999916033E+02 0.  0.
         12    1    1    2    0    0  0.21155181850E+02  0.16133462160E+01  0.34684626551E+02  0.40659167774E+02  0.00000000000E+00 0. -1.
         11    1    3    3    0    0 -0.26577534643E+01  0.72854515517E+01  0.10422589648E+01  0.78248170458E+01  0.51100000000E-03 0. -1.
        -11    1    3    3    0    0 -0.59111964757E+01 -0.48927783678E+01 -0.23441187464E+02  0.24665173706E+02  0.51100000000E-03 0.  1.
         12    1    3    3    0    0 -0.12586231910E+02 -0.40060193999E+01 -0.12285698052E+02  0.18038841474E+02  0.00000000000E+00 0. -1.
</event>
<event>
 7    1  0.2900470E-011  0.5052886E+02  0.7816164E-02  0.1300439E+00
        -11   -1    0    0    0    0  0.00000000000E+00  0.00000000000E+00  0.45593999997E+02  0.45594000000E+02  0.51100000000E-03 0.  1.
         11   -1    0    0    0    0 -0.00000000000E+00 -0.00000000000E+00 -0.45593999997E+02  0.45594000000E+02  0.51100000000E-03 0. -1.
    9900012    2    1    2    0    0  0.51932384547E+01  0.85956581824E+01  0.39399370016E+02  0.50528862984E+02  0.30000009527E+02 0.  0.
         12    1    1    2    0    0 -0.51932384547E+01 -0.85956581824E+01 -0.39399370016E+02  0.40659137016E+02  0.00000000000E+00 0. -1.
         11    1    3    3    0    0  0.61110637305E+01 -0.14428458485E+01  0.10060594810E+02  0.11859277897E+02  0.51100000000E-03 0. -1.
        -11    1    3    3    0    0 -0.94060256166E+01 -0.20980141539E+01  0.16308545655E+02  0.18943168767E+02  0.51100000000E-03 0.  1.
        -12    1    3    3    0    0  0.84882003408E+01  0.12136518185E+02  0.13030229551E+02  0.19726416320E+02  0.00000000000E+00 0.  1.
</event>
<event>
 7    1  0.2900470E-011  0.5052887E+02  0.7816164E-02  0.1300439E+00
        -11   -1    0    0    0    0  0.00000000000E+00  0.00000000000E+00  0.45593999997E+02  0.45594000000E+02  0.51100000000E-03 0.  1.
         11   -1    0    0    0    0 -0.00000000000E+00 -0.00000000000E+00 -0.45593999997E+02  0.45594000000E+02  0.51100000000E-03 0. -1.
    9900012    2    1    2    0    0  0.27889158024E+02  0.29454842410E+02 -0.27877935768E+01  0.50528872246E+02  0.30000037678E+02 0.  0.
         12    1    1    2    0    0 -0.27889158024E+02 -0.29454842410E+02  0.27877935768E+01  0.40659127754E+02  0.00000000000E+00 0. -1.
         11    1    3    3    0    0  0.26782168905E+02  0.28364430192E+02  0.51431252618E+01  0.39348153820E+02  0.51100000000E-03 0.  1.
        -11    1    3    3    0    0  0.26115007081E+01  0.76091223713E+00 -0.89365230515E+01  0.93413258102E+01  0.51100000000E-03 0. -1.
        -12    1    3    3    0    0 -0.15045115889E+01  0.32949998160E+00  0.10056042129E+01  0.18393926149E+01  0.00000000000E+00 0.  1.
</event>
<event>
 7    1  0.2900470E-011  0.5052886E+02  0.7816164E-02  0.1300439E+00
        -11   -1    0    0    0    0  0.00000000000E+00  0.00000000000E+00  0.45593999997E+02  0.45594000000E+02  0.51100000000E-03 0. -1.
         11   -1    0    0    0    0 -0.00000000000E+00 -0.00000000000E+00 -0.45593999997E+02  0.45594000000E+02  0.51100000000E-03 0.  1.
    9900012    2    1    2    0    0  0.32108336072E+02 -0.89864364897E+01  0.23269385244E+02  0.50528861105E+02  0.30000003814E+02 0.  0.
         12    1    1    2    0    0 -0.32108336072E+02  0.89864364897E+01 -0.23269385244E+02  0.40659138895E+02  0.00000000000E+00 0. -1.
         11    1    3    3    0    0  0.12114675355E+02 -0.14039675239E+02  0.12788300825E+02  0.22525951213E+02  0.51100000000E-03 0. -1.
        -11    1    3    3    0    0  0.18345478443E+02  0.63394883522E+01  0.22845244576E+01  0.19543918342E+02  0.51100000000E-03 0.  1.
        -12    1    3    3    0    0  0.16481822731E+01 -0.12862496028E+01  0.81965599615E+01  0.84589915503E+01  0.00000000000E+00 0.  1.
</event>
<event>
 7    1  0.2900470E-011  0.5052886E+02  0.7816164E-02  0.1300439E+00
        -11   -1    0    0    0    0  0.00000000000E+00  0.00000000000E+00  0.45593999997E+02  0.45594000000E+02  0.51100000000E-03 0. -1.
         11   -1    0    0    0    0 -0.00000000000E+00 -0.00000000000E+00 -0.45593999997E+02  0.45594000000E+02  0.51100000000E-03 0.  1.
    9900012    2    1    2    0    0  0.35466682556E+02 -0.18282613743E+02  0.78119041210E+01  0.50528863478E+02  0.30000011026E+02 0.  0.
         12    1    1    2    0    0 -0.35466682556E+02  0.18282613743E+02 -0.78119041210E+01  0.40659136522E+02  0.00000000000E+00 0. -1.
         11    1    3    3    0    0  0.13937557700E+02 -0.63923281584E+01  0.14214101378E+02  0.20908324949E+02  0.51100000000E-03 0. -1.
        -11    1    3    3    0    0  0.13010868895E+02 -0.14947354746E+02 -0.35560866466E+01  0.20133352324E+02  0.51100000000E-03 0.  1.
         12    1    3    3    0    0  0.85182559607E+01  0.30570691616E+01 -0.28461106108E+01  0.94871862045E+01  0.00000000000E+00 0. -1.
</event>
<event>
 7    1  0.2900470E-011  0.5052885E+02  0.7816164E-02  0.1300439E+00
        -11   -1    0    0    0    0  0.00000000000E+00  0.00000000000E+00  0.45593999997E+02  0.45594000000E+02  0.51100000000E-03 0.  1.
         11   -1    0    0    0    0 -0.00000000000E+00 -0.00000000000E+00 -0.45593999997E+02  0.45594000000E+02  0.51100000000E-03 0. -1.
    9900012    2    1    2    0    0 -0.74724277317E+01 -0.25288368516E+02  0.30948786558E+02  0.50528854069E+02  0.29999982427E+02 0.  0.
         12    1    1    2    0    0  0.74724277317E+01  0.25288368516E+02 -0.30948786558E+02  0.40659145931E+02  0.00000000000E+00 0. -1.
         11    1    3    3    0    0  0.22835835605E+01 -0.17571863455E+02  0.20787292158E+02  0.27314769900E+02  0.51100000000E-03 0. -1.
        -11    1    3    3    0    0 -0.58675179124E+01 -0.92320511988E+01 -0.13005527144E+01  0.11015896396E+02  0.51100000000E-03 0.  1.
        -12    1    3    3    0    0 -0.38884933798E+01  0.15155461377E+01  0.11462047115E+02  0.12198187772E+02  0.00000000000E+00 0.  1.
</event>
<event>
 7    1  0.2900470E-011  0.5052887E+02  0.7816164E-02  0.1300439E+00
        -11   -1    0    0    0    0  0.00000000000E+00  0.00000000000E+00  0.45593999997E+02  0.45594000000E+02  0.51100000000E-03 0.  1.
         11   -1    0    0    0    0 -0.00000000000E+00 -0.00000000000E+00 -0.45593999997E+02  0.45594000000E+02  0.51100000000E-03 0. -1.
    9900012    2    1    2    0    0  0.39570451526E+02 -0.72955376524E+01  0.58411973379E+01  0.50528867078E+02  0.30000021971E+02 0.  0.
         12    1    1    2    0    0 -0.39570451526E+02  0.72955376524E+01 -0.58411973379E+01  0.40659132922E+02  0.00000000000E+00 0. -1.
         11    1    3    3    0    0 -0.36156237279E+01 -0.19990602568E+01  0.40528708985E+01  0.57874640070E+01  0.51100000000E-03 0. -1.
        -11    1    3    3    0    0  0.27534188448E+02 -0.81364678208E+01  0.24861508365E+01  0.28818650009E+02  0.51100000000E-03 0.  1.
         12    1    3    3    0    0  0.15651886805E+02  0.28399904251E+01 -0.69782439709E+00  0.15922753062E+02  0.00000000000E+00 0. -1.
</event>
<event>
 7    1  0.2900470E-011  0.5052886E+02  0.7816164E-02  0.1300439E+00
        -11   -1    0    0    0    0  0.00000000000E+00  0.00000000000E+00  0.45593999997E+02  0.45594000000E+02  0.51100000000E-03 0.  1.
         11   -1    0    0    0    0 -0.00000000000E+00 -0.00000000000E+00 -0.45593999997E+02  0.45594000000E+02  0.51100000000E-03 0. -1.
    9900012    2    1    2    0    0  0.40613829499E+02 -0.17448554989E+01  0.79850207357E+00  0.50528864829E+02  0.30000015133E+02 0.  0.
         12    1    1    2    0    0 -0.40613829499E+02  0.17448554989E+01 -0.79850207357E+00  0.40659135171E+02  0.00000000000E+00 0. -1.
         11    1    3    3    0    0  0.32876625397E+02 -0.13385201176E+02  0.27806966577E+01  0.35605735243E+02  0.51100000000E-03 0. -1.
        -11    1    3    3    0    0 -0.25226959597E+00  0.26552890769E+01 -0.10400208855E+01  0.28628384052E+01  0.51100000000E-03 0.  1.
         12    1    3    3    0    0  0.79894736978E+01  0.89850566001E+01 -0.94217369866E+00  0.12060291180E+02  0.00000000000E+00 0. -1.
</event>
<event>
 7    1  0.2900470E-011  0.5052884E+02  0.7816164E-02  0.1300439E+00
        -11   -1    0    0    0    0  0.00000000000E+00  0.00000000000E+00  0.45593999997E+02  0.45594000000E+02  0.51100000000E-03 0. -1.
         11   -1    0    0    0    0 -0.00000000000E+00 -0.00000000000E+00 -0.45593999997E+02  0.45594000000E+02  0.51100000000E-03 0.  1.
    9900012    2    1    2    0    0 -0.31083008709E+02 -0.25286284987E+02 -0.69005331681E+01  0.50528843628E+02  0.29999950691E+02 0.  0.
         12    1    1    2    0    0  0.31083008709E+02  0.25286284987E+02  0.69005331681E+01  0.40659156372E+02  0.00000000000E+00 0. -1.
         11    1    3    3    0    0 -0.42989987297E+01 -0.32048342756E+01  0.57493843123E+01  0.78617919741E+01  0.51100000000E-03 0. -1.
        -11    1    3    3    0    0 -0.90304614944E+01 -0.30434787958E+01 -0.13613966509E+02  0.16617824237E+02  0.51100000000E-03 0.  1.
        -12    1    3    3    0    0 -0.17753548485E+02 -0.19037971916E+02  0.96404902891E+00  0.26049227417E+02  0.00000000000E+00 0.  1.
</event>
<event>
 7    1  0.2900470E-011  0.5052885E+02  0.7816164E-02  0.1300439E+00
        -11   -1    0    0    0    0  0.00000000000E+00  0.00000000000E+00  0.45593999997E+02  0.45594000000E+02  0.51100000000E-03 0.  1.
         11   -1    0    0    0    0 -0.00000000000E+00 -0.00000000000E+00 -0.45593999997E+02  0.45594000000E+02  0.51100000000E-03 0. -1.
    9900012    2    1    2    0    0 -0.39680721486E+02  0.37005247068E+01 -0.80568390535E+01  0.50528853473E+02  0.29999980617E+02 0.  0.
         12    1    1    2    0    0  0.39680721486E+02 -0.37005247068E+01  0.80568390535E+01  0.40659146527E+02  0.00000000000E+00 0. -1.
         11    1    3    3    0    0 -0.22956129827E+01  0.73994850776E+01 -0.48657516053E+01  0.91486478414E+01  0.51100000000E-03 0. -1.
        -11    1    3    3    0    0 -0.19421452521E+02 -0.10464467229E+02 -0.16268052850E+01  0.22121129901E+02  0.51100000000E-03 0.  1.
         12    1    3    3    0    0 -0.17963655982E+02  0.67655068585E+01 -0.15642821631E+01  0.19259075730E+02  0.00000000000E+00 0. -1.
</event>
<event>
 7    1  0.2900470E-011  0.5052887E+02  0.7816164E-02  0.1300439E+00
        -11   -1    0    0    0    0  0.00000000000E+00  0.00000000000E+00  0.45593999997E+02  0.45594000000E+02  0.51100000000E-03 0.  1.
         11   -1    0    0    0    0 -0.00000000000E+00 -0.00000000000E+00 -0.45593999997E+02  0.45594000000E+02  0.51100000000E-03 0. -1.
    9900012    2    1    2    0    0  0.95088166159E+01 -0.34220611601E+02  0.19791332660E+02  0.50528871870E+02  0.30000036537E+02 0.  0.
         12    1    1    2    0    0 -0.95088166159E+01  0.34220611601E+02 -0.19791332660E+02  0.40659128130E+02  0.00000000000E+00 0. -1.
         11    1    3    3    0    0  0.60858033970E+01 -0.79125157039E+01 -0.57411184231E+01  0.11515439582E+02  0.51100000000E-03 0. -1.
        -11    1    3    3    0    0  0.26655777154E+00 -0.24369813039E+02  0.17008574292E+02  0.29719529611E+02  0.51100000000E-03 0.  1.
        -12    1    3    3    0    0  0.31564554474E+01 -0.19382828589E+01  0.85238767908E+01  0.92939026774E+01  0.00000000000E+00 0.  1.
</event>
<event>
 7    1  0.2900470E-011  0.5052888E+02  0.7816164E-02  0.1300439E+00
        -11   -1    0    0    0    0  0.00000000000E+00  0.00000000000E+00  0.45593999997E+02  0.45594000000E+02  0.51100000000E-03 0. -1.
         11   -1    0    0    0    0 -0.00000000000E+00 -0.00000000000E+00 -0.45593999997E+02  0.45594000000E+02  0.51100000000E-03 0.  1.
    9900012    2    1    2    0    0 -0.13993563938E+02  0.24626850639E+02 -0.29169553037E+02  0.50528875213E+02  0.30000046696E+02 0.  0.
         12    1    1    2    0    0  0.13993563938E+02 -0.24626850639E+02  0.29169553037E+02  0.40659124787E+02  0.00000000000E+00 0. -1.
         11    1    3    3    0    0  0.19009099548E+01  0.66128994468E+01  0.44884688624E+01  0.82152450200E+01  0.51100000000E-03 0. -1.
        -11    1    3    3    0    0 -0.11771995929E+02  0.14079123047E+02 -0.18234010424E+02  0.25870460574E+02  0.51100000000E-03 0.  1.
        -12    1    3    3    0    0 -0.41224779634E+01  0.39348281455E+01 -0.15424011476E+02  0.16443169618E+02  0.00000000000E+00 0.  1.
</event>
<event>
 7    1  0.2900470E-011  0.5052886E+02  0.7816164E-02  0.1300439E+00
        -11   -1    0    0    0    0  0.00000000000E+00  0.00000000000E+00  0.45593999997E+02  0.45594000000E+02  0.51100000000E-03 0.  1.
         11   -1    0    0    0    0 -0.00000000000E+00 -0.00000000000E+00 -0.45593999997E+02  0.45594000000E+02  0.51100000000E-03 0. -1.
    9900012    2    1    2    0    0  0.52769456755E+01 -0.19137628021E+02  0.35483389799E+02  0.50528856950E+02  0.29999991186E+02 0.  0.
         12    1    1    2    0    0 -0.52769456755E+01  0.19137628021E+02 -0.35483389799E+02  0.40659143050E+02  0.00000000000E+00 0. -1.
         11    1    3    3    0    0 -0.90897381705E+01 -0.21750682122E+01  0.20443459059E+02  0.22478640535E+02  0.51100000000E-03 0. -1.
        -11    1    3    3    0    0  0.11744171027E+02 -0.14461276213E+02  0.15704551187E+02  0.24365692911E+02  0.51100000000E-03 0.  1.
         12    1    3    3    0    0  0.26225128194E+01 -0.25012835960E+01 -0.66462044710E+00  0.36845235044E+01  0.00000000000E+00 0. -1.
</event>
<event>
 7    1  0.2900470E-011  0.5052886E+02  0.7816164E-02  0.1300439E+00
        -11   -1    0    0    0    0  0.00000000000E+00  0.00000000000E+00  0.45593999997E+02  0.45594000000E+02  0.51100000000E-03 0. -1.
         11   -1    0    0    0    0 -0.00000000000E+00 -0.00000000000E+00 -0.45593999997E+02  0.45594000000E+02  0.51100000000E-03 0.  1.
    9900012    2    1    2    0    0 -0.35847090094E+02  0.17854861543E+02  0.70253509374E+01  0.50528861977E+02  0.30000006466E+02 0.  0.
         12    1    1    2    0    0  0.35847090094E+02 -0.17854861543E+02 -0.70253509374E+01  0.40659138023E+02  0.00000000000E+00 0. -1.
         11    1    3    3    0    0 -0.70012439643E+01  0.22512341343E+01  0.10081511025E+02  0.12478875630E+02  0.51100000000E-03 0.  1.
        -11    1    3    3    0    0 -0.41842070287E+01 -0.42593108923E+00 -0.72077749053E+01  0.83451198372E+01  0.51100000000E-03 0. -1.
        -12    1    3    3    0    0 -0.24661639101E+02  0.16029558498E+02  0.41516148176E+01  0.29704866510E+02  0.00000000000E+00 0.  1.
</event>
<event>
 7    1  0.2900470E-011  0.5052885E+02  0.7816164E-02  0.1300439E+00
        -11   -1    0    0    0    0  0.00000000000E+00  0.00000000000E+00  0.45593999997E+02  0.45594000000E+02  0.51100000000E-03 0.  1.
         11   -1    0    0    0    0 -0.00000000000E+00 -0.00000000000E+00 -0.45593999997E+02  0.45594000000E+02  0.51100000000E-03 0. -1.
    9900012    2    1    2    0    0  0.23340300173E+01 -0.37523231506E+02  0.15483084830E+02  0.50528849559E+02  0.29999968719E+02 0.  0.
         12    1    1    2    0    0 -0.23340300173E+01  0.37523231506E+02 -0.15483084830E+02  0.40659150441E+02  0.00000000000E+00 0. -1.
         11    1    3    3    0    0  0.94481589466E+01 -0.25002285762E+01  0.98952024371E+01  0.13908050976E+02  0.51100000000E-03 0. -1.
        -11    1    3    3    0    0 -0.33486015851E+01 -0.27009136777E+02  0.29143040348E+01  0.27371513847E+02  0.51100000000E-03 0.  1.
         12    1    3    3    0    0 -0.37655273442E+01 -0.80138661523E+01  0.26735783584E+01  0.92492847359E+01  0.00000000000E+00 0. -1.
</event>
<event>
 7    1  0.2900470E-011  0.5052886E+02  0.7816164E-02  0.1300439E+00
        -11   -1    0    0    0    0  0.00000000000E+00  0.00000000000E+00  0.45593999997E+02  0.45594000000E+02  0.51100000000E-03 0.  1.
         11   -1    0    0    0    0 -0.00000000000E+00 -0.00000000000E+00 -0.45593999997E+02  0.45594000000E+02  0.51100000000E-03 0. -1.
    9900012    2    1    2    0    0  0.40146146328E+02 -0.54484264183E+01  0.34303565694E+01  0.50528858818E+02  0.29999996864E+02 0.  0.
         12    1    1    2    0    0 -0.40146146328E+02  0.54484264183E+01 -0.34303565694E+01  0.40659141182E+02  0.00000000000E+00 0. -1.
         11    1    3    3    0    0  0.31734321296E+01 -0.70099258777E+01  0.12202189941E+01  0.77909349212E+01  0.51100000000E-03 0. -1.
        -11    1    3    3    0    0  0.19279194229E+02 -0.97680541526E+01  0.22361691697E+01  0.21727923621E+02  0.51100000000E-03 0.  1.
         12    1    3    3    0    0  0.17693519970E+02  0.11329553612E+02 -0.26031594327E-01  0.21010000276E+02  0.00000000000E+00 0. -1.
</event>
<event>
 7    1  0.2900470E-011  0.5052886E+02  0.7816164E-02  0.1300439E+00
        -11   -1    0    0    0    0  0.00000000000E+00  0.00000000000E+00  0.45593999997E+02  0.45594000000E+02  0.51100000000E-03 0.  1.
         11   -1    0    0    0    0 -0.00000000000E+00 -0.00000000000E+00 -0.45593999997E+02  0.45594000000E+02  0.51100000000E-03 0. -1.
    9900012    2    1    2    0    0  0.24439211359E+02  0.60474620483E+00  0.32488838590E+02  0.50528863231E+02  0.30000010277E+02 0.  0.
         12    1    1    2    0    0 -0.24439211359E+02 -0.60474620483E+00 -0.32488838590E+02  0.40659136769E+02  0.00000000000E+00 0. -1.
         11    1    3    3    0    0  0.15018649994E+02  0.35285046433E+01  0.43393803179E+01  0.16026241433E+02  0.51100000000E-03 0. -1.
        -11    1    3    3    0    0  0.37723890474E+01 -0.92515012225E+01  0.85630051007E+01  0.13158504877E+02  0.51100000000E-03 0.  1.
        -12    1    3    3    0    0  0.56481723176E+01  0.63277427840E+01  0.19586453172E+02  0.21344116921E+02  0.00000000000E+00 0.  1.
</event>
<event>
 7    1  0.2900470E-011  0.5052886E+02  0.7816164E-02  0.1300439E+00
        -11   -1    0    0    0    0  0.00000000000E+00  0.00000000000E+00  0.45593999997E+02  0.45594000000E+02  0.51100000000E-03 0. -1.
         11   -1    0    0    0    0 -0.00000000000E+00 -0.00000000000E+00 -0.45593999997E+02  0.45594000000E+02  0.51100000000E-03 0.  1.
    9900012    2    1    2    0    0  0.20596848613E+02  0.35054759010E+02  0.31501713846E+00  0.50528861570E+02  0.30000005229E+02 0.  0.
         12    1    1    2    0    0 -0.20596848613E+02 -0.35054759010E+02 -0.31501713846E+00  0.40659138430E+02  0.00000000000E+00 0. -1.
         11    1    3    3    0    0  0.46375092749E+01  0.27533251477E+02 -0.54463123831E+01  0.28447297728E+02  0.51100000000E-03 0. -1.
        -11    1    3    3    0    0  0.14122967338E+02  0.85190944838E+01  0.85649769865E+01  0.18584725134E+02  0.51100000000E-03 0.  1.
         12    1    3    3    0    0  0.18363719997E+01 -0.99758695079E+00 -0.28036474649E+01  0.34968387085E+01  0.00000000000E+00 0. -1.
</event>
<event>
 7    1  0.2900470E-011  0.5052886E+02  0.7816164E-02  0.1300439E+00
        -11   -1    0    0    0    0  0.00000000000E+00  0.00000000000E+00  0.45593999997E+02  0.45594000000E+02  0.51100000000E-03 0.  1.
         11   -1    0    0    0    0 -0.00000000000E+00 -0.00000000000E+00 -0.45593999997E+02  0.45594000000E+02  0.51100000000E-03 0. -1.
    9900012    2    1    2    0    0 -0.15823202607E+02 -0.37213352741E+02 -0.42377313448E+01  0.50528859208E+02  0.29999998050E+02 0.  0.
         12    1    1    2    0    0  0.15823202607E+02  0.37213352741E+02  0.42377313448E+01  0.40659140792E+02  0.00000000000E+00 0. -1.
         11    1    3    3    0    0 -0.12201219542E+02 -0.35082231971E+02 -0.13494306962E+02  0.39518718085E+02  0.51100000000E-03 0. -1.
        -11    1    3    3    0    0 -0.34772747131E+01 -0.12857580917E+01  0.32127028464E+01  0.49057184123E+01  0.51100000000E-03 0.  1.
         12    1    3    3    0    0 -0.14470835134E+00 -0.84536267792E+00  0.60438727712E+01  0.61044227114E+01  0.00000000000E+00 0. -1.
</event>
<event>
 7    1  0.2900470E-011  0.5052890E+02  0.7816164E-02  0.1300439E+00
        -11   -1    0    0    0    0  0.00000000000E+00  0.00000000000E+00  0.45593999997E+02  0.45594000000E+02  0.51100000000E-03 0.  1.
         11   -1    0    0    0    0 -0.00000000000E+00 -0.00000000000E+00 -0.45593999997E+02  0.45594000000E+02  0.51100000000E-03 0. -1.
    9900012    2    1    2    0    0 -0.42164556825E+01  0.23120621341E+02  0.33178621583E+02  0.50528898192E+02  0.30000116543E+02 0.  0.
         12    1    1    2    0    0  0.42164556825E+01 -0.23120621341E+02 -0.33178621583E+02  0.40659101808E+02  0.00000000000E+00 0. -1.
         11    1    3    3    0    0 -0.33545775501E+01 -0.24173042984E+01 -0.22178332689E+00  0.41407413244E+01  0.51100000000E-03 0. -1.
        -11    1    3    3    0    0 -0.63111300811E+01  0.15300877851E+02  0.30066923447E+02  0.34321525487E+02  0.51100000000E-03 0.  1.
        -12    1    3    3    0    0  0.54492519487E+01  0.10237047788E+02  0.33334814632E+01  0.12066631381E+02  0.00000000000E+00 0.  1.
</event>
<event>
 7    1  0.2900470E-011  0.5052886E+02  0.7816164E-02  0.1300439E+00
        -11   -1    0    0    0    0  0.00000000000E+00  0.00000000000E+00  0.45593999997E+02  0.45594000000E+02  0.51100000000E-03 0.  1.
         11   -1    0    0    0    0 -0.00000000000E+00 -0.00000000000E+00 -0.45593999997E+02  0.45594000000E+02  0.51100000000E-03 0. -1.
    9900012    2    1    2    0    0  0.11753279733E+01 -0.29262767840E+02  0.28204156662E+02  0.50528862890E+02  0.30000009240E+02 0.  0.
         12    1    1    2    0    0 -0.11753279733E+01  0.29262767840E+02 -0.28204156662E+02  0.40659137110E+02  0.00000000000E+00 0. -1.
         11    1    3    3    0    0 -0.12370921135E+01 -0.27852593345E+01  0.10436534661E+02  0.10872411069E+02  0.51100000000E-03 0. -1.
        -11    1    3    3    0    0 -0.70744680998E+00  0.11521243384E+01 -0.40778277727E+01  0.42961088307E+01  0.51100000000E-03 0.  1.
        -12    1    3    3    0    0  0.31198668968E+01 -0.27629632844E+02  0.21845449774E+02  0.35360342990E+02  0.00000000000E+00 0.  1.
</event>
<event>
 7    1  0.2900470E-011  0.5052886E+02  0.7816164E-02  0.1300439E+00
        -11   -1    0    0    0    0  0.00000000000E+00  0.00000000000E+00  0.45593999997E+02  0.45594000000E+02  0.51100000000E-03 0.  1.
         11   -1    0    0    0    0 -0.00000000000E+00 -0.00000000000E+00 -0.45593999997E+02  0.45594000000E+02  0.51100000000E-03 0. -1.
    9900012    2    1    2    0    0  0.20337822460E+02 -0.23760529320E+02  0.25980290994E+02  0.50528864543E+02  0.30000014265E+02 0.  0.
         12    1    1    2    0    0 -0.20337822460E+02  0.23760529320E+02 -0.25980290994E+02  0.40659135457E+02  0.00000000000E+00 0. -1.
         11    1    3    3    0    0 -0.77237533671E+01 -0.43494833287E+01  0.66096572454E+01  0.11057212147E+02  0.51100000000E-03 0. -1.
        -11    1    3    3    0    0  0.95646078860E+01 -0.43078144052E+01  0.65663261820E+01  0.12375606197E+02  0.51100000000E-03 0.  1.
         12    1    3    3    0    0  0.18496967941E+02 -0.15103231587E+02  0.12804307566E+02  0.27096046199E+02  0.00000000000E+00 0. -1.
</event>
<event>
 7    1  0.2900470E-011  0.5052888E+02  0.7816164E-02  0.1300439E+00
        -11   -1    0    0    0    0  0.00000000000E+00  0.00000000000E+00  0.45593999997E+02  0.45594000000E+02  0.51100000000E-03 0. -1.
         11   -1    0    0    0    0 -0.00000000000E+00 -0.00000000000E+00 -0.45593999997E+02  0.45594000000E+02  0.51100000000E-03 0.  1.
    9900012    2    1    2    0    0  0.36973419702E+02  0.16559345275E+02  0.34523392528E+01  0.50528876464E+02  0.30000050499E+02 0.  0.
         12    1    1    2    0    0 -0.36973419702E+02 -0.16559345275E+02 -0.34523392528E+01  0.40659123536E+02  0.00000000000E+00 0. -1.
         11    1    3    3    0    0 -0.11896991485E+01 -0.35332707807E+01 -0.47214269802E+01  0.60159171757E+01  0.51100000000E-03 0. -1.
        -11    1    3    3    0    0  0.10137360644E+02  0.90104278758E+01  0.35805540146E+01  0.14027624840E+02  0.51100000000E-03 0.  1.
         12    1    3    3    0    0  0.28025758207E+02  0.11082188180E+02  0.45932122184E+01  0.30485334448E+02  0.00000000000E+00 0. -1.
</event>
<event>
 7    1  0.2900470E-011  0.5052883E+02  0.7816164E-02  0.1300439E+00
        -11   -1    0    0    0    0  0.00000000000E+00  0.00000000000E+00  0.45593999997E+02  0.45594000000E+02  0.51100000000E-03 0. -1.
         11   -1    0    0    0    0 -0.00000000000E+00 -0.00000000000E+00 -0.45593999997E+02  0.45594000000E+02  0.51100000000E-03 0.  1.
    9900012    2    1    2    0    0  0.61268515030E+01  0.21001974248E+02 -0.34271663105E+02  0.50528829771E+02  0.29999908573E+02 0.  0.
         12    1    1    2    0    0 -0.61268515030E+01 -0.21001974248E+02  0.34271663105E+02  0.40659170229E+02  0.00000000000E+00 0. -1.
         11    1    3    3    0    0  0.16741214111E+02  0.14786717934E+02 -0.22887301748E+02  0.31980366770E+02  0.51100000000E-03 0. -1.
        -11    1    3    3    0    0 -0.17900022062E+01  0.34113519555E+01 -0.76487820933E+01  0.85641869336E+01  0.51100000000E-03 0.  1.
         12    1    3    3    0    0 -0.88243604022E+01  0.28039043588E+01 -0.37355792645E+01  0.99842760680E+01  0.00000000000E+00 0. -1.
</event>
<event>
 7    1  0.2900470E-011  0.5052886E+02  0.7816164E-02  0.1300439E+00
        -11   -1    0    0    0    0  0.00000000000E+00  0.00000000000E+00  0.45593999997E+02  0.45594000000E+02  0.51100000000E-03 0.  1.
         11   -1    0    0    0    0 -0.00000000000E+00 -0.00000000000E+00 -0.45593999997E+02  0.45594000000E+02  0.51100000000E-03 0. -1.
    9900012    2    1    2    0    0 -0.22348820770E+02 -0.33063364990E+02 -0.77788163115E+01  0.50528857394E+02  0.29999992534E+02 0.  0.
         12    1    1    2    0    0  0.22348820770E+02  0.33063364990E+02  0.77788163115E+01  0.40659142606E+02  0.00000000000E+00 0. -1.
         11    1    3    3    0    0 -0.47044015274E+00  0.15634101322E+01  0.56295134465E+01  0.58614833518E+01  0.51100000000E-03 0. -1.
        -11    1    3    3    0    0 -0.19024918096E+02 -0.34553419069E+02 -0.11045921839E+02  0.40962161410E+02  0.51100000000E-03 0.  1.
        -12    1    3    3    0    0 -0.28534625212E+01 -0.73356053922E-01 -0.23624079185E+01  0.37052126314E+01  0.00000000000E+00 0.  1.
</event>
<event>
 7    1  0.2900470E-011  0.5052886E+02  0.7816164E-02  0.1300439E+00
        -11   -1    0    0    0    0  0.00000000000E+00  0.00000000000E+00  0.45593999997E+02  0.45594000000E+02  0.51100000000E-03 0.  1.
         11   -1    0    0    0    0 -0.00000000000E+00 -0.00000000000E+00 -0.45593999997E+02  0.45594000000E+02  0.51100000000E-03 0. -1.
    9900012    2    1    2    0    0  0.27415820325E+02 -0.10173692600E+02  0.28249506239E+02  0.50528858002E+02  0.29999994384E+02 0.  0.
         12    1    1    2    0    0 -0.27415820325E+02  0.10173692600E+02 -0.28249506239E+02  0.40659141998E+02  0.00000000000E+00 0. -1.
         11    1    3    3    0    0  0.17444403059E+02  0.21446103080E+01  0.22881840970E+02  0.28852819583E+02  0.51100000000E-03 0.  1.
        -11    1    3    3    0    0  0.30309039394E+01 -0.90510056406E+01 -0.33018107066E+01  0.10099952277E+02  0.51100000000E-03 0. -1.
         12    1    3    3    0    0  0.69405133266E+01 -0.32672972678E+01  0.86694759760E+01  0.11576086142E+02  0.00000000000E+00 0. -1.
</event>
<event>
 7    1  0.2900470E-011  0.5052887E+02  0.7816164E-02  0.1300439E+00
        -11   -1    0    0    0    0  0.00000000000E+00  0.00000000000E+00  0.45593999997E+02  0.45594000000E+02  0.51100000000E-03 0.  1.
         11   -1    0    0    0    0 -0.00000000000E+00 -0.00000000000E+00 -0.45593999997E+02  0.45594000000E+02  0.51100000000E-03 0. -1.
    9900012    2    1    2    0    0 -0.11587862307E+02 -0.33479202958E+02  0.19950667976E+02  0.50528871428E+02  0.30000035192E+02 0.  0.
         12    1    1    2    0    0  0.11587862307E+02  0.33479202958E+02 -0.19950667976E+02  0.40659128572E+02  0.00000000000E+00 0. -1.
         11    1    3    3    0    0 -0.71821300948E+01 -0.43054954047E+01  0.14216370806E+02  0.16499257030E+02  0.51100000000E-03 0. -1.
        -11    1    3    3    0    0 -0.46951222327E+01 -0.31170918257E+02  0.52922885759E+01  0.31963708114E+02  0.51100000000E-03 0.  1.
        -12    1    3    3    0    0  0.28939002101E+00  0.19972107036E+01  0.44200859434E+00  0.20659062844E+01  0.00000000000E+00 0.  1.
</event>
<event>
 7    1  0.2900470E-011  0.5052887E+02  0.7816164E-02  0.1300439E+00
        -11   -1    0    0    0    0  0.00000000000E+00  0.00000000000E+00  0.45593999997E+02  0.45594000000E+02  0.51100000000E-03 0.  1.
         11   -1    0    0    0    0 -0.00000000000E+00 -0.00000000000E+00 -0.45593999997E+02  0.45594000000E+02  0.51100000000E-03 0. -1.
    9900012    2    1    2    0    0 -0.18651004242E+02 -0.35247040381E+02  0.79341850317E+01  0.50528866869E+02  0.30000021334E+02 0.  0.
         12    1    1    2    0    0  0.18651004242E+02  0.35247040381E+02 -0.79341850317E+01  0.40659133131E+02  0.00000000000E+00 0. -1.
         11    1    3    3    0    0 -0.49610125002E+01 -0.27877573066E+01  0.11627597646E+02  0.12945434064E+02  0.51100000000E-03 0.  1.
        -11    1    3    3    0    0 -0.25601189527E+01 -0.81909945459E+01 -0.64604099919E+01  0.10741671110E+02  0.51100000000E-03 0. -1.
        -12    1    3    3    0    0 -0.11129872790E+02 -0.24268288528E+02  0.27669973775E+01  0.26841761695E+02  0.00000000000E+00 0.  1.
</event>
<event>
 7    1  0.2900470E-011  0.5052886E+02  0.7816164E-02  0.1300439E+00
        -11   -1    0    0    0    0  0.00000000000E+00  0.00000000000E+00  0.45593999997E+02  0.45594000000E+02  0.51100000000E-03 0. -1.
         11   -1    0    0    0    0 -0.00000000000E+00 -0.00000000000E+00 -0.45593999997E+02  0.45594000000E+02  0.51100000000E-03 0.  1.
    9900012    2    1    2    0    0 -0.29253403323E+02 -0.90399024195E+01 -0.26752272716E+02  0.50528861578E+02  0.30000005253E+02 0.  0.
         12    1    1    2    0    0  0.29253403323E+02  0.90399024195E+01  0.26752272716E+02  0.40659138422E+02  0.00000000000E+00 0. -1.
         11    1    3    3    0    0 -0.13042056249E+02 -0.14299194988E+02 -0.16650192132E+01  0.19425099685E+02  0.51100000000E-03 0. -1.
        -11    1    3    3    0    0 -0.83676952822E+01  0.23333642307E+00 -0.16168576780E+02  0.18207021875E+02  0.51100000000E-03 0.  1.
         12    1    3    3    0    0 -0.78436517922E+01  0.50259561456E+01 -0.89186767229E+01  0.12896740018E+02  0.00000000000E+00 0. -1.
</event>
<event>
 7    1  0.2900470E-011  0.5052892E+02  0.7816164E-02  0.1300439E+00
        -11   -1    0    0    0    0  0.00000000000E+00  0.00000000000E+00  0.45593999997E+02  0.45594000000E+02  0.51100000000E-03 0.  1.
         11   -1    0    0    0    0 -0.00000000000E+00 -0.00000000000E+00 -0.45593999997E+02  0.45594000000E+02  0.51100000000E-03 0. -1.
    9900012    2    1    2    0    0 -0.25106643295E+02  0.83913502130E+01  0.30861023875E+02  0.50528916261E+02  0.30000171466E+02 0.  0.
         12    1    1    2    0    0  0.25106643295E+02 -0.83913502130E+01 -0.30861023875E+02  0.40659083739E+02  0.00000000000E+00 0. -1.
         11    1    3    3    0    0 -0.27130527591E+01  0.58534966114E+01 -0.99989196180E+00  0.65286952793E+01  0.51100000000E-03 0. -1.
        -11    1    3    3    0    0 -0.22576708566E+02 -0.30108850475E+01  0.30866162278E+02  0.38360046565E+02  0.51100000000E-03 0.  1.
        -12    1    3    3    0    0  0.18311803005E+00  0.55487386491E+01  0.99475355874E+00  0.56401744168E+01  0.00000000000E+00 0.  1.
</event>
<event>
 7    1  0.2900470E-011  0.5052886E+02  0.7816164E-02  0.1300439E+00
        -11   -1    0    0    0    0  0.00000000000E+00  0.00000000000E+00  0.45593999997E+02  0.45594000000E+02  0.51100000000E-03 0.  1.
         11   -1    0    0    0    0 -0.00000000000E+00 -0.00000000000E+00 -0.45593999997E+02  0.45594000000E+02  0.51100000000E-03 0. -1.
    9900012    2    1    2    0    0  0.37530947506E+01  0.12663733246E+00  0.40485356588E+02  0.50528857667E+02  0.29999993364E+02 0.  0.
         12    1    1    2    0    0 -0.37530947506E+01 -0.12663733246E+00 -0.40485356588E+02  0.40659142333E+02  0.00000000000E+00 0. -1.
         11    1    3    3    0    0  0.58812836811E+01  0.76566099722E+01  0.33344136191E+01  0.10214278655E+02  0.51100000000E-03 0. -1.
        -11    1    3    3    0    0  0.14693328952E+01  0.15256731240E+00  0.27193162911E+02  0.27233257706E+02  0.51100000000E-03 0.  1.
         12    1    3    3    0    0 -0.35975218257E+01 -0.76825399521E+01  0.99577800582E+01  0.13081321305E+02  0.00000000000E+00 0. -1.
</event>
<event>
 7    1  0.2900470E-011  0.5052884E+02  0.7816164E-02  0.1300439E+00
        -11   -1    0    0    0    0  0.00000000000E+00  0.00000000000E+00  0.45593999997E+02  0.45594000000E+02  0.51100000000E-03 0. -1.
         11   -1    0    0    0    0 -0.00000000000E+00 -0.00000000000E+00 -0.45593999997E+02  0.45594000000E+02  0.51100000000E-03 0.  1.
    9900012    2    1    2    0    0 -0.27980949010E+02  0.26828604142E+02 -0.12266199555E+02  0.50528841631E+02  0.29999944623E+02 0.  0.
         12    1    1    2    0    0  0.27980949010E+02 -0.26828604142E+02  0.12266199555E+02  0.40659158369E+02  0.00000000000E+00 0. -1.
         11    1    3    3    0    0  0.54395113535E+01  0.52352659262E+01  0.94265547881E+00  0.76082121879E+01  0.51100000000E-03 0. -1.
        -11    1    3    3    0    0 -0.24814094333E+02  0.16391093686E+02 -0.54856520964E+01  0.30240694585E+02  0.51100000000E-03 0.  1.
         12    1    3    3    0    0 -0.86063660308E+01  0.52022445293E+01 -0.77232029378E+01  0.12679934859E+02  0.00000000000E+00 0. -1.
</event>
<event>
 7    1  0.2900470E-011  0.5052886E+02  0.7816164E-02  0.1300439E+00
        -11   -1    0    0    0    0  0.00000000000E+00  0.00000000000E+00  0.45593999997E+02  0.45594000000E+02  0.51100000000E-03 0.  1.
         11   -1    0    0    0    0 -0.00000000000E+00 -0.00000000000E+00 -0.45593999997E+02  0.45594000000E+02  0.51100000000E-03 0. -1.
    9900012    2    1    2    0    0 -0.27578806558E+02  0.61324454320E+01  0.29239841465E+02  0.50528858506E+02  0.29999995916E+02 0.  0.
         12    1    1    2    0    0  0.27578806558E+02 -0.61324454320E+01 -0.29239841465E+02  0.40659141494E+02  0.00000000000E+00 0. -1.
         11    1    3    3    0    0 -0.15785515475E+02  0.21580859340E+01  0.17922229788E+01  0.16032838089E+02  0.51100000000E-03 0. -1.
        -11    1    3    3    0    0 -0.13304174048E+02  0.86688564085E+01  0.22202642512E+02  0.27296656450E+02  0.51100000000E-03 0.  1.
        -12    1    3    3    0    0  0.15108829656E+01 -0.46944969105E+01  0.52449759735E+01  0.71993639678E+01  0.00000000000E+00 0.  1.
</event>
<event>
 7    1  0.2900470E-011  0.5052887E+02  0.7816164E-02  0.1300439E+00
        -11   -1    0    0    0    0  0.00000000000E+00  0.00000000000E+00  0.45593999997E+02  0.45594000000E+02  0.51100000000E-03 0. -1.
         11   -1    0    0    0    0 -0.00000000000E+00 -0.00000000000E+00 -0.45593999997E+02  0.45594000000E+02  0.51100000000E-03 0.  1.
    9900012    2    1    2    0    0  0.15918188180E+02  0.50149969680E+01 -0.37075950687E+02  0.50528867829E+02  0.30000024254E+02 0.  0.
         12    1    1    2    0    0 -0.15918188180E+02 -0.50149969680E+01  0.37075950687E+02  0.40659132171E+02  0.00000000000E+00 0. -1.
         11    1    3    3    0    0  0.85339763934E+00  0.77698277177E+00 -0.60753755949E+00  0.13042591406E+01  0.51100000000E-03 0. -1.
        -11    1    3    3    0    0  0.20339335883E+02  0.70530877462E+01 -0.37420112311E+02  0.43170585316E+02  0.51100000000E-03 0.  1.
        -12    1    3    3    0    0 -0.52745453420E+01 -0.28150735500E+01  0.95169918368E+00  0.60540233723E+01  0.00000000000E+00 0.  1.
</event>
<event>
 7    1  0.2900470E-011  0.5052885E+02  0.7816164E-02  0.1300439E+00
        -11   -1    0    0    0    0  0.00000000000E+00  0.00000000000E+00  0.45593999997E+02  0.45594000000E+02  0.51100000000E-03 0. -1.
         11   -1    0    0    0    0 -0.00000000000E+00 -0.00000000000E+00 -0.45593999997E+02  0.45594000000E+02  0.51100000000E-03 0.  1.
    9900012    2    1    2    0    0 -0.37401239720E+02 -0.15028054222E+02 -0.53358677729E+01  0.50528848125E+02  0.29999964361E+02 0.  0.
         12    1    1    2    0    0  0.37401239720E+02  0.15028054222E+02  0.53358677729E+01  0.40659151875E+02  0.00000000000E+00 0. -1.
         11    1    3    3    0    0 -0.57914438771E+01  0.56866929747E+01 -0.75111486274E+01  0.11058781720E+02  0.51100000000E-03 0. -1.
        -11    1    3    3    0    0 -0.30920651974E+02 -0.16544033235E+02  0.28719013263E+01  0.35185786500E+02  0.51100000000E-03 0.  1.
        -12    1    3    3    0    0 -0.68914386919E+00 -0.41707139612E+01 -0.69662047174E+00  0.42842799045E+01  0.00000000000E+00 0.  1.
</event>
<event>
 7    1  0.2900470E-011  0.5052886E+02  0.7816164E-02  0.1300439E+00
        -11   -1    0    0    0    0  0.00000000000E+00  0.00000000000E+00  0.45593999997E+02  0.45594000000E+02  0.51100000000E-03 0.  1.
         11   -1    0    0    0    0 -0.00000000000E+00 -0.00000000000E+00 -0.45593999997E+02  0.45594000000E+02  0.51100000000E-03 0. -1.
    9900012    2    1    2    0    0  0.38851081704E+02 -0.31812471931E+01  0.11560227324E+02  0.50528859096E+02  0.29999997709E+02 0.  0.
         12    1    1    2    0    0 -0.38851081704E+02  0.31812471931E+01 -0.11560227324E+02  0.40659140904E+02  0.00000000000E+00 0. -1.
         11    1    3    3    0    0  0.30098158350E+02 -0.14564521201E+02  0.86496114171E+01  0.34537518611E+02  0.51100000000E-03 0. -1.
        -11    1    3    3    0    0  0.65266413089E+01  0.94631462644E+01 -0.47754834941E+00  0.11505487242E+02  0.51100000000E-03 0.  1.
         12    1    3    3    0    0  0.22262820450E+01  0.19201277433E+01  0.33881642561E+01  0.44858532434E+01  0.00000000000E+00 0. -1.
</event>
<event>
 7    1  0.2900470E-011  0.5052883E+02  0.7816164E-02  0.1300439E+00
        -11   -1    0    0    0    0  0.00000000000E+00  0.00000000000E+00  0.45593999997E+02  0.45594000000E+02  0.51100000000E-03 0.  1.
         11   -1    0    0    0    0 -0.00000000000E+00 -0.00000000000E+00 -0.45593999997E+02  0.45594000000E+02  0.51100000000E-03 0. -1.
    9900012    2    1    2    0    0 -0.40548103123E+02 -0.15134060677E+01  0.25940706584E+01  0.50528828004E+02  0.29999903201E+02 0.  0.
         12    1    1    2    0    0  0.40548103123E+02  0.15134060677E+01 -0.25940706584E+01  0.40659171996E+02  0.00000000000E+00 0. -1.
         11    1    3    3    0    0  0.18628664938E+01 -0.63571030829E+00 -0.42088987273E+01  0.46464209805E+01  0.51100000000E-03 0. -1.
        -11    1    3    3    0    0 -0.13006973955E+02 -0.50186882707E+01  0.81657782149E+01  0.16156996551E+02  0.51100000000E-03 0.  1.
         12    1    3    3    0    0 -0.29403995662E+02  0.41409925113E+01 -0.13628088291E+01  0.29725410473E+02  0.00000000000E+00 0. -1.
</event>
<event>
 7    1  0.2900470E-011  0.5052883E+02  0.7816164E-02  0.1300439E+00
        -11   -1    0    0    0    0  0.00000000000E+00  0.00000000000E+00  0.45593999997E+02  0.45594000000E+02  0.51100000000E-03 0.  1.
         11   -1    0    0    0    0 -0.00000000000E+00 -0.00000000000E+00 -0.45593999997E+02  0.45594000000E+02  0.51100000000E-03 0. -1.
    9900012    2    1    2    0    0 -0.23688475547E+02  0.17363119589E+02  0.28116659674E+02  0.50528827027E+02  0.29999900232E+02 0.  0.
         12    1    1    2    0    0  0.23688475547E+02 -0.17363119589E+02 -0.28116659674E+02  0.40659172973E+02  0.00000000000E+00 0. -1.
         11    1    3    3    0    0 -0.11114211389E+01 -0.11771793686E+01 -0.17886807164E+01  0.24125478607E+01  0.51100000000E-03 0. -1.
        -11    1    3    3    0    0 -0.13970459637E+02  0.20090168188E+02  0.30786689194E+02  0.39326947912E+02  0.51100000000E-03 0.  1.
        -12    1    3    3    0    0 -0.86065947710E+01 -0.15498692302E+01 -0.88134880403E+00  0.87893312543E+01  0.00000000000E+00 0.  1.
</event>
<event>
 7    1  0.2900470E-011  0.5052886E+02  0.7816164E-02  0.1300439E+00
        -11   -1    0    0    0    0  0.00000000000E+00  0.00000000000E+00  0.45593999997E+02  0.45594000000E+02  0.51100000000E-03 0.  1.
         11   -1    0    0    0    0 -0.00000000000E+00 -0.00000000000E+00 -0.45593999997E+02  0.45594000000E+02  0.51100000000E-03 0. -1.
    9900012    2    1    2    0    0  0.28078726919E+02 -0.23139861783E+02  0.18146558227E+02  0.50528859770E+02  0.29999999756E+02 0.  0.
         12    1    1    2    0    0 -0.28078726919E+02  0.23139861783E+02 -0.18146558227E+02  0.40659140230E+02  0.00000000000E+00 0. -1.
         11    1    3    3    0    0  0.17716583914E+01  0.69992860735E+00  0.42249538675E+01  0.46345343838E+01  0.51100000000E-03 0. -1.
        -11    1    3    3    0    0  0.16023651517E+02 -0.14982465807E+02 -0.51049764878E+01  0.22523154192E+02  0.51100000000E-03 0.  1.
        -12    1    3    3    0    0  0.10283417011E+02 -0.88573245842E+01  0.19026580847E+02  0.23371171194E+02  0.00000000000E+00 0.  1.
</event>
<event>
 7    1  0.2900470E-011  0.5052886E+02  0.7816164E-02  0.1300439E+00
        -11   -1    0    0    0    0  0.00000000000E+00  0.00000000000E+00  0.45593999997E+02  0.45594000000E+02  0.51100000000E-03 0. -1.
         11   -1    0    0    0    0 -0.00000000000E+00 -0.00000000000E+00 -0.45593999997E+02  0.45594000000E+02  0.51100000000E-03 0.  1.
    9900012    2    1    2    0    0  0.38079302371E+02 -0.86532076505E+01 -0.11324929503E+02  0.50528864496E+02  0.30000014121E+02 0.  0.
         12    1    1    2    0    0 -0.38079302371E+02  0.86532076505E+01  0.11324929503E+02  0.40659135504E+02  0.00000000000E+00 0. -1.
         11    1    3    3    0    0 -0.17886089530E+01 -0.11916185261E+01 -0.42549355498E-01  0.21496249458E+01  0.51100000000E-03 0. -1.
        -11    1    3    3    0    0  0.39921340233E+02 -0.49301682585E+01 -0.37106834833E+01  0.40395409854E+02  0.51100000000E-03 0.  1.
        -12    1    3    3    0    0 -0.53428909272E-01 -0.25314208660E+01 -0.75716966638E+01  0.79838296962E+01  0.00000000000E+00 0.  1.
</event>
<event>
 7    1  0.2900470E-011  0.5052885E+02  0.7816164E-02  0.1300439E+00
        -11   -1    0    0    0    0  0.00000000000E+00  0.00000000000E+00  0.45593999997E+02  0.45594000000E+02  0.51100000000E-03 0. -1.
         11   -1    0    0    0    0 -0.00000000000E+00 -0.00000000000E+00 -0.45593999997E+02  0.45594000000E+02  0.51100000000E-03 0.  1.
    9900012    2    1    2    0    0  0.40428292298E+02  0.42751040093E+01  0.66541426173E+00  0.50528854552E+02  0.29999983896E+02 0.  0.
         12    1    1    2    0    0 -0.40428292298E+02 -0.42751040093E+01 -0.66541426173E+00  0.40659145448E+02  0.00000000000E+00 0. -1.
         11    1    3    3    0    0  0.17615800446E+02 -0.45107367013E+01 -0.11162950841E+02  0.21337165760E+02  0.51100000000E-03 0. -1.
        -11    1    3    3    0    0  0.62584433545E+01  0.77181264176E+01  0.28902627370E+01  0.10348488178E+02  0.51100000000E-03 0.  1.
         12    1    3    3    0    0  0.16554048498E+02  0.10677142929E+01  0.89381023653E+01  0.18843200614E+02  0.00000000000E+00 0. -1.
</event>
<event>
 7    1  0.2900470E-011  0.5052891E+02  0.7816164E-02  0.1300439E+00
        -11   -1    0    0    0    0  0.00000000000E+00  0.00000000000E+00  0.45593999997E+02  0.45594000000E+02  0.51100000000E-03 0.  1.
         11   -1    0    0    0    0 -0.00000000000E+00 -0.00000000000E+00 -0.45593999997E+02  0.45594000000E+02  0.51100000000E-03 0. -1.
    9900012    2    1    2    0    0 -0.10609866215E+02  0.44086439826E+01  0.39002001777E+02  0.50528910666E+02  0.30000154461E+02 0.  0.
         12    1    1    2    0    0  0.10609866215E+02 -0.44086439826E+01 -0.39002001777E+02  0.40659089334E+02  0.00000000000E+00 0. -1.
         11    1    3    3    0    0  0.25112845601E+01 -0.33855471006E+01 -0.23599727674E+01  0.48309368694E+01  0.51100000000E-03 0. -1.
        -11    1    3    3    0    0 -0.13045999893E+02  0.22650355314E+01  0.23198213271E+02  0.26711151199E+02  0.51100000000E-03 0.  1.
         12    1    3    3    0    0 -0.75150882450E-01  0.55291555519E+01  0.18163761273E+02  0.18986822597E+02  0.00000000000E+00 0. -1.
</event>
<event>
 7    1  0.2900470E-011  0.5052886E+02  0.7816164E-02  0.1300439E+00
        -11   -1    0    0    0    0  0.00000000000E+00  0.00000000000E+00  0.45593999997E+02  0.45594000000E+02  0.51100000000E-03 0.  1.
         11   -1    0    0    0    0 -0.00000000000E+00 -0.00000000000E+00 -0.45593999997E+02  0.45594000000E+02  0.51100000000E-03 0. -1.
    9900012    2    1    2    0    0 -0.23993669384E+01  0.21756464576E+02  0.34264630157E+02  0.50528860900E+02  0.30000003193E+02 0.  0.
         12    1    1    2    0    0  0.23993669384E+01 -0.21756464576E+02 -0.34264630157E+02  0.40659139100E+02  0.00000000000E+00 0. -1.
         11    1    3    3    0    0  0.89357177760E+01  0.10055267021E+02  0.16655276495E+02  0.21409196211E+02  0.51100000000E-03 0. -1.
        -11    1    3    3    0    0 -0.15514815362E+01 -0.41651031117E+01  0.45450740171E+01  0.63571123137E+01  0.51100000000E-03 0.  1.
        -12    1    3    3    0    0 -0.97836031782E+01  0.15866300667E+02  0.13064279645E+02  0.22762552375E+02  0.00000000000E+00 0.  1.
</event>
<event>
 7    1  0.2900470E-011  0.5052886E+02  0.7816164E-02  0.1300439E+00
        -11   -1    0    0    0    0  0.00000000000E+00  0.00000000000E+00  0.45593999997E+02  0.45594000000E+02  0.51100000000E-03 0. -1.
         11   -1    0    0    0    0 -0.00000000000E+00 -0.00000000000E+00 -0.45593999997E+02  0.45594000000E+02  0.51100000000E-03 0.  1.
    9900012    2    1    2    0    0 -0.13428749635E+02  0.16473860600E+02 -0.34661888845E+02  0.50528856648E+02  0.29999990267E+02 0.  0.
         12    1    1    2    0    0  0.13428749635E+02 -0.16473860600E+02  0.34661888845E+02  0.40659143352E+02  0.00000000000E+00 0. -1.
         11    1    3    3    0    0 -0.64941727266E+01 -0.76944704811E+01 -0.11041653114E+02  0.14943134181E+02  0.51100000000E-03 0. -1.
        -11    1    3    3    0    0 -0.42658124615E+01  0.16269986552E+02 -0.98600105729E+01  0.19496908143E+02  0.51100000000E-03 0.  1.
        -12    1    3    3    0    0 -0.26687644473E+01  0.78983445292E+01 -0.13760225158E+02  0.16088814324E+02  0.00000000000E+00 0.  1.
</event>
<event>
 7    1  0.2900470E-011  0.5052886E+02  0.7816164E-02  0.1300439E+00
        -11   -1    0    0    0    0  0.00000000000E+00  0.00000000000E+00  0.45593999997E+02  0.45594000000E+02  0.51100000000E-03 0.  1.
         11   -1    0    0    0    0 -0.00000000000E+00 -0.00000000000E+00 -0.45593999997E+02  0.45594000000E+02  0.51100000000E-03 0. -1.
    9900012    2    1    2    0    0  0.27324076439E+01 -0.39783136049E+02  0.79373624039E+01  0.50528859732E+02  0.29999999642E+02 0.  0.
         12    1    1    2    0    0 -0.27324076439E+01  0.39783136049E+02 -0.79373624039E+01  0.40659140268E+02  0.00000000000E+00 0. -1.
         11    1    3    3    0    0  0.67066710507E+01 -0.19142788857E+02 -0.22219329144E+01  0.20404969688E+02  0.51100000000E-03 0. -1.
        -11    1    3    3    0    0  0.47143377508E+00 -0.19966331557E+02  0.13851981446E+02  0.24305432230E+02  0.51100000000E-03 0.  1.
        -12    1    3    3    0    0 -0.44456971819E+01 -0.67401563487E+00 -0.36926861274E+01  0.58184578150E+01  0.00000000000E+00 0.  1.
</event>
<event>
 7    1  0.2900470E-011  0.5052886E+02  0.7816164E-02  0.1300439E+00
        -11   -1    0    0    0    0  0.00000000000E+00  0.00000000000E+00  0.45593999997E+02  0.45594000000E+02  0.51100000000E-03 0.  1.
         11   -1    0    0    0    0 -0.00000000000E+00 -0.00000000000E+00 -0.45593999997E+02  0.45594000000E+02  0.51100000000E-03 0. -1.
    9900012    2    1    2    0    0 -0.17146294729E+02 -0.36856839003E+02  0.86237182249E+00  0.50528859707E+02  0.29999999564E+02 0.  0.
         12    1    1    2    0    0  0.17146294729E+02  0.36856839003E+02 -0.86237182249E+00  0.40659140293E+02  0.00000000000E+00 0. -1.
         11    1    3    3    0    0 -0.35905495916E+01 -0.16120505208E+02 -0.74874373797E+01  0.18133517400E+02  0.51100000000E-03 0. -1.
        -11    1    3    3    0    0  0.16917759438E+01 -0.24075398937E+01  0.80291842910E+01  0.85513832112E+01  0.51100000000E-03 0.  1.
        -12    1    3    3    0    0 -0.15247521081E+02 -0.18328793902E+02  0.32062491121E+00  0.23843959095E+02  0.00000000000E+00 0.  1.
</event>
<event>
 7    1  0.2900470E-011  0.5052885E+02  0.7816164E-02  0.1300439E+00
        -11   -1    0    0    0    0  0.00000000000E+00  0.00000000000E+00  0.45593999997E+02  0.45594000000E+02  0.51100000000E-03 0.  1.
         11   -1    0    0    0    0 -0.00000000000E+00 -0.00000000000E+00 -0.45593999997E+02  0.45594000000E+02  0.51100000000E-03 0. -1.
    9900012    2    1    2    0    0 -0.13965157062E+02 -0.36654618060E+02  0.10704182786E+02  0.50528853846E+02  0.29999981749E+02 0.  0.
         12    1    1    2    0    0  0.13965157062E+02  0.36654618060E+02 -0.10704182786E+02  0.40659146154E+02  0.00000000000E+00 0. -1.
         11    1    3    3    0    0 -0.72285264907E+01 -0.11758826777E+02 -0.55325526671E+01  0.14870465415E+02  0.51100000000E-03 0. -1.
        -11    1    3    3    0    0 -0.31145489429E+01 -0.21125029606E+02  0.19967925225E+02  0.29235001779E+02  0.51100000000E-03 0.  1.
        -12    1    3    3    0    0 -0.36220816289E+01 -0.37707616773E+01 -0.37311897720E+01  0.64233866509E+01  0.00000000000E+00 0.  1.
</event>
<event>
 7    1  0.2900470E-011  0.5052887E+02  0.7816164E-02  0.1300439E+00
        -11   -1    0    0    0    0  0.00000000000E+00  0.00000000000E+00  0.45593999997E+02  0.45594000000E+02  0.51100000000E-03 0.  1.
         11   -1    0    0    0    0 -0.00000000000E+00 -0.00000000000E+00 -0.45593999997E+02  0.45594000000E+02  0.51100000000E-03 0. -1.
    9900012    2    1    2    0    0 -0.12786134912E+02 -0.18993981833E+02  0.33599235591E+02  0.50528865428E+02  0.30000016956E+02 0.  0.
         12    1    1    2    0    0  0.12786134912E+02  0.18993981833E+02 -0.33599235591E+02  0.40659134572E+02  0.00000000000E+00 0. -1.
         11    1    3    3    0    0 -0.11900926065E+02 -0.13813787927E+02  0.48640738735E+01  0.18870929840E+02  0.51100000000E-03 0. -1.
        -11    1    3    3    0    0  0.51264144825E+01 -0.42006034355E+00  0.15850385291E+02  0.16664071839E+02  0.51100000000E-03 0.  1.
         12    1    3    3    0    0 -0.60116233291E+01 -0.47601335621E+01  0.12884776426E+02  0.14993863749E+02  0.00000000000E+00 0. -1.
</event>
<event>
 7    1  0.2900470E-011  0.5052887E+02  0.7816164E-02  0.1300439E+00
        -11   -1    0    0    0    0  0.00000000000E+00  0.00000000000E+00  0.45593999997E+02  0.45594000000E+02  0.51100000000E-03 0.  1.
         11   -1    0    0    0    0 -0.00000000000E+00 -0.00000000000E+00 -0.45593999997E+02  0.45594000000E+02  0.51100000000E-03 0. -1.
    9900012    2    1    2    0    0  0.36278089326E+02  0.84690845848E+01  0.16289260647E+02  0.50528866078E+02  0.30000018931E+02 0.  0.
         12    1    1    2    0    0 -0.36278089326E+02 -0.84690845848E+01 -0.16289260647E+02  0.40659133922E+02  0.00000000000E+00 0. -1.
         11    1    3    3    0    0 -0.16796144711E+01  0.13214600735E+01  0.83292148081E+01  0.85990221001E+01  0.51100000000E-03 0. -1.
        -11    1    3    3    0    0  0.15668117451E+02 -0.19192906781E+01  0.83621509263E+01  0.17863346538E+02  0.51100000000E-03 0.  1.
         12    1    3    3    0    0  0.22289586346E+02  0.90669151894E+01 -0.40210508765E+00  0.24066497440E+02  0.00000000000E+00 0. -1.
</event>
<event>
 7    1  0.2900470E-011  0.5052886E+02  0.7816164E-02  0.1300439E+00
        -11   -1    0    0    0    0  0.00000000000E+00  0.00000000000E+00  0.45593999997E+02  0.45594000000E+02  0.51100000000E-03 0.  1.
         11   -1    0    0    0    0 -0.00000000000E+00 -0.00000000000E+00 -0.45593999997E+02  0.45594000000E+02  0.51100000000E-03 0. -1.
    9900012    2    1    2    0    0  0.36843681882E+02 -0.17068582536E+02  0.20909537240E+01  0.50528862135E+02  0.30000006946E+02 0.  0.
         12    1    1    2    0    0 -0.36843681882E+02  0.17068582536E+02 -0.20909537240E+01  0.40659137865E+02  0.00000000000E+00 0. -1.
         11    1    3    3    0    0  0.26766685468E+02 -0.56214212385E+01  0.84818642072E+01  0.28635604557E+02  0.51100000000E-03 0. -1.
        -11    1    3    3    0    0  0.13153606828E+01  0.32490259732E+01 -0.26114133256E+01  0.43710208554E+01  0.51100000000E-03 0.  1.
        -12    1    3    3    0    0  0.87616357315E+01 -0.14696187271E+02 -0.37794971576E+01  0.17522236723E+02  0.00000000000E+00 0.  1.
</event>
<event>
 7    1  0.2900470E-011  0.5052876E+02  0.7816164E-02  0.1300439E+00
        -11   -1    0    0    0    0  0.00000000000E+00  0.00000000000E+00  0.45593999997E+02  0.45594000000E+02  0.51100000000E-03 0. -1.
         11   -1    0    0    0    0 -0.00000000000E+00 -0.00000000000E+00 -0.45593999997E+02  0.45594000000E+02  0.51100000000E-03 0.  1.
    9900012    2    1    2    0    0 -0.24142134708E+01  0.38525436563E+02 -0.12772468228E+02  0.50528762013E+02  0.29999702612E+02 0.  0.
         12    1    1    2    0    0  0.24142134708E+01 -0.38525436563E+02  0.12772468228E+02  0.40659237987E+02  0.00000000000E+00 0. -1.
         11    1    3    3    0    0  0.71557453908E+01  0.19292599425E+01 -0.48559868780E+01  0.88604370572E+01  0.51100000000E-03 0. -1.
        -11    1    3    3    0    0 -0.12981997981E+02  0.31541879638E+02 -0.94232903884E+01  0.35386732608E+02  0.51100000000E-03 0.  1.
        -12    1    3    3    0    0  0.34120391193E+01  0.50542969829E+01  0.15068090385E+01  0.62815923476E+01  0.00000000000E+00 0.  1.
</event>
<event>
 7    1  0.2900470E-011  0.5052884E+02  0.7816164E-02  0.1300439E+00
        -11   -1    0    0    0    0  0.00000000000E+00  0.00000000000E+00  0.45593999997E+02  0.45594000000E+02  0.51100000000E-03 0.  1.
         11   -1    0    0    0    0 -0.00000000000E+00 -0.00000000000E+00 -0.45593999997E+02  0.45594000000E+02  0.51100000000E-03 0. -1.
    9900012    2    1    2    0    0 -0.36022830707E+02  0.17377579093E+02  0.73172785201E+01  0.50528841718E+02  0.29999944887E+02 0.  0.
         12    1    1    2    0    0  0.36022830707E+02 -0.17377579093E+02 -0.73172785201E+01  0.40659158282E+02  0.00000000000E+00 0. -1.
         11    1    3    3    0    0 -0.61808561623E+01  0.18813920356E+00 -0.31164997296E+01  0.69246624528E+01  0.51100000000E-03 0. -1.
        -11    1    3    3    0    0 -0.27116216888E+02  0.23232213787E+02  0.89019375337E+01  0.36800400377E+02  0.51100000000E-03 0.  1.
        -12    1    3    3    0    0 -0.27257576557E+01 -0.60427738981E+01  0.15318407161E+01  0.68037788882E+01  0.00000000000E+00 0.  1.
</event>
<event>
 7    1  0.2900470E-011  0.5052881E+02  0.7816164E-02  0.1300439E+00
        -11   -1    0    0    0    0  0.00000000000E+00  0.00000000000E+00  0.45593999997E+02  0.45594000000E+02  0.51100000000E-03 0.  1.
         11   -1    0    0    0    0 -0.00000000000E+00 -0.00000000000E+00 -0.45593999997E+02  0.45594000000E+02  0.51100000000E-03 0. -1.
    9900012    2    1    2    0    0 -0.29331476710E+02 -0.26148973799E+02  0.10443441830E+02  0.50528808739E+02  0.29999844644E+02 0.  0.
         12    1    1    2    0    0  0.29331476710E+02  0.26148973799E+02 -0.10443441830E+02  0.40659191261E+02  0.00000000000E+00 0. -1.
         11    1    3    3    0    0 -0.41046343123E+00 -0.58732683130E+01 -0.37082910661E+01  0.69581020255E+01  0.51100000000E-03 0. -1.
        -11    1    3    3    0    0 -0.30720820976E+02 -0.19094039580E+02  0.79892585994E+01  0.37042940517E+02  0.51100000000E-03 0.  1.
        -12    1    3    3    0    0  0.17998076975E+01 -0.11816659058E+01  0.61624742971E+01  0.65277661971E+01  0.00000000000E+00 0.  1.
</event>
<event>
 7    1  0.2900470E-011  0.5052886E+02  0.7816164E-02  0.1300439E+00
        -11   -1    0    0    0    0  0.00000000000E+00  0.00000000000E+00  0.45593999997E+02  0.45594000000E+02  0.51100000000E-03 0. -1.
         11   -1    0    0    0    0 -0.00000000000E+00 -0.00000000000E+00 -0.45593999997E+02  0.45594000000E+02  0.51100000000E-03 0.  1.
    9900012    2    1    2    0    0 -0.36539267567E+02 -0.17534658518E+02 -0.32531909920E+01  0.50528861110E+02  0.30000003830E+02 0.  0.
         12    1    1    2    0    0  0.36539267567E+02  0.17534658518E+02  0.32531909920E+01  0.40659138890E+02  0.00000000000E+00 0. -1.
         11    1    3    3    0    0  0.27802338695E+00 -0.17260592237E+00  0.55277359763E+01  0.55374141160E+01  0.51100000000E-03 0. -1.
        -11    1    3    3    0    0 -0.16497587377E+02 -0.16373503843E+02 -0.81731441694E+01  0.24638634362E+02  0.51100000000E-03 0.  1.
         12    1    3    3    0    0 -0.20319703577E+02 -0.98854875198E+00 -0.60778279888E+00  0.20352812631E+02  0.00000000000E+00 0. -1.
</event>
<event>
 7    1  0.2900470E-011  0.5052886E+02  0.7816164E-02  0.1300439E+00
        -11   -1    0    0    0    0  0.00000000000E+00  0.00000000000E+00  0.45593999997E+02  0.45594000000E+02  0.51100000000E-03 0. -1.
         11   -1    0    0    0    0 -0.00000000000E+00 -0.00000000000E+00 -0.45593999997E+02  0.45594000000E+02  0.51100000000E-03 0.  1.
    9900012    2    1    2    0    0 -0.25094309717E+02 -0.24726162522E+02 -0.20299221893E+02  0.50528857084E+02  0.29999991592E+02 0.  0.
         12    1    1    2    0    0  0.25094309717E+02  0.24726162522E+02  0.20299221893E+02  0.40659142916E+02  0.00000000000E+00 0. -1.
         11    1    3    3    0    0 -0.16204994184E+02 -0.20272519116E+02 -0.19647764508E+01  0.26027624067E+02  0.51100000000E-03 0. -1.
        -11    1    3    3    0    0 -0.43960501195E+01  0.40650125766E+01 -0.38891571867E+01  0.71396868128E+01  0.51100000000E-03 0.  1.
         12    1    3    3    0    0 -0.44932654131E+01 -0.85186559830E+01 -0.14445288255E+02  0.17361546204E+02  0.00000000000E+00 0. -1.
</event>
<event>
 7    1  0.2900470E-011  0.5052886E+02  0.7816164E-02  0.1300439E+00
        -11   -1    0    0    0    0  0.00000000000E+00  0.00000000000E+00  0.45593999997E+02  0.45594000000E+02  0.51100000000E-03 0.  1.
         11   -1    0    0    0    0 -0.00000000000E+00 -0.00000000000E+00 -0.45593999997E+02  0.45594000000E+02  0.51100000000E-03 0. -1.
    9900012    2    1    2    0    0 -0.74606707785E+01 -0.36543654785E+02  0.16188421182E+02  0.50528864570E+02  0.30000014348E+02 0.  0.
         12    1    1    2    0    0  0.74606707785E+01  0.36543654785E+02 -0.16188421182E+02  0.40659135430E+02  0.00000000000E+00 0. -1.
         11    1    3    3    0    0 -0.12882651447E+02 -0.72893584688E+01  0.60321883306E+01  0.15983890375E+02  0.51100000000E-03 0. -1.
        -11    1    3    3    0    0  0.84515132522E+00 -0.28192981262E+02  0.96895617487E+01  0.29823582621E+02  0.51100000000E-03 0.  1.
        -12    1    3    3    0    0  0.45768293436E+01 -0.10613150544E+01  0.46667110290E+00  0.47213915748E+01  0.00000000000E+00 0.  1.
</event>
<event>
 7    1  0.2900470E-011  0.5052887E+02  0.7816164E-02  0.1300439E+00
        -11   -1    0    0    0    0  0.00000000000E+00  0.00000000000E+00  0.45593999997E+02  0.45594000000E+02  0.51100000000E-03 0.  1.
         11   -1    0    0    0    0 -0.00000000000E+00 -0.00000000000E+00 -0.45593999997E+02  0.45594000000E+02  0.51100000000E-03 0. -1.
    9900012    2    1    2    0    0  0.29742646729E+02  0.25044159332E+02  0.11888240528E+02  0.50528865554E+02  0.30000017337E+02 0.  0.
         12    1    1    2    0    0 -0.29742646729E+02 -0.25044159332E+02 -0.11888240528E+02  0.40659134446E+02  0.00000000000E+00 0. -1.
         11    1    3    3    0    0 -0.30679496304E+01  0.90199105843E+01 -0.16183668388E+01  0.96638612039E+01  0.51100000000E-03 0.  1.
        -11    1    3    3    0    0  0.23052086307E+02  0.53540830757E+01  0.53478537336E+01  0.24262407723E+02  0.51100000000E-03 0. -1.
         12    1    3    3    0    0  0.97585100524E+01  0.10670165672E+02  0.81587536334E+01  0.16602596627E+02  0.00000000000E+00 0. -1.
</event>
<event>
 7    1  0.2900470E-011  0.5052879E+02  0.7816164E-02  0.1300439E+00
        -11   -1    0    0    0    0  0.00000000000E+00  0.00000000000E+00  0.45593999997E+02  0.45594000000E+02  0.51100000000E-03 0.  1.
         11   -1    0    0    0    0 -0.00000000000E+00 -0.00000000000E+00 -0.45593999997E+02  0.45594000000E+02  0.51100000000E-03 0. -1.
    9900012    2    1    2    0    0 -0.84346665960E+01  0.30325081017E+02  0.25737459559E+02  0.50528794845E+02  0.29999802409E+02 0.  0.
         12    1    1    2    0    0  0.84346665960E+01 -0.30325081017E+02 -0.25737459559E+02  0.40659205155E+02  0.00000000000E+00 0. -1.
         11    1    3    3    0    0 -0.10802706228E+02  0.65623724297E+01  0.34597741379E+01  0.13104702633E+02  0.51100000000E-03 0. -1.
        -11    1    3    3    0    0  0.84420736679E+00  0.17932358800E+02  0.25027390368E+02  0.30800202062E+02  0.51100000000E-03 0.  1.
        -12    1    3    3    0    0  0.15238322648E+01  0.58303497878E+01 -0.27497049466E+01  0.66238901495E+01  0.00000000000E+00 0.  1.
</event>
<event>
 7    1  0.2900470E-011  0.5052886E+02  0.7816164E-02  0.1300439E+00
        -11   -1    0    0    0    0  0.00000000000E+00  0.00000000000E+00  0.45593999997E+02  0.45594000000E+02  0.51100000000E-03 0.  1.
         11   -1    0    0    0    0 -0.00000000000E+00 -0.00000000000E+00 -0.45593999997E+02  0.45594000000E+02  0.51100000000E-03 0. -1.
    9900012    2    1    2    0    0 -0.22529564928E+01  0.36979964360E+02  0.16750288533E+02  0.50528859048E+02  0.29999997562E+02 0.  0.
         12    1    1    2    0    0  0.22529564928E+01 -0.36979964360E+02 -0.16750288533E+02  0.40659140952E+02  0.00000000000E+00 0. -1.
         11    1    3    3    0    0  0.32958399671E+01 -0.40519849543E+01 -0.74253104872E+00  0.52756512184E+01  0.51100000000E-03 0. -1.
        -11    1    3    3    0    0 -0.34157055760E+01  0.34647287147E+02  0.16195106881E+02  0.38397695743E+02  0.51100000000E-03 0.  1.
         12    1    3    3    0    0 -0.21330908839E+01  0.63846621677E+01  0.12977127006E+01  0.68555120865E+01  0.00000000000E+00 0. -1.
</event>
<event>
 7    1  0.2900470E-011  0.5052886E+02  0.7816164E-02  0.1300439E+00
        -11   -1    0    0    0    0  0.00000000000E+00  0.00000000000E+00  0.45593999997E+02  0.45594000000E+02  0.51100000000E-03 0.  1.
         11   -1    0    0    0    0 -0.00000000000E+00 -0.00000000000E+00 -0.45593999997E+02  0.45594000000E+02  0.51100000000E-03 0. -1.
    9900012    2    1    2    0    0 -0.16526087566E+02 -0.10258282581E+02  0.35704641443E+02  0.50528863852E+02  0.30000012163E+02 0.  0.
         12    1    1    2    0    0  0.16526087566E+02  0.10258282581E+02 -0.35704641443E+02  0.40659136148E+02  0.00000000000E+00 0. -1.
         11    1    3    3    0    0 -0.14429368833E+02 -0.16569513365E+02  0.13641852236E+02  0.25862242570E+02  0.51100000000E-03 0. -1.
        -11    1    3    3    0    0 -0.65857851351E+00  0.83819797659E+01  0.18277179373E+02  0.20118314953E+02  0.51100000000E-03 0.  1.
        -12    1    3    3    0    0 -0.14381402202E+01 -0.20707489821E+01  0.37856098339E+01  0.45483063282E+01  0.00000000000E+00 0.  1.
</event>
<event>
 7    1  0.2900470E-011  0.5052885E+02  0.7816164E-02  0.1300439E+00
        -11   -1    0    0    0    0  0.00000000000E+00  0.00000000000E+00  0.45593999997E+02  0.45594000000E+02  0.51100000000E-03 0.  1.
         11   -1    0    0    0    0 -0.00000000000E+00 -0.00000000000E+00 -0.45593999997E+02  0.45594000000E+02  0.51100000000E-03 0. -1.
    9900012    2    1    2    0    0  0.13551860857E+02 -0.19040558446E+02  0.33271173390E+02  0.50528846328E+02  0.29999958898E+02 0.  0.
         12    1    1    2    0    0 -0.13551860857E+02  0.19040558446E+02 -0.33271173390E+02  0.40659153672E+02  0.00000000000E+00 0. -1.
         11    1    3    3    0    0 -0.54910439718E+01  0.84808435608E+00  0.11034023457E+02  0.12353966362E+02  0.51100000000E-03 0. -1.
        -11    1    3    3    0    0  0.74582797923E+01 -0.10649832228E+02  0.18975713561E+02  0.23002664397E+02  0.51100000000E-03 0.  1.
         12    1    3    3    0    0  0.11584625036E+02 -0.92388105743E+01  0.32614363721E+01  0.15172215569E+02  0.00000000000E+00 0. -1.
</event>
<event>
 7    1  0.2900470E-011  0.5052874E+02  0.7816164E-02  0.1300439E+00
        -11   -1    0    0    0    0  0.00000000000E+00  0.00000000000E+00  0.45593999997E+02  0.45594000000E+02  0.51100000000E-03 0. -1.
         11   -1    0    0    0    0 -0.00000000000E+00 -0.00000000000E+00 -0.45593999997E+02  0.45594000000E+02  0.51100000000E-03 0.  1.
    9900012    2    1    2    0    0  0.38855007749E+02 -0.80493785188E+00 -0.11950556450E+02  0.50528740887E+02  0.29999638398E+02 0.  0.
         12    1    1    2    0    0 -0.38855007749E+02  0.80493785188E+00  0.11950556450E+02  0.40659259113E+02  0.00000000000E+00 0. -1.
         11    1    3    3    0    0  0.13650394054E+02 -0.10984885292E+02  0.24075546004E+01  0.17686075939E+02  0.51100000000E-03 0. -1.
        -11    1    3    3    0    0  0.15542636852E+02  0.10442676786E+02 -0.13609339386E+02  0.23148157110E+02  0.51100000000E-03 0.  1.
        -12    1    3    3    0    0  0.96619768433E+01 -0.26272934629E+00 -0.74877166442E+00  0.96945078388E+01  0.00000000000E+00 0.  1.
</event>
<event>
 7    1  0.2900470E-011  0.5052885E+02  0.7816164E-02  0.1300439E+00
        -11   -1    0    0    0    0  0.00000000000E+00  0.00000000000E+00  0.45593999997E+02  0.45594000000E+02  0.51100000000E-03 0.  1.
         11   -1    0    0    0    0 -0.00000000000E+00 -0.00000000000E+00 -0.45593999997E+02  0.45594000000E+02  0.51100000000E-03 0. -1.
    9900012    2    1    2    0    0 -0.29068482028E+02 -0.58863796145E+01  0.27812590397E+02  0.50528852235E+02  0.29999976853E+02 0.  0.
         12    1    1    2    0    0  0.29068482028E+02  0.58863796145E+01 -0.27812590397E+02  0.40659147765E+02  0.00000000000E+00 0. -1.
         11    1    3    3    0    0 -0.44519239857E+01 -0.66592465528E+01 -0.32168138589E+01  0.86320961237E+01  0.51100000000E-03 0. -1.
        -11    1    3    3    0    0 -0.95829869620E+01 -0.49400952795E+01  0.18878164690E+02  0.21739900709E+02  0.51100000000E-03 0.  1.
         12    1    3    3    0    0 -0.15033571081E+02  0.57129622177E+01  0.12151239566E+02  0.20156855403E+02  0.00000000000E+00 0. -1.
</event>
<event>
 7    1  0.2900470E-011  0.5052887E+02  0.7816164E-02  0.1300439E+00
        -11   -1    0    0    0    0  0.00000000000E+00  0.00000000000E+00  0.45593999997E+02  0.45594000000E+02  0.51100000000E-03 0. -1.
         11   -1    0    0    0    0 -0.00000000000E+00 -0.00000000000E+00 -0.45593999997E+02  0.45594000000E+02  0.51100000000E-03 0.  1.
    9900012    2    1    2    0    0 -0.18843301012E+02 -0.33796641829E+02 -0.12485269826E+02  0.50528868743E+02  0.30000027031E+02 0.  0.
         12    1    1    2    0    0  0.18843301012E+02  0.33796641829E+02  0.12485269826E+02  0.40659131257E+02  0.00000000000E+00 0. -1.
         11    1    3    3    0    0 -0.97904770940E+00 -0.11495749503E+02  0.85866304820E+01  0.14381968376E+02  0.51100000000E-03 0. -1.
        -11    1    3    3    0    0 -0.13346588179E+02 -0.16014870294E+02 -0.18818481640E+02  0.28084564053E+02  0.51100000000E-03 0.  1.
        -12    1    3    3    0    0 -0.45176651237E+01 -0.62860220317E+01 -0.22534186682E+01  0.80623363144E+01  0.00000000000E+00 0.  1.
</event>
<event>
 7    1  0.2900470E-011  0.5052885E+02  0.7816164E-02  0.1300439E+00
        -11   -1    0    0    0    0  0.00000000000E+00  0.00000000000E+00  0.45593999997E+02  0.45594000000E+02  0.51100000000E-03 0.  1.
         11   -1    0    0    0    0 -0.00000000000E+00 -0.00000000000E+00 -0.45593999997E+02  0.45594000000E+02  0.51100000000E-03 0. -1.
    9900012    2    1    2    0    0 -0.49011500473E+01 -0.23627723195E+02  0.32724243966E+02  0.50528847054E+02  0.29999961105E+02 0.  0.
         12    1    1    2    0    0  0.49011500473E+01  0.23627723195E+02 -0.32724243966E+02  0.40659152946E+02  0.00000000000E+00 0. -1.
         11    1    3    3    0    0  0.53313908522E+01 -0.69500741608E+01  0.97486515365E+00  0.88134908855E+01  0.51100000000E-03 0. -1.
        -11    1    3    3    0    0 -0.11076759995E+02 -0.62379184989E+01  0.27714964932E+02  0.30491400766E+02  0.51100000000E-03 0.  1.
        -12    1    3    3    0    0  0.84421909589E+00 -0.10439730535E+02  0.40344138798E+01  0.11223955403E+02  0.00000000000E+00 0.  1.
</event>
<event>
 7    1  0.2900470E-011  0.5052886E+02  0.7816164E-02  0.1300439E+00
        -11   -1    0    0    0    0  0.00000000000E+00  0.00000000000E+00  0.45593999997E+02  0.45594000000E+02  0.51100000000E-03 0.  1.
         11   -1    0    0    0    0 -0.00000000000E+00 -0.00000000000E+00 -0.45593999997E+02  0.45594000000E+02  0.51100000000E-03 0. -1.
    9900012    2    1    2    0    0 -0.34515447624E+02  0.10833387170E+02  0.18560360129E+02  0.50528863630E+02  0.30000011489E+02 0.  0.
         12    1    1    2    0    0  0.34515447624E+02 -0.10833387170E+02 -0.18560360129E+02  0.40659136370E+02  0.00000000000E+00 0. -1.
         11    1    3    3    0    0 -0.10403727338E+02  0.62349381277E+01  0.23394948101E+01  0.12352539505E+02  0.51100000000E-03 0. -1.
        -11    1    3    3    0    0 -0.20555451638E+02 -0.64690436642E+01  0.15470019637E+02  0.26527280784E+02  0.51100000000E-03 0.  1.
        -12    1    3    3    0    0 -0.35562686475E+01  0.11067492707E+02  0.75084568154E+00  0.11649043340E+02  0.00000000000E+00 0.  1.
</event>
<event>
 7    1  0.2900470E-011  0.5052886E+02  0.7816164E-02  0.1300439E+00
        -11   -1    0    0    0    0  0.00000000000E+00  0.00000000000E+00  0.45593999997E+02  0.45594000000E+02  0.51100000000E-03 0. -1.
         11   -1    0    0    0    0 -0.00000000000E+00 -0.00000000000E+00 -0.45593999997E+02  0.45594000000E+02  0.51100000000E-03 0.  1.
    9900012    2    1    2    0    0 -0.16990347987E+02  0.70492541197E+01 -0.36260197257E+02  0.50528858181E+02  0.29999994927E+02 0.  0.
         12    1    1    2    0    0  0.16990347987E+02 -0.70492541197E+01  0.36260197257E+02  0.40659141819E+02  0.00000000000E+00 0. -1.
         11    1    3    3    0    0  0.48294428776E+01 -0.44853544558E+01 -0.15000530498E+02  0.16384683048E+02  0.51100000000E-03 0. -1.
        -11    1    3    3    0    0 -0.83783542403E+01  0.44279190473E+01 -0.14910827405E+02  0.17667372782E+02  0.51100000000E-03 0.  1.
         12    1    3    3    0    0 -0.13441436624E+02  0.71066895282E+01 -0.63488393537E+01  0.16476802351E+02  0.00000000000E+00 0. -1.
</event>
<event>
 7    1  0.2900470E-011  0.5052887E+02  0.7816164E-02  0.1300439E+00
        -11   -1    0    0    0    0  0.00000000000E+00  0.00000000000E+00  0.45593999997E+02  0.45594000000E+02  0.51100000000E-03 0. -1.
         11   -1    0    0    0    0 -0.00000000000E+00 -0.00000000000E+00 -0.45593999997E+02  0.45594000000E+02  0.51100000000E-03 0.  1.
    9900012    2    1    2    0    0 -0.20172150118E+01 -0.13109001891E+02 -0.38435010085E+02  0.50528867112E+02  0.30000022073E+02 0.  0.
         12    1    1    2    0    0  0.20172150118E+01  0.13109001891E+02  0.38435010085E+02  0.40659132888E+02  0.00000000000E+00 0. -1.
         11    1    3    3    0    0  0.57505410985E+01 -0.86779747522E+01 -0.24131875950E+02  0.26281617261E+02  0.51100000000E-03 0.  1.
        -11    1    3    3    0    0 -0.12766693906E+02 -0.62745290931E+01 -0.98404906278E+01  0.17297209159E+02  0.51100000000E-03 0. -1.
         12    1    3    3    0    0  0.49989377962E+01  0.18435019540E+01 -0.44626435069E+01  0.69500406916E+01  0.00000000000E+00 0. -1.
</event>
<event>
 7    1  0.2900470E-011  0.5052886E+02  0.7816164E-02  0.1300439E+00
        -11   -1    0    0    0    0  0.00000000000E+00  0.00000000000E+00  0.45593999997E+02  0.45594000000E+02  0.51100000000E-03 0. -1.
         11   -1    0    0    0    0 -0.00000000000E+00 -0.00000000000E+00 -0.45593999997E+02  0.45594000000E+02  0.51100000000E-03 0.  1.
    9900012    2    1    2    0    0 -0.20234829813E-01 -0.37704417046E+02 -0.15216520256E+02  0.50528856343E+02  0.29999989341E+02 0.  0.
         12    1    1    2    0    0  0.20234829813E-01  0.37704417046E+02  0.15216520256E+02  0.40659143657E+02  0.00000000000E+00 0. -1.
         11    1    3    3    0    0 -0.12866241756E+01 -0.12002424273E+02  0.41237949014E+01  0.12756146551E+02  0.51100000000E-03 0. -1.
        -11    1    3    3    0    0 -0.81876816842E+00 -0.23459426089E+02 -0.23093310793E+02  0.32928954696E+02  0.51100000000E-03 0.  1.
        -12    1    3    3    0    0  0.20851575142E+01 -0.22425666838E+01  0.37529956355E+01  0.48437550960E+01  0.00000000000E+00 0.  1.
</event>
<event>
 7    1  0.2900470E-011  0.5052886E+02  0.7816164E-02  0.1300439E+00
        -11   -1    0    0    0    0  0.00000000000E+00  0.00000000000E+00  0.45593999997E+02  0.45594000000E+02  0.51100000000E-03 0.  1.
         11   -1    0    0    0    0 -0.00000000000E+00 -0.00000000000E+00 -0.45593999997E+02  0.45594000000E+02  0.51100000000E-03 0. -1.
    9900012    2    1    2    0    0  0.26062747503E+02 -0.29103397658E+02  0.11264580910E+02  0.50528863933E+02  0.30000012411E+02 0.  0.
         12    1    1    2    0    0 -0.26062747503E+02  0.29103397658E+02 -0.11264580910E+02  0.40659136067E+02  0.00000000000E+00 0. -1.
         11    1    3    3    0    0  0.18818907342E+02 -0.15872899950E+02  0.16966262889E+02  0.29899068598E+02  0.51100000000E-03 0.  1.
        -11    1    3    3    0    0  0.49108805877E+00 -0.12667964482E+02 -0.55836110204E+01  0.13852624440E+02  0.51100000000E-03 0. -1.
         12    1    3    3    0    0  0.67527521020E+01 -0.56253322561E+00 -0.11807095850E+00  0.67771708944E+01  0.00000000000E+00 0. -1.
</event>
<event>
 7    1  0.2900470E-011  0.5052888E+02  0.7816164E-02  0.1300439E+00
        -11   -1    0    0    0    0  0.00000000000E+00  0.00000000000E+00  0.45593999997E+02  0.45594000000E+02  0.51100000000E-03 0.  1.
         11   -1    0    0    0    0 -0.00000000000E+00 -0.00000000000E+00 -0.45593999997E+02  0.45594000000E+02  0.51100000000E-03 0. -1.
    9900012    2    1    2    0    0  0.37515455000E+02  0.42081046748E+00  0.15670926950E+02  0.50528875602E+02  0.30000047880E+02 0.  0.
         12    1    1    2    0    0 -0.37515455000E+02 -0.42081046748E+00 -0.15670926950E+02  0.40659124398E+02  0.00000000000E+00 0. -1.
         11    1    3    3    0    0  0.21272860617E+02 -0.46904488771E+01 -0.46045729115E+01  0.22265152177E+02  0.51100000000E-03 0. -1.
        -11    1    3    3    0    0  0.14986093297E+02  0.20672040722E+01  0.19828343067E+02  0.24940319044E+02  0.51100000000E-03 0.  1.
         12    1    3    3    0    0  0.12565010863E+01  0.30440552724E+01  0.44715679492E+00  0.33234043811E+01  0.00000000000E+00 0. -1.
</event>
<event>
 7    1  0.2900470E-011  0.5052886E+02  0.7816164E-02  0.1300439E+00
        -11   -1    0    0    0    0  0.00000000000E+00  0.00000000000E+00  0.45593999997E+02  0.45594000000E+02  0.51100000000E-03 0.  1.
         11   -1    0    0    0    0 -0.00000000000E+00 -0.00000000000E+00 -0.45593999997E+02  0.45594000000E+02  0.51100000000E-03 0. -1.
    9900012    2    1    2    0    0 -0.33623322169E+02  0.21704019592E+02  0.71814828891E+01  0.50528856420E+02  0.29999989575E+02 0.  0.
         12    1    1    2    0    0  0.33623322169E+02 -0.21704019592E+02 -0.71814828891E+01  0.40659143580E+02  0.00000000000E+00 0. -1.
         11    1    3    3    0    0 -0.23295248107E+02  0.10017708529E+02 -0.66376114975E+01  0.26212229115E+02  0.51100000000E-03 0. -1.
        -11    1    3    3    0    0 -0.71469763635E+01  0.10816258902E+02  0.34208810106E+01  0.13407951183E+02  0.51100000000E-03 0.  1.
         12    1    3    3    0    0 -0.31810976989E+01  0.87005216101E+00  0.10398213376E+02  0.10908676123E+02  0.00000000000E+00 0. -1.
</event>
<event>
 7    1  0.2900470E-011  0.5052887E+02  0.7816164E-02  0.1300439E+00
        -11   -1    0    0    0    0  0.00000000000E+00  0.00000000000E+00  0.45593999997E+02  0.45594000000E+02  0.51100000000E-03 0. -1.
         11   -1    0    0    0    0 -0.00000000000E+00 -0.00000000000E+00 -0.45593999997E+02  0.45594000000E+02  0.51100000000E-03 0.  1.
    9900012    2    1    2    0    0  0.20669672132E+02  0.59293625549E+01 -0.34507564875E+02  0.50528871628E+02  0.30000035802E+02 0.  0.
         12    1    1    2    0    0 -0.20669672132E+02 -0.59293625549E+01  0.34507564875E+02  0.40659128372E+02  0.00000000000E+00 0. -1.
         11    1    3    3    0    0  0.10212545378E+02 -0.51632109447E+01 -0.21917027891E+02  0.24724703076E+02  0.51100000000E-03 0. -1.
        -11    1    3    3    0    0  0.12690333219E+02  0.11826047699E+02 -0.14629952677E+02  0.22692189779E+02  0.51100000000E-03 0.  1.
        -12    1    3    3    0    0 -0.22332064648E+01 -0.73347419902E+00  0.20394156935E+01  0.31119787733E+01  0.00000000000E+00 0.  1.
</event>
<event>
 7    1  0.2900470E-011  0.5052886E+02  0.7816164E-02  0.1300439E+00
        -11   -1    0    0    0    0  0.00000000000E+00  0.00000000000E+00  0.45593999997E+02  0.45594000000E+02  0.51100000000E-03 0.  1.
         11   -1    0    0    0    0 -0.00000000000E+00 -0.00000000000E+00 -0.45593999997E+02  0.45594000000E+02  0.51100000000E-03 0. -1.
    9900012    2    1    2    0    0 -0.37166774194E+02 -0.55810172234E+01  0.15512857073E+02  0.50528860907E+02  0.30000003212E+02 0.  0.
         12    1    1    2    0    0  0.37166774194E+02  0.55810172234E+01 -0.15512857073E+02  0.40659139093E+02  0.00000000000E+00 0. -1.
         11    1    3    3    0    0 -0.22503322666E+01  0.40961921956E+00 -0.62041373730E+01  0.66123448201E+01  0.51100000000E-03 0. -1.
        -11    1    3    3    0    0 -0.28784948951E+02 -0.10050215113E+02  0.19669538583E+02  0.36283203528E+02  0.51100000000E-03 0.  1.
        -12    1    3    3    0    0 -0.61314929763E+01  0.40595786703E+01  0.20474558629E+01  0.76333125581E+01  0.00000000000E+00 0.  1.
</event>
<event>
 7    1  0.2900470E-011  0.5052887E+02  0.7816164E-02  0.1300439E+00
        -11   -1    0    0    0    0  0.00000000000E+00  0.00000000000E+00  0.45593999997E+02  0.45594000000E+02  0.51100000000E-03 0.  1.
         11   -1    0    0    0    0 -0.00000000000E+00 -0.00000000000E+00 -0.45593999997E+02  0.45594000000E+02  0.51100000000E-03 0. -1.
    9900012    2    1    2    0    0 -0.21426022367E+02  0.14494387329E+02  0.31368820420E+02  0.50528873189E+02  0.30000040546E+02 0.  0.
         12    1    1    2    0    0  0.21426022367E+02 -0.14494387329E+02 -0.31368820420E+02  0.40659126811E+02  0.00000000000E+00 0. -1.
         11    1    3    3    0    0  0.60005260339E+01  0.12280421630E+01  0.82765492986E+01  0.10296391057E+02  0.51100000000E-03 0. -1.
        -11    1    3    3    0    0 -0.15088644913E+02  0.21651112522E+01  0.59252988100E+01  0.16354329039E+02  0.51100000000E-03 0.  1.
         12    1    3    3    0    0 -0.12337903487E+02  0.11101233913E+02  0.17166972311E+02  0.23878153094E+02  0.00000000000E+00 0. -1.
</event>
<event>
 7    1  0.2900470E-011  0.5052885E+02  0.7816164E-02  0.1300439E+00
        -11   -1    0    0    0    0  0.00000000000E+00  0.00000000000E+00  0.45593999997E+02  0.45594000000E+02  0.51100000000E-03 0.  1.
         11   -1    0    0    0    0 -0.00000000000E+00 -0.00000000000E+00 -0.45593999997E+02  0.45594000000E+02  0.51100000000E-03 0. -1.
    9900012    2    1    2    0    0  0.15972153942E+02 -0.16927094521E+01  0.37352258023E+02  0.50528854088E+02  0.29999982487E+02 0.  0.
         12    1    1    2    0    0 -0.15972153942E+02  0.16927094521E+01 -0.37352258023E+02  0.40659145912E+02  0.00000000000E+00 0. -1.
         11    1    3    3    0    0  0.82057765028E+01 -0.35140125456E+01  0.25758464903E+02  0.27261356654E+02  0.51100000000E-03 0.  1.
        -11    1    3    3    0    0  0.11406180213E+02 -0.37324433588E+01  0.29337317800E+01  0.12354710151E+02  0.51100000000E-03 0. -1.
         12    1    3    3    0    0 -0.36398027744E+01  0.55537464523E+01  0.86600613397E+01  0.10912787284E+02  0.00000000000E+00 0. -1.
</event>
<event>
 7    1  0.2900470E-011  0.5052886E+02  0.7816164E-02  0.1300439E+00
        -11   -1    0    0    0    0  0.00000000000E+00  0.00000000000E+00  0.45593999997E+02  0.45594000000E+02  0.51100000000E-03 0.  1.
         11   -1    0    0    0    0 -0.00000000000E+00 -0.00000000000E+00 -0.45593999997E+02  0.45594000000E+02  0.51100000000E-03 0. -1.
    9900012    2    1    2    0    0 -0.29734877478E+02  0.45900223639E+01  0.27348394135E+02  0.50528857047E+02  0.29999991480E+02 0.  0.
         12    1    1    2    0    0  0.29734877478E+02 -0.45900223639E+01 -0.27348394135E+02  0.40659142953E+02  0.00000000000E+00 0. -1.
         11    1    3    3    0    0  0.16832549037E+01 -0.91378509311E+00 -0.80395232993E+00  0.20771831593E+01  0.51100000000E-03 0. -1.
        -11    1    3    3    0    0 -0.11007495801E+02  0.16651662403E+01  0.25102593190E+02  0.27460479376E+02  0.51100000000E-03 0.  1.
        -12    1    3    3    0    0 -0.20410636580E+02  0.38386412168E+01  0.30497532745E+01  0.20991194512E+02  0.00000000000E+00 0.  1.
</event>
<event>
 7    1  0.2900470E-011  0.5052887E+02  0.7816164E-02  0.1300439E+00
        -11   -1    0    0    0    0  0.00000000000E+00  0.00000000000E+00  0.45593999997E+02  0.45594000000E+02  0.51100000000E-03 0. -1.
         11   -1    0    0    0    0 -0.00000000000E+00 -0.00000000000E+00 -0.45593999997E+02  0.45594000000E+02  0.51100000000E-03 0.  1.
    9900012    2    1    2    0    0 -0.30074690679E+02 -0.27355968368E+02 -0.57347753845E+00  0.50528869398E+02  0.30000029023E+02 0.  0.
         12    1    1    2    0    0  0.30074690679E+02  0.27355968368E+02  0.57347753845E+00  0.40659130602E+02  0.00000000000E+00 0. -1.
         11    1    3    3    0    0  0.66733022035E+00 -0.62766276095E+01  0.65133894043E+01  0.90700399980E+01  0.51100000000E-03 0. -1.
        -11    1    3    3    0    0 -0.22516855835E+02 -0.11882646975E+02  0.28469724608E+01  0.25618574283E+02  0.51100000000E-03 0.  1.
         12    1    3    3    0    0 -0.82251650644E+01 -0.91966937834E+01 -0.99338394035E+01  0.15840255117E+02  0.00000000000E+00 0. -1.
</event>
<event>
 7    1  0.2900470E-011  0.5052886E+02  0.7816164E-02  0.1300439E+00
        -11   -1    0    0    0    0  0.00000000000E+00  0.00000000000E+00  0.45593999997E+02  0.45594000000E+02  0.51100000000E-03 0.  1.
         11   -1    0    0    0    0 -0.00000000000E+00 -0.00000000000E+00 -0.45593999997E+02  0.45594000000E+02  0.51100000000E-03 0. -1.
    9900012    2    1    2    0    0  0.15635231952E+02 -0.31320372743E+02  0.20681863012E+02  0.50528859765E+02  0.29999999742E+02 0.  0.
         12    1    1    2    0    0 -0.15635231952E+02  0.31320372743E+02 -0.20681863012E+02  0.40659140235E+02  0.00000000000E+00 0. -1.
         11    1    3    3    0    0 -0.55127316664E+00  0.33500550771E+01 -0.21584715697E+01  0.40231543473E+01  0.51100000000E-03 0. -1.
        -11    1    3    3    0    0  0.41948951206E+01 -0.15225777782E+02  0.16405065771E+02  0.22771641077E+02  0.51100000000E-03 0.  1.
         12    1    3    3    0    0  0.11991609998E+02 -0.19444650038E+02  0.64352688116E+01  0.23734064341E+02  0.00000000000E+00 0. -1.
</event>
<event>
 7    1  0.2900470E-011  0.5052891E+02  0.7816164E-02  0.1300439E+00
        -11   -1    0    0    0    0  0.00000000000E+00  0.00000000000E+00  0.45593999997E+02  0.45594000000E+02  0.51100000000E-03 0. -1.
         11   -1    0    0    0    0 -0.00000000000E+00 -0.00000000000E+00 -0.45593999997E+02  0.45594000000E+02  0.51100000000E-03 0.  1.
    9900012    2    1    2    0    0  0.21453479496E+02 -0.31527390420E+02 -0.14104380265E+02  0.50528909112E+02  0.30000149736E+02 0.  0.
         12    1    1    2    0    0 -0.21453479496E+02  0.31527390420E+02  0.14104380265E+02  0.40659090888E+02  0.00000000000E+00 0. -1.
         11    1    3    3    0    0 -0.87451299115E+00 -0.39535977896E+00 -0.11631257883E+02  0.11670785857E+02  0.51100000000E-03 0.  1.
        -11    1    3    3    0    0  0.10977033557E+02 -0.19676137669E+02 -0.29545626604E+01  0.22723888313E+02  0.51100000000E-03 0. -1.
        -12    1    3    3    0    0  0.11350958930E+02 -0.11455892972E+02  0.48144027792E+00  0.16134234942E+02  0.00000000000E+00 0.  1.
</event>
<event>
 7    1  0.2900470E-011  0.5052880E+02  0.7816164E-02  0.1300439E+00
        -11   -1    0    0    0    0  0.00000000000E+00  0.00000000000E+00  0.45593999997E+02  0.45594000000E+02  0.51100000000E-03 0. -1.
         11   -1    0    0    0    0 -0.00000000000E+00 -0.00000000000E+00 -0.45593999997E+02  0.45594000000E+02  0.51100000000E-03 0.  1.
    9900012    2    1    2    0    0  0.31437821791E+02 -0.16260194284E+02  0.20011000468E+02  0.50528798128E+02  0.29999812390E+02 0.  0.
         12    1    1    2    0    0 -0.31437821791E+02  0.16260194284E+02 -0.20011000468E+02  0.40659201872E+02  0.00000000000E+00 0. -1.
         11    1    3    3    0    0  0.13669297331E+02 -0.10218684784E+02  0.12065134267E+02  0.20900685955E+02  0.51100000000E-03 0. -1.
        -11    1    3    3    0    0  0.59568425217E+01  0.81206536300E+01  0.21575900393E+01  0.10299717629E+02  0.51100000000E-03 0.  1.
        -12    1    3    3    0    0  0.11811681939E+02 -0.14162163130E+02  0.57882761616E+01  0.19328394544E+02  0.00000000000E+00 0.  1.
</event>
<event>
 7    1  0.2900470E-011  0.5052893E+02  0.7816164E-02  0.1300439E+00
        -11   -1    0    0    0    0  0.00000000000E+00  0.00000000000E+00  0.45593999997E+02  0.45594000000E+02  0.51100000000E-03 0.  1.
         11   -1    0    0    0    0 -0.00000000000E+00 -0.00000000000E+00 -0.45593999997E+02  0.45594000000E+02  0.51100000000E-03 0. -1.
    9900012    2    1    2    0    0  0.24479863034E+02  0.14435598488E+01  0.32431658447E+02  0.50528929317E+02  0.30000211150E+02 0.  0.
         12    1    1    2    0    0 -0.24479863034E+02 -0.14435598488E+01 -0.32431658447E+02  0.40659070683E+02  0.00000000000E+00 0. -1.
         11    1    3    3    0    0  0.89668630426E+01 -0.10808410739E+02  0.62210944969E+01  0.15359960694E+02  0.51100000000E-03 0. -1.
        -11    1    3    3    0    0  0.16239772446E+02  0.96469785473E+01  0.26395788816E+02  0.32458158784E+02  0.51100000000E-03 0.  1.
        -12    1    3    3    0    0 -0.72677245413E+00  0.26049920403E+01 -0.18522486578E+00  0.27108098385E+01  0.00000000000E+00 0.  1.
</event>
<event>
 7    1  0.2900470E-011  0.5052887E+02  0.7816164E-02  0.1300439E+00
        -11   -1    0    0    0    0  0.00000000000E+00  0.00000000000E+00  0.45593999997E+02  0.45594000000E+02  0.51100000000E-03 0.  1.
         11   -1    0    0    0    0 -0.00000000000E+00 -0.00000000000E+00 -0.45593999997E+02  0.45594000000E+02  0.51100000000E-03 0. -1.
    9900012    2    1    2    0    0 -0.35163145138E+02 -0.87848007918E+01  0.18426762612E+02  0.50528867185E+02  0.30000022295E+02 0.  0.
         12    1    1    2    0    0  0.35163145138E+02  0.87848007918E+01 -0.18426762612E+02  0.40659132815E+02  0.00000000000E+00 0. -1.
         11    1    3    3    0    0 -0.48578546127E+01 -0.34922056220E+01 -0.12059262608E+01  0.61031557372E+01  0.51100000000E-03 0. -1.
        -11    1    3    3    0    0 -0.29432678395E+02 -0.40339015771E+01  0.25010530886E+02  0.38834025994E+02  0.51100000000E-03 0.  1.
        -12    1    3    3    0    0 -0.87261212951E+00 -0.12586935927E+01 -0.53778420131E+01  0.55916854531E+01  0.00000000000E+00 0.  1.
</event>
<event>
 7    1  0.2900470E-011  0.5052875E+02  0.7816164E-02  0.1300439E+00
        -11   -1    0    0    0    0  0.00000000000E+00  0.00000000000E+00  0.45593999997E+02  0.45594000000E+02  0.51100000000E-03 0. -1.
         11   -1    0    0    0    0 -0.00000000000E+00 -0.00000000000E+00 -0.45593999997E+02  0.45594000000E+02  0.51100000000E-03 0.  1.
    9900012    2    1    2    0    0 -0.15107686577E+02  0.16704772456E+02 -0.33850889929E+02  0.50528753013E+02  0.29999675258E+02 0.  0.
         12    1    1    2    0    0  0.15107686577E+02 -0.16704772456E+02  0.33850889929E+02  0.40659246987E+02  0.00000000000E+00 0. -1.
         11    1    3    3    0    0 -0.61241973679E+01  0.57545240945E-01 -0.28846023055E+02  0.29489017467E+02  0.51100000000E-03 0. -1.
        -11    1    3    3    0    0 -0.42052423145E+01  0.13878628448E+01 -0.72937027803E+00  0.44880070703E+01  0.51100000000E-03 0.  1.
         12    1    3    3    0    0 -0.47782468948E+01  0.15259364371E+02 -0.42754965961E+01  0.16551728476E+02  0.00000000000E+00 0. -1.
</event>
<event>
 7    1  0.2900470E-011  0.5052886E+02  0.7816164E-02  0.1300439E+00
        -11   -1    0    0    0    0  0.00000000000E+00  0.00000000000E+00  0.45593999997E+02  0.45594000000E+02  0.51100000000E-03 0.  1.
         11   -1    0    0    0    0 -0.00000000000E+00 -0.00000000000E+00 -0.45593999997E+02  0.45594000000E+02  0.51100000000E-03 0. -1.
    9900012    2    1    2    0    0 -0.12515506618E+00  0.14430907836E+02  0.38011828383E+02  0.50528857587E+02  0.29999993121E+02 0.  0.
         12    1    1    2    0    0  0.12515506618E+00 -0.14430907836E+02 -0.38011828383E+02  0.40659142413E+02  0.00000000000E+00 0. -1.
         11    1    3    3    0    0  0.24857693316E+01  0.14790970060E+00 -0.22093390041E+01  0.33289796553E+01  0.51100000000E-03 0. -1.
        -11    1    3    3    0    0 -0.85064064454E+01  0.12928256331E+02  0.37498135196E+02  0.40566105382E+02  0.51100000000E-03 0.  1.
        -12    1    3    3    0    0  0.58954820476E+01  0.13547418046E+01  0.27230321907E+01  0.66337725498E+01  0.00000000000E+00 0.  1.
</event>
<event>
 7    1  0.2900470E-011  0.5052886E+02  0.7816164E-02  0.1300439E+00
        -11   -1    0    0    0    0  0.00000000000E+00  0.00000000000E+00  0.45593999997E+02  0.45594000000E+02  0.51100000000E-03 0.  1.
         11   -1    0    0    0    0 -0.00000000000E+00 -0.00000000000E+00 -0.45593999997E+02  0.45594000000E+02  0.51100000000E-03 0. -1.
    9900012    2    1    2    0    0 -0.38606432839E+01 -0.19587494270E+02  0.35420211251E+02  0.50528857567E+02  0.29999993061E+02 0.  0.
         12    1    1    2    0    0  0.38606432839E+01  0.19587494270E+02 -0.35420211251E+02  0.40659142433E+02  0.00000000000E+00 0. -1.
         11    1    3    3    0    0 -0.12614766585E+02 -0.95346732155E+01  0.13568781841E+02  0.20836366531E+02  0.51100000000E-03 0. -1.
        -11    1    3    3    0    0  0.48710533630E+01 -0.88135911227E+01  0.31488678542E+01  0.10550920262E+02  0.51100000000E-03 0.  1.
         12    1    3    3    0    0  0.38830699381E+01 -0.12392299316E+01  0.18702561556E+02  0.19141570774E+02  0.00000000000E+00 0. -1.
</event>
<event>
 7    1  0.2900470E-011  0.5052886E+02  0.7816164E-02  0.1300439E+00
        -11   -1    0    0    0    0  0.00000000000E+00  0.00000000000E+00  0.45593999997E+02  0.45594000000E+02  0.51100000000E-03 0.  1.
         11   -1    0    0    0    0 -0.00000000000E+00 -0.00000000000E+00 -0.45593999997E+02  0.45594000000E+02  0.51100000000E-03 0. -1.
    9900012    2    1    2    0    0 -0.12270511982E+02 -0.32806095033E+02  0.20648501458E+02  0.50528856526E+02  0.29999989896E+02 0.  0.
         12    1    1    2    0    0  0.12270511982E+02  0.32806095033E+02 -0.20648501458E+02  0.40659143474E+02  0.00000000000E+00 0. -1.
         11    1    3    3    0    0 -0.47813197259E+01 -0.20830708929E+02 -0.32779108107E+01  0.21622306823E+02  0.51100000000E-03 0. -1.
        -11    1    3    3    0    0 -0.14533466917E+01 -0.53757392283E+01  0.16051825448E+02  0.16990346946E+02  0.51100000000E-03 0.  1.
         12    1    3    3    0    0 -0.60358455642E+01 -0.65996468754E+01  0.78745868204E+01  0.11916202757E+02  0.00000000000E+00 0. -1.
</event>
<event>
 7    1  0.2900470E-011  0.5052887E+02  0.7816164E-02  0.1300439E+00
        -11   -1    0    0    0    0  0.00000000000E+00  0.00000000000E+00  0.45593999997E+02  0.45594000000E+02  0.51100000000E-03 0. -1.
         11   -1    0    0    0    0 -0.00000000000E+00 -0.00000000000E+00 -0.45593999997E+02  0.45594000000E+02  0.51100000000E-03 0.  1.
    9900012    2    1    2    0    0 -0.25029160882E+02  0.27758733825E+02 -0.16004961530E+02  0.50528868288E+02  0.30000025649E+02 0.  0.
         12    1    1    2    0    0  0.25029160882E+02 -0.27758733825E+02  0.16004961530E+02  0.40659131712E+02  0.00000000000E+00 0. -1.
         11    1    3    3    0    0  0.76143291972E+00 -0.23568347168E+01 -0.22364436491E+01  0.33370841209E+01  0.51100000000E-03 0. -1.
        -11    1    3    3    0    0 -0.26663003599E+02  0.26797192647E+02 -0.17896082113E+02  0.41824335618E+02  0.51100000000E-03 0.  1.
        -12    1    3    3    0    0  0.87240979760E+00  0.33183758947E+01  0.41275642325E+01  0.53674485491E+01  0.00000000000E+00 0.  1.
</event>
<event>
 7    1  0.2900470E-011  0.5052886E+02  0.7816164E-02  0.1300439E+00
        -11   -1    0    0    0    0  0.00000000000E+00  0.00000000000E+00  0.45593999997E+02  0.45594000000E+02  0.51100000000E-03 0. -1.
         11   -1    0    0    0    0 -0.00000000000E+00 -0.00000000000E+00 -0.45593999997E+02  0.45594000000E+02  0.51100000000E-03 0.  1.
    9900012    2    1    2    0    0  0.36117403982E+02 -0.18605847231E+02 -0.15878543598E+01  0.50528859538E+02  0.29999999053E+02 0.  0.
         12    1    1    2    0    0 -0.36117403982E+02  0.18605847231E+02  0.15878543598E+01  0.40659140462E+02  0.00000000000E+00 0. -1.
         11    1    3    3    0    0 -0.14085626336E+01  0.25048435083E+01 -0.17563431367E+01  0.33679416813E+01  0.51100000000E-03 0. -1.
        -11    1    3    3    0    0  0.19594434290E+02 -0.20882284090E+02  0.37298126565E+01  0.28877727519E+02  0.51100000000E-03 0.  1.
        -12    1    3    3    0    0  0.17931532326E+02 -0.22840664933E+00 -0.35613238796E+01  0.18283190338E+02  0.00000000000E+00 0.  1.
</event>
<event>
 7    1  0.2900470E-011  0.5052886E+02  0.7816164E-02  0.1300439E+00
        -11   -1    0    0    0    0  0.00000000000E+00  0.00000000000E+00  0.45593999997E+02  0.45594000000E+02  0.51100000000E-03 0.  1.
         11   -1    0    0    0    0 -0.00000000000E+00 -0.00000000000E+00 -0.45593999997E+02  0.45594000000E+02  0.51100000000E-03 0. -1.
    9900012    2    1    2    0    0 -0.15199916362E+02  0.31228104357E+02  0.21140798795E+02  0.50528864091E+02  0.30000012891E+02 0.  0.
         12    1    1    2    0    0  0.15199916362E+02 -0.31228104357E+02 -0.21140798795E+02  0.40659135909E+02  0.00000000000E+00 0. -1.
         11    1    3    3    0    0 -0.86478277735E+01  0.20003229500E+02  0.10510807049E+02  0.24194858559E+02  0.51100000000E-03 0.  1.
        -11    1    3    3    0    0  0.45689849497E+01 -0.31873167362E+01  0.74863763746E+00  0.56209492099E+01  0.51100000000E-03 0. -1.
         12    1    3    3    0    0 -0.11121073538E+02  0.14412191593E+02  0.98813541083E+01  0.20713056322E+02  0.00000000000E+00 0. -1.
</event>
<event>
 7    1  0.2900470E-011  0.5052887E+02  0.7816164E-02  0.1300439E+00
        -11   -1    0    0    0    0  0.00000000000E+00  0.00000000000E+00  0.45593999997E+02  0.45594000000E+02  0.51100000000E-03 0.  1.
         11   -1    0    0    0    0 -0.00000000000E+00 -0.00000000000E+00 -0.45593999997E+02  0.45594000000E+02  0.51100000000E-03 0. -1.
    9900012    2    1    2    0    0  0.41756870416E+01 -0.21156524244E+02  0.34469265422E+02  0.50528866474E+02  0.30000020135E+02 0.  0.
         12    1    1    2    0    0 -0.41756870416E+01  0.21156524244E+02 -0.34469265422E+02  0.40659133526E+02  0.00000000000E+00 0. -1.
         11    1    3    3    0    0  0.37516694652E+01 -0.23955434183E+02  0.16709387351E+02  0.29447266029E+02  0.51100000000E-03 0. -1.
        -11    1    3    3    0    0  0.11385035004E+01  0.38886118694E+01  0.18912654987E+02  0.19341820271E+02  0.51100000000E-03 0.  1.
        -12    1    3    3    0    0 -0.71448592406E+00 -0.10897019307E+01 -0.11527769166E+01  0.17397801737E+01  0.00000000000E+00 0.  1.
</event>
<event>
 7    1  0.2900470E-011  0.5052886E+02  0.7816164E-02  0.1300439E+00
        -11   -1    0    0    0    0  0.00000000000E+00  0.00000000000E+00  0.45593999997E+02  0.45594000000E+02  0.51100000000E-03 0.  1.
         11   -1    0    0    0    0 -0.00000000000E+00 -0.00000000000E+00 -0.45593999997E+02  0.45594000000E+02  0.51100000000E-03 0. -1.
    9900012    2    1    2    0    0 -0.12918473871E+02 -0.36585603985E+02  0.12156168118E+02  0.50528858230E+02  0.29999995077E+02 0.  0.
         12    1    1    2    0    0  0.12918473871E+02  0.36585603985E+02 -0.12156168118E+02  0.40659141770E+02  0.00000000000E+00 0. -1.
         11    1    3    3    0    0 -0.98276859201E+00  0.29193328844E+01 -0.27625534845E+01  0.41376370807E+01  0.51100000000E-03 0. -1.
        -11    1    3    3    0    0 -0.53018744630E+01 -0.33411333529E+02  0.15806233702E+02  0.37339846078E+02  0.51100000000E-03 0.  1.
        -12    1    3    3    0    0 -0.66338308159E+01 -0.60936033408E+01 -0.88751209958E+00  0.90513750721E+01  0.00000000000E+00 0.  1.
</event>
<event>
 7    1  0.2900470E-011  0.5052885E+02  0.7816164E-02  0.1300439E+00
        -11   -1    0    0    0    0  0.00000000000E+00  0.00000000000E+00  0.45593999997E+02  0.45594000000E+02  0.51100000000E-03 0.  1.
         11   -1    0    0    0    0 -0.00000000000E+00 -0.00000000000E+00 -0.45593999997E+02  0.45594000000E+02  0.51100000000E-03 0. -1.
    9900012    2    1    2    0    0 -0.32757498072E+02  0.23878494420E+02 -0.31512430532E+01  0.50528849634E+02  0.29999968948E+02 0.  0.
         12    1    1    2    0    0  0.32757498072E+02 -0.23878494420E+02  0.31512430532E+01  0.40659150366E+02  0.00000000000E+00 0. -1.
         11    1    3    3    0    0  0.57904710153E+00  0.36352138894E+01  0.81793248413E+00  0.37708207830E+01  0.51100000000E-03 0. -1.
        -11    1    3    3    0    0 -0.31161142734E+02  0.20664808204E+02 -0.11331189753E+02  0.39069770617E+02  0.51100000000E-03 0.  1.
        -12    1    3    3    0    0 -0.21754024399E+01 -0.42152767339E+00  0.73620142162E+01  0.76882582341E+01  0.00000000000E+00 0.  1.
</event>
<event>
 7    1  0.2900470E-011  0.5052886E+02  0.7816164E-02  0.1300439E+00
        -11   -1    0    0    0    0  0.00000000000E+00  0.00000000000E+00  0.45593999997E+02  0.45594000000E+02  0.51100000000E-03 0. -1.
         11   -1    0    0    0    0 -0.00000000000E+00 -0.00000000000E+00 -0.45593999997E+02  0.45594000000E+02  0.51100000000E-03 0.  1.
    9900012    2    1    2    0    0 -0.16181612062E+02 -0.33760261297E+02 -0.15860817229E+02  0.50528864066E+02  0.30000012815E+02 0.  0.
         12    1    1    2    0    0  0.16181612062E+02  0.33760261297E+02  0.15860817229E+02  0.40659135934E+02  0.00000000000E+00 0. -1.
         11    1    3    3    0    0 -0.25756753807E+01  0.11590842654E+01 -0.14599899299E+01  0.31794890875E+01  0.51100000000E-03 0. -1.
        -11    1    3    3    0    0  0.50700372953E+01 -0.19796448334E+02 -0.10595364223E+02  0.23018826818E+02  0.51100000000E-03 0.  1.
        -12    1    3    3    0    0 -0.18675973977E+02 -0.15122897228E+02 -0.38054630757E+01  0.24330548160E+02  0.00000000000E+00 0.  1.
</event>
<event>
 7    1  0.2900470E-011  0.5052886E+02  0.7816164E-02  0.1300439E+00
        -11   -1    0    0    0    0  0.00000000000E+00  0.00000000000E+00  0.45593999997E+02  0.45594000000E+02  0.51100000000E-03 0.  1.
         11   -1    0    0    0    0 -0.00000000000E+00 -0.00000000000E+00 -0.45593999997E+02  0.45594000000E+02  0.51100000000E-03 0. -1.
    9900012    2    1    2    0    0  0.10792889093E+02  0.21781272778E+02  0.32592255817E+02  0.50528862798E+02  0.30000008960E+02 0.  0.
         12    1    1    2    0    0 -0.10792889093E+02 -0.21781272778E+02 -0.32592255817E+02  0.40659137202E+02  0.00000000000E+00 0. -1.
         11    1    3    3    0    0 -0.80002147074E+00  0.48782582370E+00 -0.15296467396E+01  0.17938304817E+01  0.51100000000E-03 0. -1.
        -11    1    3    3    0    0  0.19246774940E+02  0.11730681099E+02  0.22606010415E+02  0.31923015706E+02  0.51100000000E-03 0.  1.
        -12    1    3    3    0    0 -0.76538643756E+01  0.95627658550E+01  0.11515892142E+02  0.16812016610E+02  0.00000000000E+00 0.  1.
</event>
<event>
 7    1  0.2900470E-011  0.5052887E+02  0.7816164E-02  0.1300439E+00
        -11   -1    0    0    0    0  0.00000000000E+00  0.00000000000E+00  0.45593999997E+02  0.45594000000E+02  0.51100000000E-03 0.  1.
         11   -1    0    0    0    0 -0.00000000000E+00 -0.00000000000E+00 -0.45593999997E+02  0.45594000000E+02  0.51100000000E-03 0. -1.
    9900012    2    1    2    0    0 -0.19795744350E+02 -0.34528400760E+02  0.83116242838E+01  0.50528867549E+02  0.30000023403E+02 0.  0.
         12    1    1    2    0    0  0.19795744350E+02  0.34528400760E+02 -0.83116242838E+01  0.40659132451E+02  0.00000000000E+00 0. -1.
         11    1    3    3    0    0  0.87184081710E+00 -0.12233452504E+02  0.44163664725E+01  0.13035404085E+02  0.51100000000E-03 0. -1.
        -11    1    3    3    0    0 -0.10076009371E+02  0.23983990189E+01  0.20715292477E+01  0.10562647224E+02  0.51100000000E-03 0.  1.
        -12    1    3    3    0    0 -0.10591575797E+02 -0.24693347275E+02  0.18237285637E+01  0.26930816240E+02  0.00000000000E+00 0.  1.
</event>
<event>
 7    1  0.2900470E-011  0.5052884E+02  0.7816164E-02  0.1300439E+00
        -11   -1    0    0    0    0  0.00000000000E+00  0.00000000000E+00  0.45593999997E+02  0.45594000000E+02  0.51100000000E-03 0.  1.
         11   -1    0    0    0    0 -0.00000000000E+00 -0.00000000000E+00 -0.45593999997E+02  0.45594000000E+02  0.51100000000E-03 0. -1.
    9900012    2    1    2    0    0 -0.37817545612E+02 -0.38971145510E+01 -0.14415734560E+02  0.50528835464E+02  0.29999925875E+02 0.  0.
         12    1    1    2    0    0  0.37817545612E+02  0.38971145510E+01  0.14415734560E+02  0.40659164536E+02  0.00000000000E+00 0. -1.
         11    1    3    3    0    0  0.15626064988E+01 -0.39845057089E+01 -0.57678676790E+01  0.71823619122E+01  0.51100000000E-03 0. -1.
        -11    1    3    3    0    0 -0.26041820310E+02 -0.14909822375E+01  0.20649214195E+01  0.26166072190E+02  0.51100000000E-03 0.  1.
         12    1    3    3    0    0 -0.13338331800E+02  0.15783733954E+01 -0.10712788300E+02  0.17180401362E+02  0.00000000000E+00 0. -1.
</event>
<event>
 7    1  0.2900470E-011  0.5052881E+02  0.7816164E-02  0.1300439E+00
        -11   -1    0    0    0    0  0.00000000000E+00  0.00000000000E+00  0.45593999997E+02  0.45594000000E+02  0.51100000000E-03 0.  1.
         11   -1    0    0    0    0 -0.00000000000E+00 -0.00000000000E+00 -0.45593999997E+02  0.45594000000E+02  0.51100000000E-03 0. -1.
    9900012    2    1    2    0    0  0.30310921494E+02 -0.27087161326E+02  0.83855133950E+00  0.50528813598E+02  0.29999859414E+02 0.  0.
         12    1    1    2    0    0 -0.30310921494E+02  0.27087161326E+02 -0.83855133950E+00  0.40659186402E+02  0.00000000000E+00 0. -1.
         11    1    3    3    0    0 -0.16239926783E+01 -0.12363123321E+02 -0.40243526286E+01  0.13102655640E+02  0.51100000000E-03 0. -1.
        -11    1    3    3    0    0  0.17638561249E+02 -0.13003755684E+02  0.66874662873E+01  0.22911540988E+02  0.51100000000E-03 0.  1.
         12    1    3    3    0    0  0.14296352922E+02 -0.17202823205E+01 -0.18245623192E+01  0.14514616971E+02  0.00000000000E+00 0. -1.
</event>
<event>
 7    1  0.2900470E-011  0.5052887E+02  0.7816164E-02  0.1300439E+00
        -11   -1    0    0    0    0  0.00000000000E+00  0.00000000000E+00  0.45593999997E+02  0.45594000000E+02  0.51100000000E-03 0.  1.
         11   -1    0    0    0    0 -0.00000000000E+00 -0.00000000000E+00 -0.45593999997E+02  0.45594000000E+02  0.51100000000E-03 0. -1.
    9900012    2    1    2    0    0 -0.32921127384E+01  0.25018999506E+02  0.31880659063E+02  0.50528871077E+02  0.30000034124E+02 0.  0.
         12    1    1    2    0    0  0.32921127384E+01 -0.25018999506E+02 -0.31880659063E+02  0.40659128923E+02  0.00000000000E+00 0. -1.
         11    1    3    3    0    0 -0.10399730570E+02  0.14602226610E+02  0.70485633675E+01  0.19262960927E+02  0.51100000000E-03 0. -1.
        -11    1    3    3    0    0  0.76987594626E+01  0.91778441237E+00  0.48829509027E+01  0.91627744308E+01  0.51100000000E-03 0.  1.
        -12    1    3    3    0    0 -0.59114163146E+00  0.94989884839E+01  0.19949144792E+02  0.22103135719E+02  0.00000000000E+00 0.  1.
</event>
<event>
 7    1  0.2900470E-011  0.5052886E+02  0.7816164E-02  0.1300439E+00
        -11   -1    0    0    0    0  0.00000000000E+00  0.00000000000E+00  0.45593999997E+02  0.45594000000E+02  0.51100000000E-03 0. -1.
         11   -1    0    0    0    0 -0.00000000000E+00 -0.00000000000E+00 -0.45593999997E+02  0.45594000000E+02  0.51100000000E-03 0.  1.
    9900012    2    1    2    0    0 -0.26903211453E+01  0.76464379431E+01 -0.39842936192E+02  0.50528863198E+02  0.30000010178E+02 0.  0.
         12    1    1    2    0    0  0.26903211453E+01 -0.76464379431E+01  0.39842936192E+02  0.40659136802E+02  0.00000000000E+00 0. -1.
         11    1    3    3    0    0 -0.16477482599E+01  0.33055787579E+01  0.22227273834E+01  0.43107357301E+01  0.51100000000E-03 0. -1.
        -11    1    3    3    0    0 -0.46239119613E+01  0.10656682278E+02 -0.29513122181E+02  0.31717027291E+02  0.51100000000E-03 0.  1.
         12    1    3    3    0    0  0.35813390759E+01 -0.63158230931E+01 -0.12552541394E+02  0.14501100178E+02  0.00000000000E+00 0. -1.
</event>
<event>
 7    1  0.2900470E-011  0.5052887E+02  0.7816164E-02  0.1300439E+00
        -11   -1    0    0    0    0  0.00000000000E+00  0.00000000000E+00  0.45593999997E+02  0.45594000000E+02  0.51100000000E-03 0. -1.
         11   -1    0    0    0    0 -0.00000000000E+00 -0.00000000000E+00 -0.45593999997E+02  0.45594000000E+02  0.51100000000E-03 0.  1.
    9900012    2    1    2    0    0  0.39308082516E+01  0.40332797492E+02  0.33134688904E+01  0.50528869622E+02  0.30000029702E+02 0.  0.
         12    1    1    2    0    0 -0.39308082516E+01 -0.40332797492E+02 -0.33134688904E+01  0.40659130378E+02  0.00000000000E+00 0. -1.
         11    1    3    3    0    0 -0.13512718627E+01 -0.52603242375E+00  0.30971441950E+01  0.34197877395E+01  0.51100000000E-03 0. -1.
        -11    1    3    3    0    0  0.36033031474E+01  0.24672931830E+02 -0.11094518161E+02  0.27291494868E+02  0.51100000000E-03 0.  1.
        -12    1    3    3    0    0  0.16787769668E+01  0.16185898085E+02  0.11310842856E+02  0.19817587014E+02  0.00000000000E+00 0.  1.
</event>
<event>
 7    1  0.2900470E-011  0.5052886E+02  0.7816164E-02  0.1300439E+00
        -11   -1    0    0    0    0  0.00000000000E+00  0.00000000000E+00  0.45593999997E+02  0.45594000000E+02  0.51100000000E-03 0. -1.
         11   -1    0    0    0    0 -0.00000000000E+00 -0.00000000000E+00 -0.45593999997E+02  0.45594000000E+02  0.51100000000E-03 0.  1.
    9900012    2    1    2    0    0  0.24064002581E+02 -0.30081216444E+02 -0.13008063768E+02  0.50528861716E+02  0.30000005673E+02 0.  0.
         12    1    1    2    0    0 -0.24064002581E+02  0.30081216444E+02  0.13008063768E+02  0.40659138284E+02  0.00000000000E+00 0. -1.
         11    1    3    3    0    0 -0.19223236736E+01 -0.21555965224E+00  0.14325657452E+01  0.24070810425E+01  0.51100000000E-03 0. -1.
        -11    1    3    3    0    0  0.26677490411E+02 -0.29948518531E+02 -0.70790079744E+01  0.40727320204E+02  0.51100000000E-03 0.  1.
        -12    1    3    3    0    0 -0.69116415622E+00  0.82861739499E-01 -0.73616215391E+01  0.73944604701E+01  0.00000000000E+00 0.  1.
</event>
<event>
 7    1  0.2900470E-011  0.5052885E+02  0.7816164E-02  0.1300439E+00
        -11   -1    0    0    0    0  0.00000000000E+00  0.00000000000E+00  0.45593999997E+02  0.45594000000E+02  0.51100000000E-03 0. -1.
         11   -1    0    0    0    0 -0.00000000000E+00 -0.00000000000E+00 -0.45593999997E+02  0.45594000000E+02  0.51100000000E-03 0.  1.
    9900012    2    1    2    0    0 -0.20074458927E+02 -0.24236044166E+02 -0.25744837705E+02  0.50528850889E+02  0.29999972761E+02 0.  0.
         12    1    1    2    0    0  0.20074458927E+02  0.24236044166E+02  0.25744837705E+02  0.40659149111E+02  0.00000000000E+00 0. -1.
         11    1    3    3    0    0  0.10503333832E+01 -0.11110758154E+02 -0.10705771248E+02  0.15464982550E+02  0.51100000000E-03 0. -1.
        -11    1    3    3    0    0 -0.73783880185E+01  0.48197951498E+01 -0.62773016280E+01  0.10820145610E+02  0.51100000000E-03 0.  1.
        -12    1    3    3    0    0 -0.13746404291E+02 -0.17945081161E+02 -0.87617648288E+01  0.24243722729E+02  0.00000000000E+00 0.  1.
</event>
<event>
 7    1  0.2900470E-011  0.5052879E+02  0.7816164E-02  0.1300439E+00
        -11   -1    0    0    0    0  0.00000000000E+00  0.00000000000E+00  0.45593999997E+02  0.45594000000E+02  0.51100000000E-03 0.  1.
         11   -1    0    0    0    0 -0.00000000000E+00 -0.00000000000E+00 -0.45593999997E+02  0.45594000000E+02  0.51100000000E-03 0. -1.
    9900012    2    1    2    0    0 -0.17435232985E+02 -0.25037995604E+02 -0.26875324458E+02  0.50528786557E+02  0.29999777217E+02 0.  0.
         12    1    1    2    0    0  0.17435232985E+02  0.25037995604E+02  0.26875324458E+02  0.40659213443E+02  0.00000000000E+00 0. -1.
         11    1    3    3    0    0 -0.18864519782E+02 -0.17240629030E+02 -0.27446656796E+02  0.37502378131E+02  0.51100000000E-03 0. -1.
        -11    1    3    3    0    0 -0.24954802493E+01 -0.39512116472E+01 -0.37851381437E+01  0.60138811248E+01  0.51100000000E-03 0.  1.
         12    1    3    3    0    0  0.39247670460E+01 -0.38461549273E+01  0.43564704817E+01  0.70125273010E+01  0.00000000000E+00 0. -1.
</event>
<event>
 7    1  0.2900470E-011  0.5052886E+02  0.7816164E-02  0.1300439E+00
        -11   -1    0    0    0    0  0.00000000000E+00  0.00000000000E+00  0.45593999997E+02  0.45594000000E+02  0.51100000000E-03 0. -1.
         11   -1    0    0    0    0 -0.00000000000E+00 -0.00000000000E+00 -0.45593999997E+02  0.45594000000E+02  0.51100000000E-03 0.  1.
    9900012    2    1    2    0    0  0.33546277697E+02  0.16743762570E+01 -0.22913088143E+02  0.50528857222E+02  0.29999992013E+02 0.  0.
         12    1    1    2    0    0 -0.33546277697E+02 -0.16743762570E+01  0.22913088143E+02  0.40659142778E+02  0.00000000000E+00 0. -1.
         11    1    3    3    0    0  0.98200484193E+01  0.29483651645E+00 -0.20104663074E+01  0.10028073323E+02  0.51100000000E-03 0. -1.
        -11    1    3    3    0    0  0.51798981008E+01 -0.10874097348E+02 -0.10410294571E+02  0.15920162398E+02  0.51100000000E-03 0.  1.
        -12    1    3    3    0    0  0.18546331177E+02  0.12253637088E+02 -0.10492327265E+02  0.24580621502E+02  0.00000000000E+00 0.  1.
</event>
<event>
 7    1  0.2900470E-011  0.5052885E+02  0.7816164E-02  0.1300439E+00
        -11   -1    0    0    0    0  0.00000000000E+00  0.00000000000E+00  0.45593999997E+02  0.45594000000E+02  0.51100000000E-03 0. -1.
         11   -1    0    0    0    0 -0.00000000000E+00 -0.00000000000E+00 -0.45593999997E+02  0.45594000000E+02  0.51100000000E-03 0.  1.
    9900012    2    1    2    0    0  0.38392787373E+02  0.20382389215E+01  0.13228971317E+02  0.50528853154E+02  0.29999979647E+02 0.  0.
         12    1    1    2    0    0 -0.38392787373E+02 -0.20382389215E+01 -0.13228971317E+02  0.40659146846E+02  0.00000000000E+00 0. -1.
         11    1    3    3    0    0  0.33115824537E+00  0.25427775338E+01  0.55888092375E+01  0.61489976683E+01  0.51100000000E-03 0. -1.
        -11    1    3    3    0    0  0.28075709862E+02 -0.88462686127E+01  0.29443846382E+00  0.29437877758E+02  0.51100000000E-03 0.  1.
        -12    1    3    3    0    0  0.99859192650E+01  0.83417300004E+01  0.73457236160E+01  0.14941977728E+02  0.00000000000E+00 0.  1.
</event>
<event>
 7    1  0.2900470E-011  0.5052884E+02  0.7816164E-02  0.1300439E+00
        -11   -1    0    0    0    0  0.00000000000E+00  0.00000000000E+00  0.45593999997E+02  0.45594000000E+02  0.51100000000E-03 0. -1.
         11   -1    0    0    0    0 -0.00000000000E+00 -0.00000000000E+00 -0.45593999997E+02  0.45594000000E+02  0.51100000000E-03 0.  1.
    9900012    2    1    2    0    0 -0.40077643949E+02 -0.27909098163E+01 -0.62578180393E+01  0.50528843482E+02  0.29999950249E+02 0.  0.
         12    1    1    2    0    0  0.40077643949E+02  0.27909098163E+01  0.62578180393E+01  0.40659156518E+02  0.00000000000E+00 0. -1.
         11    1    3    3    0    0  0.14615692323E+01 -0.73521450755E+01 -0.25246120148E+01  0.79097337450E+01  0.51100000000E-03 0. -1.
        -11    1    3    3    0    0 -0.33056748260E+02  0.53303532434E+00 -0.26674940233E+01  0.33168482884E+02  0.51100000000E-03 0.  1.
        -12    1    3    3    0    0 -0.84824649213E+01  0.40281999348E+01 -0.10657120013E+01  0.94506268536E+01  0.00000000000E+00 0.  1.
</event>
<event>
 7    1  0.2900470E-011  0.5052886E+02  0.7816164E-02  0.1300439E+00
        -11   -1    0    0    0    0  0.00000000000E+00  0.00000000000E+00  0.45593999997E+02  0.45594000000E+02  0.51100000000E-03 0.  1.
         11   -1    0    0    0    0 -0.00000000000E+00 -0.00000000000E+00 -0.45593999997E+02  0.45594000000E+02  0.51100000000E-03 0. -1.
    9900012    2    1    2    0    0  0.39889682066E+02 -0.78366421649E+01  0.75253446408E+00  0.50528855839E+02  0.29999987810E+02 0.  0.
         12    1    1    2    0    0 -0.39889682066E+02  0.78366421649E+01 -0.75253446408E+00  0.40659144161E+02  0.00000000000E+00 0. -1.
         11    1    3    3    0    0  0.20281813991E+02 -0.55228111970E+01 -0.12514986322E+02  0.24463816243E+02  0.51100000000E-03 0. -1.
        -11    1    3    3    0    0  0.12639489634E+02 -0.64097616177E+01  0.10008816647E+02  0.17349874730E+02  0.51100000000E-03 0.  1.
         12    1    3    3    0    0  0.69683784408E+01  0.40959306498E+01  0.32587041385E+01  0.87151648661E+01  0.00000000000E+00 0. -1.
</event>
<event>
 7    1  0.2900470E-011  0.5052885E+02  0.7816164E-02  0.1300439E+00
        -11   -1    0    0    0    0  0.00000000000E+00  0.00000000000E+00  0.45593999997E+02  0.45594000000E+02  0.51100000000E-03 0.  1.
         11   -1    0    0    0    0 -0.00000000000E+00 -0.00000000000E+00 -0.45593999997E+02  0.45594000000E+02  0.51100000000E-03 0. -1.
    9900012    2    1    2    0    0  0.17267904669E+02  0.98934977294E+01  0.35455667514E+02  0.50528853577E+02  0.29999980933E+02 0.  0.
         12    1    1    2    0    0 -0.17267904669E+02 -0.98934977294E+01 -0.35455667514E+02  0.40659146423E+02  0.00000000000E+00 0. -1.
         11    1    3    3    0    0  0.45994878163E+01  0.54136170909E+01 -0.35108976750E+01  0.79239473071E+01  0.51100000000E-03 0. -1.
        -11    1    3    3    0    0  0.12418968047E+02  0.79747183430E+00  0.22327201381E+02  0.25561115986E+02  0.51100000000E-03 0.  1.
         12    1    3    3    0    0  0.24944880547E+00  0.36824088042E+01  0.16639363808E+02  0.17043790284E+02  0.00000000000E+00 0. -1.
</event>
<event>
 7    1  0.2900470E-011  0.5052886E+02  0.7816164E-02  0.1300439E+00
        -11   -1    0    0    0    0  0.00000000000E+00  0.00000000000E+00  0.45593999997E+02  0.45594000000E+02  0.51100000000E-03 0. -1.
         11   -1    0    0    0    0 -0.00000000000E+00 -0.00000000000E+00 -0.45593999997E+02  0.45594000000E+02  0.51100000000E-03 0.  1.
    9900012    2    1    2    0    0 -0.28709570551E+02 -0.28750838777E+02  0.15215841759E+01  0.50528863388E+02  0.30000010753E+02 0.  0.
         12    1    1    2    0    0  0.28709570551E+02  0.28750838777E+02 -0.15215841759E+01  0.40659136612E+02  0.00000000000E+00 0. -1.
         11    1    3    3    0    0 -0.19276760039E+02 -0.54578216010E+01  0.29850243959E+00  0.20036726234E+02  0.51100000000E-03 0. -1.
        -11    1    3    3    0    0 -0.10511973876E+02 -0.21126170030E+02  0.66784358826E+01  0.24523828433E+02  0.51100000000E-03 0.  1.
         12    1    3    3    0    0  0.10791633633E+01 -0.21668471462E+01 -0.54553541463E+01  0.59683087203E+01  0.00000000000E+00 0. -1.
</event>
<event>
 7    1  0.2900470E-011  0.5052886E+02  0.7816164E-02  0.1300439E+00
        -11   -1    0    0    0    0  0.00000000000E+00  0.00000000000E+00  0.45593999997E+02  0.45594000000E+02  0.51100000000E-03 0. -1.
         11   -1    0    0    0    0 -0.00000000000E+00 -0.00000000000E+00 -0.45593999997E+02  0.45594000000E+02  0.51100000000E-03 0.  1.
    9900012    2    1    2    0    0 -0.32873924670E+02  0.21860064597E+02 -0.97266858658E+01  0.50528858773E+02  0.29999996725E+02 0.  0.
         12    1    1    2    0    0  0.32873924670E+02 -0.21860064597E+02  0.97266858658E+01  0.40659141227E+02  0.00000000000E+00 0. -1.
         11    1    3    3    0    0 -0.10271103065E+02  0.60649835470E+01  0.52704110864E+01  0.13040583456E+02  0.51100000000E-03 0. -1.
        -11    1    3    3    0    0 -0.54684077933E+00  0.58673306653E+01 -0.11669744781E+02  0.13073161342E+02  0.51100000000E-03 0.  1.
        -12    1    3    3    0    0 -0.22055980825E+02  0.99277503851E+01 -0.33273521714E+01  0.24415113974E+02  0.00000000000E+00 0.  1.
</event>
<event>
 7    1  0.2900470E-011  0.5052886E+02  0.7816164E-02  0.1300439E+00
        -11   -1    0    0    0    0  0.00000000000E+00  0.00000000000E+00  0.45593999997E+02  0.45594000000E+02  0.51100000000E-03 0.  1.
         11   -1    0    0    0    0 -0.00000000000E+00 -0.00000000000E+00 -0.45593999997E+02  0.45594000000E+02  0.51100000000E-03 0. -1.
    9900012    2    1    2    0    0 -0.52538487719E+01  0.48317410607E+01  0.40027700883E+02  0.50528862201E+02  0.30000007146E+02 0.  0.
         12    1    1    2    0    0  0.52538487719E+01 -0.48317410607E+01 -0.40027700883E+02  0.40659137799E+02  0.00000000000E+00 0. -1.
         11    1    3    3    0    0 -0.25965328248E+01 -0.57618108511E+01  0.15182118687E+00  0.63216688405E+01  0.51100000000E-03 0. -1.
        -11    1    3    3    0    0 -0.83574092518E+01  0.32085537793E+01  0.25902641129E+02  0.27405983370E+02  0.51100000000E-03 0.  1.
         12    1    3    3    0    0  0.57000933047E+01  0.73849981326E+01  0.13973238567E+02  0.16801209990E+02  0.00000000000E+00 0. -1.
</event>
<event>
 7    1  0.2900470E-011  0.5052886E+02  0.7816164E-02  0.1300439E+00
        -11   -1    0    0    0    0  0.00000000000E+00  0.00000000000E+00  0.45593999997E+02  0.45594000000E+02  0.51100000000E-03 0. -1.
         11   -1    0    0    0    0 -0.00000000000E+00 -0.00000000000E+00 -0.45593999997E+02  0.45594000000E+02  0.51100000000E-03 0.  1.
    9900012    2    1    2    0    0  0.45576844215E+01  0.34061327314E+02 -0.21730606031E+02  0.50528859033E+02  0.29999997517E+02 0.  0.
         12    1    1    2    0    0 -0.45576844215E+01 -0.34061327314E+02  0.21730606031E+02  0.40659140967E+02  0.00000000000E+00 0. -1.
         11    1    3    3    0    0  0.27050932259E+01  0.12469384056E+02  0.47319756444E+01  0.13608624539E+02  0.51100000000E-03 0. -1.
        -11    1    3    3    0    0  0.28210284399E+01  0.37282689531E+01 -0.14906643829E+02  0.15622618902E+02  0.51100000000E-03 0.  1.
         12    1    3    3    0    0 -0.96843724424E+00  0.17863674305E+02 -0.11555937846E+02  0.21297615592E+02  0.00000000000E+00 0. -1.
</event>
<event>
 7    1  0.2900470E-011  0.5052887E+02  0.7816164E-02  0.1300439E+00
        -11   -1    0    0    0    0  0.00000000000E+00  0.00000000000E+00  0.45593999997E+02  0.45594000000E+02  0.51100000000E-03 0.  1.
         11   -1    0    0    0    0 -0.00000000000E+00 -0.00000000000E+00 -0.45593999997E+02  0.45594000000E+02  0.51100000000E-03 0. -1.
    9900012    2    1    2    0    0 -0.31845853309E+01 -0.64127507635E+01  0.40023745399E+02  0.50528866317E+02  0.30000019656E+02 0.  0.
         12    1    1    2    0    0  0.31845853309E+01  0.64127507635E+01 -0.40023745399E+02  0.40659133683E+02  0.00000000000E+00 0. -1.
         11    1    3    3    0    0  0.46725902877E+01 -0.11096719533E+02  0.30876708150E+02  0.33141233996E+02  0.51100000000E-03 0. -1.
        -11    1    3    3    0    0 -0.77130326415E-02  0.39106378290E+01  0.86400849300E+01  0.94838924277E+01  0.51100000000E-03 0.  1.
         12    1    3    3    0    0 -0.78494625860E+01  0.77333094041E+00  0.50695231976E+00  0.79037398924E+01  0.00000000000E+00 0. -1.
</event>
<event>
 7    1  0.2900470E-011  0.5052885E+02  0.7816164E-02  0.1300439E+00
        -11   -1    0    0    0    0  0.00000000000E+00  0.00000000000E+00  0.45593999997E+02  0.45594000000E+02  0.51100000000E-03 0.  1.
         11   -1    0    0    0    0 -0.00000000000E+00 -0.00000000000E+00 -0.45593999997E+02  0.45594000000E+02  0.51100000000E-03 0. -1.
    9900012    2    1    2    0    0 -0.25275301249E+02 -0.31807145988E+02  0.16221594680E+01  0.50528846167E+02  0.29999958408E+02 0.  0.
         12    1    1    2    0    0  0.25275301249E+02  0.31807145988E+02 -0.16221594680E+01  0.40659153833E+02  0.00000000000E+00 0. -1.
         11    1    3    3    0    0  0.22990348996E+01 -0.77764585833E+01 -0.87321498663E+01  0.11916765967E+02  0.51100000000E-03 0. -1.
        -11    1    3    3    0    0 -0.18124638367E+02 -0.18196899780E+02  0.45564309108E+01  0.26084300651E+02  0.51100000000E-03 0.  1.
         12    1    3    3    0    0 -0.94496977812E+01 -0.58337876246E+01  0.57978784235E+01  0.12527779549E+02  0.00000000000E+00 0. -1.
</event>
<event>
 7    1  0.2900470E-011  0.5052886E+02  0.7816164E-02  0.1300439E+00
        -11   -1    0    0    0    0  0.00000000000E+00  0.00000000000E+00  0.45593999997E+02  0.45594000000E+02  0.51100000000E-03 0. -1.
         11   -1    0    0    0    0 -0.00000000000E+00 -0.00000000000E+00 -0.45593999997E+02  0.45594000000E+02  0.51100000000E-03 0.  1.
    9900012    2    1    2    0    0  0.21782435193E+02  0.33465345819E+02 -0.76655990095E+01  0.50528864964E+02  0.30000015544E+02 0.  0.
         12    1    1    2    0    0 -0.21782435193E+02 -0.33465345819E+02  0.76655990095E+01  0.40659135036E+02  0.00000000000E+00 0. -1.
         11    1    3    3    0    0  0.86937046526E+01  0.34691643910E+02 -0.35074352626E+01  0.35935953587E+02  0.51100000000E-03 0.  1.
        -11    1    3    3    0    0  0.64647489472E+01 -0.33267829269E+00 -0.45262893787E+01  0.78987941863E+01  0.51100000000E-03 0. -1.
        -12    1    3    3    0    0  0.66239815927E+01 -0.89361979860E+00  0.36812563180E+00  0.66941171910E+01  0.00000000000E+00 0.  1.
</event>
<event>
 7    1  0.2900470E-011  0.5052886E+02  0.7816164E-02  0.1300439E+00
        -11   -1    0    0    0    0  0.00000000000E+00  0.00000000000E+00  0.45593999997E+02  0.45594000000E+02  0.51100000000E-03 0.  1.
         11   -1    0    0    0    0 -0.00000000000E+00 -0.00000000000E+00 -0.45593999997E+02  0.45594000000E+02  0.51100000000E-03 0. -1.
    9900012    2    1    2    0    0 -0.22017758107E+02 -0.15574947512E+02  0.30427038693E+02  0.50528863933E+02  0.30000012412E+02 0.  0.
         12    1    1    2    0    0  0.22017758107E+02  0.15574947512E+02 -0.30427038693E+02  0.40659136067E+02  0.00000000000E+00 0. -1.
         11    1    3    3    0    0 -0.26446730069E+00 -0.15081284804E+02  0.40126115249E+01  0.15608207642E+02  0.51100000000E-03 0. -1.
        -11    1    3    3    0    0 -0.13883504941E+02 -0.36542546087E+01  0.16276065286E+02  0.21702893531E+02  0.51100000000E-03 0.  1.
         12    1    3    3    0    0 -0.78697858650E+01  0.31605919005E+01  0.10138361883E+02  0.13217762760E+02  0.00000000000E+00 0. -1.
</event>
<event>
 7    1  0.2900470E-011  0.5052886E+02  0.7816164E-02  0.1300439E+00
        -11   -1    0    0    0    0  0.00000000000E+00  0.00000000000E+00  0.45593999997E+02  0.45594000000E+02  0.51100000000E-03 0.  1.
         11   -1    0    0    0    0 -0.00000000000E+00 -0.00000000000E+00 -0.45593999997E+02  0.45594000000E+02  0.51100000000E-03 0. -1.
    9900012    2    1    2    0    0 -0.33658230070E+02 -0.22670196889E+02  0.25202570947E+01  0.50528856204E+02  0.29999988918E+02 0.  0.
         12    1    1    2    0    0  0.33658230070E+02  0.22670196889E+02 -0.25202570947E+01  0.40659143796E+02  0.00000000000E+00 0. -1.
         11    1    3    3    0    0 -0.23125125678E+01 -0.37775721335E+00  0.87588771696E+01  0.90668817364E+01  0.51100000000E-03 0. -1.
        -11    1    3    3    0    0 -0.11533338224E+02 -0.58490016520E+01 -0.87176819998E+01  0.15595726678E+02  0.51100000000E-03 0.  1.
        -12    1    3    3    0    0 -0.19812379278E+02 -0.16443438023E+02  0.24790619249E+01  0.25866247790E+02  0.00000000000E+00 0.  1.
</event>
<event>
 7    1  0.2900470E-011  0.5052886E+02  0.7816164E-02  0.1300439E+00
        -11   -1    0    0    0    0  0.00000000000E+00  0.00000000000E+00  0.45593999997E+02  0.45594000000E+02  0.51100000000E-03 0. -1.
         11   -1    0    0    0    0 -0.00000000000E+00 -0.00000000000E+00 -0.45593999997E+02  0.45594000000E+02  0.51100000000E-03 0.  1.
    9900012    2    1    2    0    0  0.11349218430E+02  0.37457079884E+02 -0.11014918569E+02  0.50528855598E+02  0.29999987076E+02 0.  0.
         12    1    1    2    0    0 -0.11349218430E+02 -0.37457079884E+02  0.11014918569E+02  0.40659144402E+02  0.00000000000E+00 0. -1.
         11    1    3    3    0    0 -0.29028580014E+01  0.30255827073E+01 -0.34738456998E+01  0.54450288798E+01  0.51100000000E-03 0. -1.
        -11    1    3    3    0    0  0.19177304028E+02  0.28385464626E+02 -0.29769731369E-01  0.34256451630E+02  0.51100000000E-03 0.  1.
        -12    1    3    3    0    0 -0.49252275959E+01  0.60460325507E+01 -0.75113031375E+01  0.10827375088E+02  0.00000000000E+00 0.  1.
</event>
<event>
 7    1  0.2900470E-011  0.5052886E+02  0.7816164E-02  0.1300439E+00
        -11   -1    0    0    0    0  0.00000000000E+00  0.00000000000E+00  0.45593999997E+02  0.45594000000E+02  0.51100000000E-03 0. -1.
         11   -1    0    0    0    0 -0.00000000000E+00 -0.00000000000E+00 -0.45593999997E+02  0.45594000000E+02  0.51100000000E-03 0.  1.
    9900012    2    1    2    0    0 -0.32903509934E+02  0.86515788478E+00 -0.23869980734E+02  0.50528862720E+02  0.30000008724E+02 0.  0.
         12    1    1    2    0    0  0.32903509934E+02 -0.86515788478E+00  0.23869980734E+02  0.40659137280E+02  0.00000000000E+00 0. -1.
         11    1    3    3    0    0 -0.14070286604E+02  0.53899741747E+01  0.83653172909E+00  0.15090545792E+02  0.51100000000E-03 0. -1.
        -11    1    3    3    0    0 -0.11397292474E+02  0.11129774490E+01 -0.23352353775E+02  0.26009025773E+02  0.51100000000E-03 0.  1.
        -12    1    3    3    0    0 -0.74359308556E+01 -0.56377937390E+01 -0.13541586878E+01  0.94292911549E+01  0.00000000000E+00 0.  1.
</event>
<event>
 7    1  0.2900470E-011  0.5052886E+02  0.7816164E-02  0.1300439E+00
        -11   -1    0    0    0    0  0.00000000000E+00  0.00000000000E+00  0.45593999997E+02  0.45594000000E+02  0.51100000000E-03 0.  1.
         11   -1    0    0    0    0 -0.00000000000E+00 -0.00000000000E+00 -0.45593999997E+02  0.45594000000E+02  0.51100000000E-03 0. -1.
    9900012    2    1    2    0    0 -0.11719773255E+02 -0.13346049025E+02  0.36574523345E+02  0.50528857515E+02  0.29999992902E+02 0.  0.
         12    1    1    2    0    0  0.11719773255E+02  0.13346049025E+02 -0.36574523345E+02  0.40659142485E+02  0.00000000000E+00 0. -1.
         11    1    3    3    0    0 -0.11902613275E+02 -0.11881263245E+01  0.61155587159E+01  0.13434429858E+02  0.51100000000E-03 0. -1.
        -11    1    3    3    0    0 -0.23062794199E+00 -0.14365089217E+02  0.31498223990E+02  0.34620038883E+02  0.51100000000E-03 0.  1.
         12    1    3    3    0    0  0.41346796185E+00  0.22071665166E+01 -0.10392593609E+01  0.24743887743E+01  0.00000000000E+00 0. -1.
</event>
<event>
 7    1  0.2900470E-011  0.5052885E+02  0.7816164E-02  0.1300439E+00
        -11   -1    0    0    0    0  0.00000000000E+00  0.00000000000E+00  0.45593999997E+02  0.45594000000E+02  0.51100000000E-03 0.  1.
         11   -1    0    0    0    0 -0.00000000000E+00 -0.00000000000E+00 -0.45593999997E+02  0.45594000000E+02  0.51100000000E-03 0. -1.
    9900012    2    1    2    0    0 -0.16266283306E+02  0.95901821455E+00  0.37251240068E+02  0.50528848814E+02  0.29999966456E+02 0.  0.
         12    1    1    2    0    0  0.16266283306E+02 -0.95901821455E+00 -0.37251240068E+02  0.40659151186E+02  0.00000000000E+00 0. -1.
         11    1    3    3    0    0 -0.21038484557E+02 -0.43850281687E+01  0.13749255276E+02  0.25512513115E+02  0.51100000000E-03 0. -1.
        -11    1    3    3    0    0  0.24635928890E+01  0.17481870453E+01  0.16789649085E+02  0.17059242789E+02  0.51100000000E-03 0.  1.
         12    1    3    3    0    0  0.23086083628E+01  0.35958593379E+01  0.67123357072E+01  0.79570929112E+01  0.00000000000E+00 0. -1.
</event>
<event>
 7    1  0.2900470E-011  0.5052882E+02  0.7816164E-02  0.1300439E+00
        -11   -1    0    0    0    0  0.00000000000E+00  0.00000000000E+00  0.45593999997E+02  0.45594000000E+02  0.51100000000E-03 0.  1.
         11   -1    0    0    0    0 -0.00000000000E+00 -0.00000000000E+00 -0.45593999997E+02  0.45594000000E+02  0.51100000000E-03 0. -1.
    9900012    2    1    2    0    0 -0.26893144861E+02  0.23910607555E+02 -0.18926457314E+02  0.50528816774E+02  0.29999869065E+02 0.  0.
         12    1    1    2    0    0  0.26893144861E+02 -0.23910607555E+02  0.18926457314E+02  0.40659183226E+02  0.00000000000E+00 0. -1.
         11    1    3    3    0    0 -0.15408915792E+02  0.17999823902E+02 -0.20148327454E+02  0.31102788393E+02  0.51100000000E-03 0. -1.
        -11    1    3    3    0    0 -0.88543556757E+01 -0.33138350736E+01  0.24209254130E+01  0.97592006560E+01  0.51100000000E-03 0.  1.
        -12    1    3    3    0    0 -0.26298733930E+01  0.92246187261E+01 -0.11990552735E+01  0.96668277244E+01  0.00000000000E+00 0.  1.
</event>
<event>
 7    1  0.2900470E-011  0.5052887E+02  0.7816164E-02  0.1300439E+00
        -11   -1    0    0    0    0  0.00000000000E+00  0.00000000000E+00  0.45593999997E+02  0.45594000000E+02  0.51100000000E-03 0.  1.
         11   -1    0    0    0    0 -0.00000000000E+00 -0.00000000000E+00 -0.45593999997E+02  0.45594000000E+02  0.51100000000E-03 0. -1.
    9900012    2    1    2    0    0  0.22890961802E+02 -0.19860265042E+02  0.27106059623E+02  0.50528871529E+02  0.30000035499E+02 0.  0.
         12    1    1    2    0    0 -0.22890961802E+02  0.19860265042E+02 -0.27106059623E+02  0.40659128471E+02  0.00000000000E+00 0. -1.
         11    1    3    3    0    0 -0.58682901524E+00 -0.10733864660E+02  0.18732950978E+02  0.21598233063E+02  0.51100000000E-03 0. -1.
        -11    1    3    3    0    0  0.11362927040E+02  0.10062903205E+01  0.85658665442E+00  0.11439513630E+02  0.51100000000E-03 0.  1.
         12    1    3    3    0    0  0.12114863777E+02 -0.10132690702E+02  0.75165219909E+01  0.17491124836E+02  0.00000000000E+00 0. -1.
</event>
<event>
 7    1  0.2900470E-011  0.5052886E+02  0.7816164E-02  0.1300439E+00
        -11   -1    0    0    0    0  0.00000000000E+00  0.00000000000E+00  0.45593999997E+02  0.45594000000E+02  0.51100000000E-03 0.  1.
         11   -1    0    0    0    0 -0.00000000000E+00 -0.00000000000E+00 -0.45593999997E+02  0.45594000000E+02  0.51100000000E-03 0. -1.
    9900012    2    1    2    0    0  0.15463168516E+02  0.23971651449E+02  0.28972670755E+02  0.50528864441E+02  0.30000013955E+02 0.  0.
         12    1    1    2    0    0 -0.15463168516E+02 -0.23971651449E+02 -0.28972670755E+02  0.40659135559E+02  0.00000000000E+00 0. -1.
         11    1    3    3    0    0 -0.42512162063E+01  0.95155203394E+00 -0.11883310086E+01  0.45155754177E+01  0.51100000000E-03 0. -1.
        -11    1    3    3    0    0  0.22793755185E+02  0.18932406999E+02  0.25599446488E+02  0.39157668099E+02  0.51100000000E-03 0.  1.
         12    1    3    3    0    0 -0.30793704625E+01  0.40876924156E+01  0.45615552754E+01  0.68556209245E+01  0.00000000000E+00 0. -1.
</event>
<event>
 7    1  0.2900470E-011  0.5052887E+02  0.7816164E-02  0.1300439E+00
        -11   -1    0    0    0    0  0.00000000000E+00  0.00000000000E+00  0.45593999997E+02  0.45594000000E+02  0.51100000000E-03 0. -1.
         11   -1    0    0    0    0 -0.00000000000E+00 -0.00000000000E+00 -0.45593999997E+02  0.45594000000E+02  0.51100000000E-03 0.  1.
    9900012    2    1    2    0    0 -0.16344125748E+00 -0.37552626160E+02 -0.15586494252E+02  0.50528865139E+02  0.30000016077E+02 0.  0.
         12    1    1    2    0    0  0.16344125748E+00  0.37552626160E+02  0.15586494252E+02  0.40659134861E+02  0.00000000000E+00 0. -1.
         11    1    3    3    0    0 -0.13388986319E+02 -0.10114438579E+02 -0.21844243135E+01  0.16921540481E+02  0.51100000000E-03 0. -1.
        -11    1    3    3    0    0  0.60679770395E+01 -0.90664707946E+01 -0.29989252332E+01  0.11314362149E+02  0.51100000000E-03 0.  1.
         12    1    3    3    0    0  0.71575680218E+01 -0.18371716786E+02 -0.10403144705E+02  0.22292962509E+02  0.00000000000E+00 0. -1.
</event>
<event>
 7    1  0.2900470E-011  0.5052886E+02  0.7816164E-02  0.1300439E+00
        -11   -1    0    0    0    0  0.00000000000E+00  0.00000000000E+00  0.45593999997E+02  0.45594000000E+02  0.51100000000E-03 0. -1.
         11   -1    0    0    0    0 -0.00000000000E+00 -0.00000000000E+00 -0.45593999997E+02  0.45594000000E+02  0.51100000000E-03 0.  1.
    9900012    2    1    2    0    0 -0.40750611775E+01  0.37714472536E+02 -0.14634825390E+02  0.50528859866E+02  0.30000000048E+02 0.  0.
         12    1    1    2    0    0  0.40750611775E+01 -0.37714472536E+02  0.14634825390E+02  0.40659140134E+02  0.00000000000E+00 0. -1.
         11    1    3    3    0    0 -0.80793841381E+00 -0.27541346046E+01  0.28155476457E+01  0.40206132252E+01  0.51100000000E-03 0. -1.
        -11    1    3    3    0    0  0.11030235187E+01  0.22005093385E+02 -0.16471956798E+02  0.27509383068E+02  0.51100000000E-03 0.  1.
        -12    1    3    3    0    0 -0.43701462824E+01  0.18463513755E+02 -0.97841623814E+00  0.18998863573E+02  0.00000000000E+00 0.  1.
</event>
<event>
 7    1  0.2900470E-011  0.5052886E+02  0.7816164E-02  0.1300439E+00
        -11   -1    0    0    0    0  0.00000000000E+00  0.00000000000E+00  0.45593999997E+02  0.45594000000E+02  0.51100000000E-03 0.  1.
         11   -1    0    0    0    0 -0.00000000000E+00 -0.00000000000E+00 -0.45593999997E+02  0.45594000000E+02  0.51100000000E-03 0. -1.
    9900012    2    1    2    0    0  0.22668809016E+02  0.33003514873E+02 -0.70752502308E+01  0.50528855125E+02  0.29999985637E+02 0.  0.
         12    1    1    2    0    0 -0.22668809016E+02 -0.33003514873E+02  0.70752502308E+01  0.40659144875E+02  0.00000000000E+00 0. -1.
         11    1    3    3    0    0  0.25610274898E+01  0.13749657521E+02 -0.45906683161E+01  0.14720264250E+02  0.51100000000E-03 0. -1.
        -11    1    3    3    0    0  0.51647215171E+01 -0.50265736867E+01 -0.26003253496E+00  0.72116855559E+01  0.51100000000E-03 0.  1.
        -12    1    3    3    0    0  0.14943060009E+02  0.24280431039E+02 -0.22245493798E+01  0.28596905318E+02  0.00000000000E+00 0.  1.
</event>
<event>
 7    1  0.2900470E-011  0.5052886E+02  0.7816164E-02  0.1300439E+00
        -11   -1    0    0    0    0  0.00000000000E+00  0.00000000000E+00  0.45593999997E+02  0.45594000000E+02  0.51100000000E-03 0.  1.
         11   -1    0    0    0    0 -0.00000000000E+00 -0.00000000000E+00 -0.45593999997E+02  0.45594000000E+02  0.51100000000E-03 0. -1.
    9900012    2    1    2    0    0 -0.30069100224E+02  0.17144586373E+02  0.21332554247E+02  0.50528862025E+02  0.30000006610E+02 0.  0.
         12    1    1    2    0    0  0.30069100224E+02 -0.17144586373E+02 -0.21332554247E+02  0.40659137975E+02  0.00000000000E+00 0. -1.
         11    1    3    3    0    0 -0.56345427369E+01 -0.15999054075E+01  0.13044037726E+02  0.14298765318E+02  0.51100000000E-03 0. -1.
        -11    1    3    3    0    0 -0.26099414723E+02  0.18303608344E+02  0.46641167980E+01  0.32217316975E+02  0.51100000000E-03 0.  1.
        -12    1    3    3    0    0  0.16648572359E+01  0.44088343628E+00  0.36243997239E+01  0.40127797321E+01  0.00000000000E+00 0.  1.
</event>
<event>
 7    1  0.2900470E-011  0.5052885E+02  0.7816164E-02  0.1300439E+00
        -11   -1    0    0    0    0  0.00000000000E+00  0.00000000000E+00  0.45593999997E+02  0.45594000000E+02  0.51100000000E-03 0. -1.
         11   -1    0    0    0    0 -0.00000000000E+00 -0.00000000000E+00 -0.45593999997E+02  0.45594000000E+02  0.51100000000E-03 0.  1.
    9900012    2    1    2    0    0 -0.39139256298E+02  0.28241562893E+01  0.10644663224E+02  0.50528854689E+02  0.29999984312E+02 0.  0.
         12    1    1    2    0    0  0.39139256298E+02 -0.28241562893E+01 -0.10644663224E+02  0.40659145311E+02  0.00000000000E+00 0. -1.
         11    1    3    3    0    0 -0.61520741177E+01  0.99110912741E+01 -0.40946813157E+01  0.12363015875E+02  0.51100000000E-03 0. -1.
        -11    1    3    3    0    0 -0.91201257716E+01 -0.22310267372E-01 -0.22543845355E+00  0.91229389231E+01  0.51100000000E-03 0.  1.
         12    1    3    3    0    0 -0.23867056408E+02 -0.70646247174E+01  0.14964782994E+02  0.29042899890E+02  0.00000000000E+00 0. -1.
</event>
<event>
 7    1  0.2900470E-011  0.5052886E+02  0.7816164E-02  0.1300439E+00
        -11   -1    0    0    0    0  0.00000000000E+00  0.00000000000E+00  0.45593999997E+02  0.45594000000E+02  0.51100000000E-03 0.  1.
         11   -1    0    0    0    0 -0.00000000000E+00 -0.00000000000E+00 -0.45593999997E+02  0.45594000000E+02  0.51100000000E-03 0. -1.
    9900012    2    1    2    0    0 -0.22894848811E+02 -0.11337382358E+02  0.31629980784E+02  0.50528855577E+02  0.29999987013E+02 0.  0.
         12    1    1    2    0    0  0.22894848811E+02  0.11337382358E+02 -0.31629980784E+02  0.40659144423E+02  0.00000000000E+00 0. -1.
         11    1    3    3    0    0 -0.11760931015E+01  0.53495836338E+01  0.12034227979E+02  0.13222098296E+02  0.51100000000E-03 0. -1.
        -11    1    3    3    0    0 -0.10538627861E+02 -0.13714153811E+02  0.19042892938E+02  0.25724938555E+02  0.51100000000E-03 0.  1.
         12    1    3    3    0    0 -0.11180127848E+02 -0.29728121802E+01  0.55285986615E+00  0.11581818726E+02  0.00000000000E+00 0. -1.
</event>
<event>
 7    1  0.2900470E-011  0.5052886E+02  0.7816164E-02  0.1300439E+00
        -11   -1    0    0    0    0  0.00000000000E+00  0.00000000000E+00  0.45593999997E+02  0.45594000000E+02  0.51100000000E-03 0.  1.
         11   -1    0    0    0    0 -0.00000000000E+00 -0.00000000000E+00 -0.45593999997E+02  0.45594000000E+02  0.51100000000E-03 0. -1.
    9900012    2    1    2    0    0 -0.99011730626E+01 -0.38704640420E+02  0.75553345676E+01  0.50528862054E+02  0.30000006700E+02 0.  0.
         12    1    1    2    0    0  0.99011730626E+01  0.38704640420E+02 -0.75553345676E+01  0.40659137946E+02  0.00000000000E+00 0. -1.
         11    1    3    3    0    0 -0.12449094539E+02 -0.25092133733E+02  0.27743341220E+01  0.28147683035E+02  0.51100000000E-03 0. -1.
        -11    1    3    3    0    0  0.52639198983E+01 -0.12994193504E+01  0.77203431663E+01  0.94340363690E+01  0.51100000000E-03 0.  1.
        -12    1    3    3    0    0 -0.27159984214E+01 -0.12313087337E+02 -0.29393427207E+01  0.12947142651E+02  0.00000000000E+00 0.  1.
</event>
<event>
 7    1  0.2900470E-011  0.5052886E+02  0.7816164E-02  0.1300439E+00
        -11   -1    0    0    0    0  0.00000000000E+00  0.00000000000E+00  0.45593999997E+02  0.45594000000E+02  0.51100000000E-03 0.  1.
         11   -1    0    0    0    0 -0.00000000000E+00 -0.00000000000E+00 -0.45593999997E+02  0.45594000000E+02  0.51100000000E-03 0. -1.
    9900012    2    1    2    0    0 -0.31240796335E+02 -0.23461885047E+02 -0.11256913288E+02  0.50528862006E+02  0.30000006554E+02 0.  0.
         12    1    1    2    0    0  0.31240796335E+02  0.23461885047E+02  0.11256913288E+02  0.40659137994E+02  0.00000000000E+00 0. -1.
         11    1    3    3    0    0 -0.80925599750E+01 -0.22608836196E+02  0.17531658801E+00  0.24014157017E+02  0.51100000000E-03 0. -1.
        -11    1    3    3    0    0 -0.18592484492E+02  0.70758158577E+00 -0.67345512358E+01  0.19787251752E+02  0.51100000000E-03 0.  1.
         12    1    3    3    0    0 -0.45557518683E+01 -0.15606304366E+01 -0.46976786405E+01  0.67274532369E+01  0.00000000000E+00 0. -1.
</event>
<event>
 7    1  0.2900470E-011  0.5052886E+02  0.7816164E-02  0.1300439E+00
        -11   -1    0    0    0    0  0.00000000000E+00  0.00000000000E+00  0.45593999997E+02  0.45594000000E+02  0.51100000000E-03 0. -1.
         11   -1    0    0    0    0 -0.00000000000E+00 -0.00000000000E+00 -0.45593999997E+02  0.45594000000E+02  0.51100000000E-03 0.  1.
    9900012    2    1    2    0    0 -0.14585392154E+01  0.15197703558E+02 -0.37683791010E+02  0.50528860376E+02  0.30000001599E+02 0.  0.
         12    1    1    2    0    0  0.14585392154E+01 -0.15197703558E+02  0.37683791010E+02  0.40659139624E+02  0.00000000000E+00 0. -1.
         11    1    3    3    0    0  0.11072739560E+02  0.12277263643E+01 -0.23336671356E+02  0.25859487691E+02  0.51100000000E-03 0. -1.
        -11    1    3    3    0    0 -0.10410770666E+02  0.91129259384E+01 -0.13446803616E+02  0.19293680125E+02  0.51100000000E-03 0.  1.
         12    1    3    3    0    0 -0.21205081096E+01  0.48570512549E+01 -0.90031603761E+00  0.53756925603E+01  0.00000000000E+00 0. -1.
</event>
<event>
 7    1  0.2900470E-011  0.5052875E+02  0.7816164E-02  0.1300439E+00
        -11   -1    0    0    0    0  0.00000000000E+00  0.00000000000E+00  0.45593999997E+02  0.45594000000E+02  0.51100000000E-03 0. -1.
         11   -1    0    0    0    0 -0.00000000000E+00 -0.00000000000E+00 -0.45593999997E+02  0.45594000000E+02  0.51100000000E-03 0.  1.
    9900012    2    1    2    0    0 -0.33066369530E+02  0.41257250936E+01 -0.23297386119E+02  0.50528750112E+02  0.29999666440E+02 0.  0.
         12    1    1    2    0    0  0.33066369530E+02 -0.41257250936E+01  0.23297386119E+02  0.40659249888E+02  0.00000000000E+00 0. -1.
         11    1    3    3    0    0 -0.29398410926E+02  0.52506582324E+00 -0.11635812167E+02  0.31621739107E+02  0.51100000000E-03 0. -1.
        -11    1    3    3    0    0  0.15353527568E+00 -0.51081662179E+01 -0.58225195776E+01  0.77471717216E+01  0.51100000000E-03 0.  1.
         12    1    3    3    0    0 -0.38214938800E+01  0.87088254882E+01 -0.58390543747E+01  0.11159839284E+02  0.00000000000E+00 0. -1.
</event>
<event>
 7    1  0.2900470E-011  0.5052886E+02  0.7816164E-02  0.1300439E+00
        -11   -1    0    0    0    0  0.00000000000E+00  0.00000000000E+00  0.45593999997E+02  0.45594000000E+02  0.51100000000E-03 0. -1.
         11   -1    0    0    0    0 -0.00000000000E+00 -0.00000000000E+00 -0.45593999997E+02  0.45594000000E+02  0.51100000000E-03 0.  1.
    9900012    2    1    2    0    0 -0.22072686301E+02 -0.34021736698E+02  0.29126690332E+01  0.50528859707E+02  0.29999999565E+02 0.  0.
         12    1    1    2    0    0  0.22072686301E+02  0.34021736698E+02 -0.29126690332E+01  0.40659140293E+02  0.00000000000E+00 0. -1.
         11    1    3    3    0    0 -0.12264095031E+01  0.32886756695E+01  0.28190280180E+01  0.45018204269E+01  0.51100000000E-03 0. -1.
        -11    1    3    3    0    0 -0.21788980494E+02 -0.38616304060E+02  0.58478836543E+00  0.44343213550E+02  0.51100000000E-03 0.  1.
        -12    1    3    3    0    0  0.94270369620E+00  0.13058916925E+01 -0.49114735017E+00  0.16838257306E+01  0.00000000000E+00 0.  1.
</event>
<event>
 7    1  0.2900470E-011  0.5052888E+02  0.7816164E-02  0.1300439E+00
        -11   -1    0    0    0    0  0.00000000000E+00  0.00000000000E+00  0.45593999997E+02  0.45594000000E+02  0.51100000000E-03 0.  1.
         11   -1    0    0    0    0 -0.00000000000E+00 -0.00000000000E+00 -0.45593999997E+02  0.45594000000E+02  0.51100000000E-03 0. -1.
    9900012    2    1    2    0    0  0.29025925177E+02  0.28292864051E+02 -0.31895540200E+01  0.50528883637E+02  0.30000072303E+02 0.  0.
         12    1    1    2    0    0 -0.29025925177E+02 -0.28292864051E+02  0.31895540200E+01  0.40659116363E+02  0.00000000000E+00 0. -1.
         11    1    3    3    0    0 -0.15003632044E+01 -0.33837231359E+01  0.20938189560E+01  0.42526168517E+01  0.51100000000E-03 0. -1.
        -11    1    3    3    0    0  0.15226550647E+02  0.23335649391E+02 -0.71053355605E+01  0.28755628506E+02  0.51100000000E-03 0.  1.
         12    1    3    3    0    0  0.15299737734E+02  0.83409377961E+01  0.18219625845E+01  0.17520638279E+02  0.00000000000E+00 0. -1.
</event>
<event>
 7    1  0.2900470E-011  0.5052884E+02  0.7816164E-02  0.1300439E+00
        -11   -1    0    0    0    0  0.00000000000E+00  0.00000000000E+00  0.45593999997E+02  0.45594000000E+02  0.51100000000E-03 0.  1.
         11   -1    0    0    0    0 -0.00000000000E+00 -0.00000000000E+00 -0.45593999997E+02  0.45594000000E+02  0.51100000000E-03 0. -1.
    9900012    2    1    2    0    0 -0.40342683014E+01  0.92958176131E+01  0.39376131923E+02  0.50528839765E+02  0.29999938949E+02 0.  0.
         12    1    1    2    0    0  0.40342683014E+01 -0.92958176131E+01 -0.39376131923E+02  0.40659160235E+02  0.00000000000E+00 0. -1.
         11    1    3    3    0    0 -0.10230948290E+02  0.28598774660E+01  0.31200255001E+02  0.32959173449E+02  0.51100000000E-03 0. -1.
        -11    1    3    3    0    0  0.59377553590E+01 -0.15009521512E+01  0.73776870045E+01  0.95885380461E+01  0.51100000000E-03 0.  1.
         12    1    3    3    0    0  0.25892462931E+00  0.79368922982E+01  0.79818991685E+00  0.79811282699E+01  0.00000000000E+00 0. -1.
</event>
<event>
 7    1  0.2900470E-011  0.5052886E+02  0.7816164E-02  0.1300439E+00
        -11   -1    0    0    0    0  0.00000000000E+00  0.00000000000E+00  0.45593999997E+02  0.45594000000E+02  0.51100000000E-03 0.  1.
         11   -1    0    0    0    0 -0.00000000000E+00 -0.00000000000E+00 -0.45593999997E+02  0.45594000000E+02  0.51100000000E-03 0. -1.
    9900012    2    1    2    0    0  0.15960428731E+02 -0.24713772490E+02  0.28065273557E+02  0.50528863071E+02  0.30000009790E+02 0.  0.
         12    1    1    2    0    0 -0.15960428731E+02  0.24713772490E+02 -0.28065273557E+02  0.40659136929E+02  0.00000000000E+00 0. -1.
         11    1    3    3    0    0  0.10004814340E+02 -0.15365377222E+02  0.47899175552E+01  0.18950842662E+02  0.51100000000E-03 0. -1.
        -11    1    3    3    0    0  0.44967909974E+01 -0.12356113802E+02  0.24670426368E+02  0.27955761750E+02  0.51100000000E-03 0.  1.
        -12    1    3    3    0    0  0.14588233933E+01  0.30077185333E+01 -0.13950703658E+01  0.36222586592E+01  0.00000000000E+00 0.  1.
</event>
<event>
 7    1  0.2900470E-011  0.5052887E+02  0.7816164E-02  0.1300439E+00
        -11   -1    0    0    0    0  0.00000000000E+00  0.00000000000E+00  0.45593999997E+02  0.45594000000E+02  0.51100000000E-03 0.  1.
         11   -1    0    0    0    0 -0.00000000000E+00 -0.00000000000E+00 -0.45593999997E+02  0.45594000000E+02  0.51100000000E-03 0. -1.
    9900012    2    1    2    0    0  0.31523235101E+02 -0.14351812528E+02  0.21294980206E+02  0.50528867495E+02  0.30000023239E+02 0.  0.
         12    1    1    2    0    0 -0.31523235101E+02  0.14351812528E+02 -0.21294980206E+02  0.40659132505E+02  0.00000000000E+00 0. -1.
         11    1    3    3    0    0 -0.65161078918E+00  0.20532237697E+01  0.85676079457E+01  0.88342645784E+01  0.51100000000E-03 0. -1.
        -11    1    3    3    0    0  0.23249120153E+02 -0.17017239459E+02  0.14973591680E+02  0.32470239832E+02  0.51100000000E-03 0.  1.
         12    1    3    3    0    0  0.89257257366E+01  0.61220316153E+00 -0.22462194194E+01  0.92243630845E+01  0.00000000000E+00 0. -1.
</event>
<event>
 7    1  0.2900470E-011  0.5052885E+02  0.7816164E-02  0.1300439E+00
        -11   -1    0    0    0    0  0.00000000000E+00  0.00000000000E+00  0.45593999997E+02  0.45594000000E+02  0.51100000000E-03 0.  1.
         11   -1    0    0    0    0 -0.00000000000E+00 -0.00000000000E+00 -0.45593999997E+02  0.45594000000E+02  0.51100000000E-03 0. -1.
    9900012    2    1    2    0    0 -0.17654159116E+02  0.35367472930E+02 -0.95204415924E+01  0.50528852399E+02  0.29999977351E+02 0.  0.
         12    1    1    2    0    0  0.17654159116E+02 -0.35367472930E+02  0.95204415924E+01  0.40659147601E+02  0.00000000000E+00 0. -1.
         11    1    3    3    0    0 -0.89825011619E+01  0.42111208465E+00 -0.45576479410E+01  0.10081409501E+02  0.51100000000E-03 0. -1.
        -11    1    3    3    0    0 -0.14037232934E+02  0.26852215245E+02 -0.51505886596E+01  0.30734572322E+02  0.51100000000E-03 0.  1.
        -12    1    3    3    0    0  0.53655749796E+01  0.80941456000E+01  0.18779500816E+00  0.97128705757E+01  0.00000000000E+00 0.  1.
</event>
<event>
 7    1  0.2900470E-011  0.5052886E+02  0.7816164E-02  0.1300439E+00
        -11   -1    0    0    0    0  0.00000000000E+00  0.00000000000E+00  0.45593999997E+02  0.45594000000E+02  0.51100000000E-03 0.  1.
         11   -1    0    0    0    0 -0.00000000000E+00 -0.00000000000E+00 -0.45593999997E+02  0.45594000000E+02  0.51100000000E-03 0. -1.
    9900012    2    1    2    0    0  0.34988698627E+02 -0.14890592092E+02  0.14395383323E+02  0.50528858033E+02  0.29999994476E+02 0.  0.
         12    1    1    2    0    0 -0.34988698627E+02  0.14890592092E+02 -0.14395383323E+02  0.40659141967E+02  0.00000000000E+00 0. -1.
         11    1    3    3    0    0 -0.11737765287E+01 -0.79394580623E+01  0.12244507158E+00  0.80266891506E+01  0.51100000000E-03 0. -1.
        -11    1    3    3    0    0  0.29437592102E+02 -0.52819261228E+01  0.40909505981E+01  0.30186196339E+02  0.51100000000E-03 0.  1.
        -12    1    3    3    0    0  0.67248830541E+01 -0.16692079072E+01  0.10181987653E+02  0.12315972544E+02  0.00000000000E+00 0.  1.
</event>
<event>
 7    1  0.2900470E-011  0.5052885E+02  0.7816164E-02  0.1300439E+00
        -11   -1    0    0    0    0  0.00000000000E+00  0.00000000000E+00  0.45593999997E+02  0.45594000000E+02  0.51100000000E-03 0.  1.
         11   -1    0    0    0    0 -0.00000000000E+00 -0.00000000000E+00 -0.45593999997E+02  0.45594000000E+02  0.51100000000E-03 0. -1.
    9900012    2    1    2    0    0 -0.44548677736E+01  0.28807794650E+02  0.28344870852E+02  0.50528848717E+02  0.29999966159E+02 0.  0.
         12    1    1    2    0    0  0.44548677736E+01 -0.28807794650E+02 -0.28344870852E+02  0.40659151283E+02  0.00000000000E+00 0. -1.
         11    1    3    3    0    0  0.54812166130E+01 -0.23607999150E+01  0.57653655111E+01  0.82979847876E+01  0.51100000000E-03 0. -1.
        -11    1    3    3    0    0  0.16226348780E+00  0.22116244023E+02  0.13532886266E+02  0.25928624917E+02  0.51100000000E-03 0.  1.
        -12    1    3    3    0    0 -0.10098347874E+02  0.90523505414E+01  0.90466190751E+01  0.16302239012E+02  0.00000000000E+00 0.  1.
</event>
<event>
 7    1  0.2900470E-011  0.5052893E+02  0.7816164E-02  0.1300439E+00
        -11   -1    0    0    0    0  0.00000000000E+00  0.00000000000E+00  0.45593999997E+02  0.45594000000E+02  0.51100000000E-03 0.  1.
         11   -1    0    0    0    0 -0.00000000000E+00 -0.00000000000E+00 -0.45593999997E+02  0.45594000000E+02  0.51100000000E-03 0. -1.
    9900012    2    1    2    0    0 -0.37460854232E+01  0.19616095065E+02  0.35416596686E+02  0.50528933823E+02  0.30000224847E+02 0.  0.
         12    1    1    2    0    0  0.37460854232E+01 -0.19616095065E+02 -0.35416596686E+02  0.40659066177E+02  0.00000000000E+00 0. -1.
         11    1    3    3    0    0 -0.68327055990E+00  0.23745530705E+02  0.20204119051E+02  0.31185309266E+02  0.51100000000E-03 0. -1.
        -11    1    3    3    0    0 -0.67057743457E+01 -0.40810246917E+01  0.12656187678E+02  0.14892993618E+02  0.51100000000E-03 0.  1.
         12    1    3    3    0    0  0.36429594824E+01 -0.48410947883E-01  0.25562899571E+01  0.44506309390E+01  0.00000000000E+00 0. -1.
</event>
<event>
 7    1  0.2900470E-011  0.5052887E+02  0.7816164E-02  0.1300439E+00
        -11   -1    0    0    0    0  0.00000000000E+00  0.00000000000E+00  0.45593999997E+02  0.45594000000E+02  0.51100000000E-03 0.  1.
         11   -1    0    0    0    0 -0.00000000000E+00 -0.00000000000E+00 -0.45593999997E+02  0.45594000000E+02  0.51100000000E-03 0. -1.
    9900012    2    1    2    0    0  0.74837402027E+01 -0.12895276318E+02  0.37826849994E+02  0.50528866965E+02  0.30000021626E+02 0.  0.
         12    1    1    2    0    0 -0.74837402027E+01  0.12895276318E+02 -0.37826849994E+02  0.40659133035E+02  0.00000000000E+00 0. -1.
         11    1    3    3    0    0 -0.61303787161E+01 -0.92473932905E+01  0.72111107824E+01  0.13232382433E+02  0.51100000000E-03 0. -1.
        -11    1    3    3    0    0  0.59490111920E+01 -0.83124832483E+01  0.24187018427E+02  0.26258331488E+02  0.51100000000E-03 0.  1.
         12    1    3    3    0    0  0.76651077269E+01  0.46646002213E+01  0.64287207847E+01  0.11038153044E+02  0.00000000000E+00 0. -1.
</event>
<event>
 7    1  0.2900470E-011  0.5052874E+02  0.7816164E-02  0.1300439E+00
        -11   -1    0    0    0    0  0.00000000000E+00  0.00000000000E+00  0.45593999997E+02  0.45594000000E+02  0.51100000000E-03 0.  1.
         11   -1    0    0    0    0 -0.00000000000E+00 -0.00000000000E+00 -0.45593999997E+02  0.45594000000E+02  0.51100000000E-03 0. -1.
    9900012    2    1    2    0    0  0.25902322015E+02  0.25641290406E+02  0.18021348637E+02  0.50528744397E+02  0.29999649068E+02 0.  0.
         12    1    1    2    0    0 -0.25902322015E+02 -0.25641290406E+02 -0.18021348637E+02  0.40659255603E+02  0.00000000000E+00 0. -1.
         11    1    3    3    0    0  0.99158505032E+01  0.13956943814E+02 -0.63432006198E+01  0.18258054831E+02  0.51100000000E-03 0. -1.
        -11    1    3    3    0    0  0.87747939532E+01  0.88696224321E+01  0.10146261407E+02  0.16081474802E+02  0.51100000000E-03 0.  1.
         12    1    3    3    0    0  0.72116775588E+01  0.28147241599E+01  0.14218287850E+02  0.16189214764E+02  0.00000000000E+00 0. -1.
</event>
<event>
 7    1  0.2900470E-011  0.5052887E+02  0.7816164E-02  0.1300439E+00
        -11   -1    0    0    0    0  0.00000000000E+00  0.00000000000E+00  0.45593999997E+02  0.45594000000E+02  0.51100000000E-03 0.  1.
         11   -1    0    0    0    0 -0.00000000000E+00 -0.00000000000E+00 -0.45593999997E+02  0.45594000000E+02  0.51100000000E-03 0. -1.
    9900012    2    1    2    0    0  0.67341375668E+01  0.15066252337E+02  0.37159442806E+02  0.50528871161E+02  0.30000034382E+02 0.  0.
         12    1    1    2    0    0 -0.67341375668E+01 -0.15066252337E+02 -0.37159442806E+02  0.40659128839E+02  0.00000000000E+00 0. -1.
         11    1    3    3    0    0  0.10152858803E+02 -0.52030878986E+01  0.75263695058E+01  0.13667439546E+02  0.51100000000E-03 0. -1.
        -11    1    3    3    0    0 -0.36764584512E+01  0.19440744455E+02  0.23735542470E+02  0.30900402397E+02  0.51100000000E-03 0.  1.
        -12    1    3    3    0    0  0.25773721517E+00  0.82859578121E+00  0.58975308305E+01  0.59610292179E+01  0.00000000000E+00 0.  1.
</event>
<event>
 7    1  0.2900470E-011  0.5052886E+02  0.7816164E-02  0.1300439E+00
        -11   -1    0    0    0    0  0.00000000000E+00  0.00000000000E+00  0.45593999997E+02  0.45594000000E+02  0.51100000000E-03 0. -1.
         11   -1    0    0    0    0 -0.00000000000E+00 -0.00000000000E+00 -0.45593999997E+02  0.45594000000E+02  0.51100000000E-03 0.  1.
    9900012    2    1    2    0    0  0.37115866944E+02 -0.72655580029E+01 -0.14926150752E+02  0.50528857259E+02  0.29999992125E+02 0.  0.
         12    1    1    2    0    0 -0.37115866944E+02  0.72655580029E+01  0.14926150752E+02  0.40659142741E+02  0.00000000000E+00 0. -1.
         11    1    3    3    0    0  0.28699034371E+01 -0.47388753972E+01  0.25500900695E+01  0.60988724689E+01  0.51100000000E-03 0. -1.
        -11    1    3    3    0    0  0.42661594185E+01  0.24937859366E+01 -0.12741483010E+02  0.13666179936E+02  0.51100000000E-03 0.  1.
        -12    1    3    3    0    0  0.29979804089E+02 -0.50204685423E+01 -0.47347578118E+01  0.30763804854E+02  0.00000000000E+00 0.  1.
</event>
<event>
 7    1  0.2900470E-011  0.5052887E+02  0.7816164E-02  0.1300439E+00
        -11   -1    0    0    0    0  0.00000000000E+00  0.00000000000E+00  0.45593999997E+02  0.45594000000E+02  0.51100000000E-03 0. -1.
         11   -1    0    0    0    0 -0.00000000000E+00 -0.00000000000E+00 -0.45593999997E+02  0.45594000000E+02  0.51100000000E-03 0.  1.
    9900012    2    1    2    0    0 -0.55324379048E+01  0.22379632784E+00 -0.40280358095E+02  0.50528865697E+02  0.30000017773E+02 0.  0.
         12    1    1    2    0    0  0.55324379048E+01 -0.22379632784E+00  0.40280358095E+02  0.40659134303E+02  0.00000000000E+00 0. -1.
         11    1    3    3    0    0  0.75251508198E+01  0.85306584005E+01 -0.90231138710E+01  0.14519525192E+02  0.51100000000E-03 0. -1.
        -11    1    3    3    0    0  0.31520568329E+00 -0.22899788993E+01 -0.94616019537E+01  0.97398803777E+01  0.51100000000E-03 0.  1.
         12    1    3    3    0    0 -0.13372794408E+02 -0.60168831734E+01 -0.21795642271E+02  0.26269460128E+02  0.00000000000E+00 0. -1.
</event>
<event>
 7    1  0.2900470E-011  0.5052886E+02  0.7816164E-02  0.1300439E+00
        -11   -1    0    0    0    0  0.00000000000E+00  0.00000000000E+00  0.45593999997E+02  0.45594000000E+02  0.51100000000E-03 0.  1.
         11   -1    0    0    0    0 -0.00000000000E+00 -0.00000000000E+00 -0.45593999997E+02  0.45594000000E+02  0.51100000000E-03 0. -1.
    9900012    2    1    2    0    0  0.30435056759E+02  0.17289676063E+02  0.20686711042E+02  0.50528860904E+02  0.30000003204E+02 0.  0.
         12    1    1    2    0    0 -0.30435056759E+02 -0.17289676063E+02 -0.20686711042E+02  0.40659139096E+02  0.00000000000E+00 0. -1.
         11    1    3    3    0    0  0.12940470695E+02  0.46873992382E+01  0.65427190149E+01  0.15239247547E+02  0.51100000000E-03 0. -1.
        -11    1    3    3    0    0 -0.15008612236E+01  0.90457978406E+01  0.13028729393E+02  0.15931943788E+02  0.51100000000E-03 0.  1.
        -12    1    3    3    0    0  0.18995447288E+02  0.35564789846E+01  0.11152626335E+01  0.19357669570E+02  0.00000000000E+00 0.  1.
</event>
<event>
 7    1  0.2900470E-011  0.5052882E+02  0.7816164E-02  0.1300439E+00
        -11   -1    0    0    0    0  0.00000000000E+00  0.00000000000E+00  0.45593999997E+02  0.45594000000E+02  0.51100000000E-03 0. -1.
         11   -1    0    0    0    0 -0.00000000000E+00 -0.00000000000E+00 -0.45593999997E+02  0.45594000000E+02  0.51100000000E-03 0.  1.
    9900012    2    1    2    0    0 -0.15402491966E+00  0.36846713330E+02 -0.17189083330E+02  0.50528824005E+02  0.29999891044E+02 0.  0.
         12    1    1    2    0    0  0.15402491966E+00 -0.36846713330E+02  0.17189083330E+02  0.40659175995E+02  0.00000000000E+00 0. -1.
         11    1    3    3    0    0  0.16015620136E+01  0.24196586095E+01  0.62818133697E+01  0.69196046233E+01  0.51100000000E-03 0. -1.
        -11    1    3    3    0    0  0.43955064350E+01  0.16930695720E+02 -0.71235333802E+01  0.18886864813E+02  0.51100000000E-03 0.  1.
         12    1    3    3    0    0 -0.61510933682E+01  0.17496359000E+02 -0.16347363319E+02  0.24722354568E+02  0.00000000000E+00 0. -1.
</event>
<event>
 7    1  0.2900470E-011  0.5052886E+02  0.7816164E-02  0.1300439E+00
        -11   -1    0    0    0    0  0.00000000000E+00  0.00000000000E+00  0.45593999997E+02  0.45594000000E+02  0.51100000000E-03 0. -1.
         11   -1    0    0    0    0 -0.00000000000E+00 -0.00000000000E+00 -0.45593999997E+02  0.45594000000E+02  0.51100000000E-03 0.  1.
    9900012    2    1    2    0    0 -0.24029680114E+02  0.30463601141E+02  0.12153578218E+02  0.50528856079E+02  0.29999988539E+02 0.  0.
         12    1    1    2    0    0  0.24029680114E+02 -0.30463601141E+02 -0.12153578218E+02  0.40659143921E+02  0.00000000000E+00 0. -1.
         11    1    3    3    0    0 -0.41209355917E+01  0.22127818705E+01 -0.27804454602E+00  0.46857040867E+01  0.51100000000E-03 0. -1.
        -11    1    3    3    0    0 -0.21963707035E+02  0.23014452790E+02 -0.41845299841E+00  0.31815791160E+02  0.51100000000E-03 0.  1.
        -12    1    3    3    0    0  0.20549625120E+01  0.52363664801E+01  0.12850075762E+02  0.14027360833E+02  0.00000000000E+00 0.  1.
</event>
<event>
 7    1  0.2900470E-011  0.5052886E+02  0.7816164E-02  0.1300439E+00
        -11   -1    0    0    0    0  0.00000000000E+00  0.00000000000E+00  0.45593999997E+02  0.45594000000E+02  0.51100000000E-03 0.  1.
         11   -1    0    0    0    0 -0.00000000000E+00 -0.00000000000E+00 -0.45593999997E+02  0.45594000000E+02  0.51100000000E-03 0. -1.
    9900012    2    1    2    0    0 -0.19117959595E+02  0.33195630470E+02  0.13627887330E+02  0.50528861120E+02  0.30000003861E+02 0.  0.
         12    1    1    2    0    0  0.19117959595E+02 -0.33195630470E+02 -0.13627887330E+02  0.40659138880E+02  0.00000000000E+00 0. -1.
         11    1    3    3    0    0 -0.90151434198E+01  0.23556006417E+02  0.18059023206E+02  0.31020744166E+02  0.51100000000E-03 0. -1.
        -11    1    3    3    0    0 -0.95947366661E+01  0.28298105597E+01  0.19159597483E+01  0.10185170667E+02  0.51100000000E-03 0.  1.
         12    1    3    3    0    0 -0.50807950904E+00  0.68098134932E+01 -0.63470956248E+01  0.93229462870E+01  0.00000000000E+00 0. -1.
</event>
<event>
 7    1  0.2900470E-011  0.5052886E+02  0.7816164E-02  0.1300439E+00
        -11   -1    0    0    0    0  0.00000000000E+00  0.00000000000E+00  0.45593999997E+02  0.45594000000E+02  0.51100000000E-03 0.  1.
         11   -1    0    0    0    0 -0.00000000000E+00 -0.00000000000E+00 -0.45593999997E+02  0.45594000000E+02  0.51100000000E-03 0. -1.
    9900012    2    1    2    0    0  0.90445264905E+01  0.23139692856E+02  0.32185659793E+02  0.50528861529E+02  0.30000005103E+02 0.  0.
         12    1    1    2    0    0 -0.90445264905E+01 -0.23139692856E+02 -0.32185659793E+02  0.40659138471E+02  0.00000000000E+00 0. -1.
         11    1    3    3    0    0 -0.79640342053E+01  0.14955318039E+02  0.96395218824E+01  0.19493787750E+02  0.51100000000E-03 0. -1.
        -11    1    3    3    0    0  0.29929488587E+01 -0.15399726858E+01  0.77658876758E+01  0.84639394137E+01  0.51100000000E-03 0.  1.
         12    1    3    3    0    0  0.14015611837E+02  0.97243475030E+01  0.14780250235E+02  0.22571134365E+02  0.00000000000E+00 0. -1.
</event>
<event>
 7    1  0.2900470E-011  0.5052886E+02  0.7816164E-02  0.1300439E+00
        -11   -1    0    0    0    0  0.00000000000E+00  0.00000000000E+00  0.45593999997E+02  0.45594000000E+02  0.51100000000E-03 0. -1.
         11   -1    0    0    0    0 -0.00000000000E+00 -0.00000000000E+00 -0.45593999997E+02  0.45594000000E+02  0.51100000000E-03 0.  1.
    9900012    2    1    2    0    0  0.41246033141E+01  0.33414938295E+02 -0.22794626848E+02  0.50528862443E+02  0.30000007881E+02 0.  0.
         12    1    1    2    0    0 -0.41246033141E+01 -0.33414938295E+02  0.22794626848E+02  0.40659137557E+02  0.00000000000E+00 0. -1.
         11    1    3    3    0    0 -0.22662484980E+01  0.17720942881E+01 -0.27249313966E+01  0.39625057474E+01  0.51100000000E-03 0. -1.
        -11    1    3    3    0    0  0.72658068992E+01  0.37120466242E+00 -0.12366839592E+02  0.14348117108E+02  0.51100000000E-03 0.  1.
        -12    1    3    3    0    0 -0.87495508702E+00  0.31271639345E+02 -0.77028558594E+01  0.32218239587E+02  0.00000000000E+00 0.  1.
</event>
<event>
 7    1  0.2900470E-011  0.5052887E+02  0.7816164E-02  0.1300439E+00
        -11   -1    0    0    0    0  0.00000000000E+00  0.00000000000E+00  0.45593999997E+02  0.45594000000E+02  0.51100000000E-03 0.  1.
         11   -1    0    0    0    0 -0.00000000000E+00 -0.00000000000E+00 -0.45593999997E+02  0.45594000000E+02  0.51100000000E-03 0. -1.
    9900012    2    1    2    0    0 -0.20634576634E+02 -0.29413320570E+02  0.19032497268E+02  0.50528866561E+02  0.30000020398E+02 0.  0.
         12    1    1    2    0    0  0.20634576634E+02  0.29413320570E+02 -0.19032497268E+02  0.40659133439E+02  0.00000000000E+00 0. -1.
         11    1    3    3    0    0 -0.26924817078E+01 -0.10142072386E+02 -0.54502045492E+01  0.11824373976E+02  0.51100000000E-03 0. -1.
        -11    1    3    3    0    0 -0.14294987690E+02 -0.21334282401E+02  0.19850349741E+02  0.32458198713E+02  0.51100000000E-03 0.  1.
        -12    1    3    3    0    0 -0.36471072363E+01  0.20630342170E+01  0.46323520760E+01  0.62462938716E+01  0.00000000000E+00 0.  1.
</event>
<event>
 7    1  0.2900470E-011  0.5052885E+02  0.7816164E-02  0.1300439E+00
        -11   -1    0    0    0    0  0.00000000000E+00  0.00000000000E+00  0.45593999997E+02  0.45594000000E+02  0.51100000000E-03 0. -1.
         11   -1    0    0    0    0 -0.00000000000E+00 -0.00000000000E+00 -0.45593999997E+02  0.45594000000E+02  0.51100000000E-03 0.  1.
    9900012    2    1    2    0    0 -0.23205115409E+02  0.21365096177E+02 -0.25655838093E+02  0.50528846737E+02  0.29999960143E+02 0.  0.
         12    1    1    2    0    0  0.23205115409E+02 -0.21365096177E+02  0.25655838093E+02  0.40659153263E+02  0.00000000000E+00 0. -1.
         11    1    3    3    0    0  0.18508097033E+00 -0.33439715623E+00 -0.11860042494E+02  0.11866199250E+02  0.51100000000E-03 0. -1.
        -11    1    3    3    0    0 -0.15788801839E+02  0.88630239564E+01  0.34185209041E+00  0.18109564331E+02  0.51100000000E-03 0.  1.
        -12    1    3    3    0    0 -0.76013945404E+01  0.12836469377E+02 -0.14137647689E+02  0.20553083156E+02  0.00000000000E+00 0.  1.
</event>
<event>
 7    1  0.2900470E-011  0.5052884E+02  0.7816164E-02  0.1300439E+00
        -11   -1    0    0    0    0  0.00000000000E+00  0.00000000000E+00  0.45593999997E+02  0.45594000000E+02  0.51100000000E-03 0.  1.
         11   -1    0    0    0    0 -0.00000000000E+00 -0.00000000000E+00 -0.45593999997E+02  0.45594000000E+02  0.51100000000E-03 0. -1.
    9900012    2    1    2    0    0 -0.13027232748E+02  0.28838083101E+02  0.25530829734E+02  0.50528842398E+02  0.29999946954E+02 0.  0.
         12    1    1    2    0    0  0.13027232748E+02 -0.28838083101E+02 -0.25530829734E+02  0.40659157602E+02  0.00000000000E+00 0. -1.
         11    1    3    3    0    0  0.83654328025E+01  0.10258758492E+02  0.87523308142E+01  0.15869022866E+02  0.51100000000E-03 0. -1.
        -11    1    3    3    0    0 -0.21324135185E+02  0.19308158983E+02  0.17467373022E+02  0.33654611352E+02  0.51100000000E-03 0.  1.
        -12    1    3    3    0    0 -0.68530365077E-01 -0.72883437449E+00 -0.68887410262E+00  0.10052081802E+01  0.00000000000E+00 0.  1.
</event>
<event>
 7    1  0.2900470E-011  0.5052886E+02  0.7816164E-02  0.1300439E+00
        -11   -1    0    0    0    0  0.00000000000E+00  0.00000000000E+00  0.45593999997E+02  0.45594000000E+02  0.51100000000E-03 0.  1.
         11   -1    0    0    0    0 -0.00000000000E+00 -0.00000000000E+00 -0.45593999997E+02  0.45594000000E+02  0.51100000000E-03 0. -1.
    9900012    2    1    2    0    0  0.35988466396E+02  0.16972819729E+02  0.83617723773E+01  0.50528861293E+02  0.30000004387E+02 0.  0.
         12    1    1    2    0    0 -0.35988466396E+02 -0.16972819729E+02 -0.83617723773E+01  0.40659138707E+02  0.00000000000E+00 0. -1.
         11    1    3    3    0    0 -0.42997418593E+01  0.57607930961E+01 -0.17497208673E+01  0.73983809395E+01  0.51100000000E-03 0. -1.
        -11    1    3    3    0    0  0.27591494361E+02  0.91244085811E+01  0.70707133047E+01  0.29908867914E+02  0.51100000000E-03 0.  1.
         12    1    3    3    0    0  0.12696713895E+02  0.20876180518E+01  0.30407799398E+01  0.13221612439E+02  0.00000000000E+00 0. -1.
</event>
<event>
 7    1  0.2900470E-011  0.5052886E+02  0.7816164E-02  0.1300439E+00
        -11   -1    0    0    0    0  0.00000000000E+00  0.00000000000E+00  0.45593999997E+02  0.45594000000E+02  0.51100000000E-03 0.  1.
         11   -1    0    0    0    0 -0.00000000000E+00 -0.00000000000E+00 -0.45593999997E+02  0.45594000000E+02  0.51100000000E-03 0. -1.
    9900012    2    1    2    0    0  0.29845335235E+02  0.11994011217E+02  0.24870970719E+02  0.50528861730E+02  0.30000005715E+02 0.  0.
         12    1    1    2    0    0 -0.29845335235E+02 -0.11994011217E+02 -0.24870970719E+02  0.40659138270E+02  0.00000000000E+00 0. -1.
         11    1    3    3    0    0  0.43096357519E+01  0.79080453072E+01 -0.33673273800E+01  0.96150421132E+01  0.51100000000E-03 0. -1.
        -11    1    3    3    0    0  0.66989722525E+01  0.35924599425E+01  0.17840030228E+02  0.19391974538E+02  0.51100000000E-03 0.  1.
         12    1    3    3    0    0  0.18836727230E+02  0.49350596753E+00  0.10398267871E+02  0.21521845079E+02  0.00000000000E+00 0. -1.
</event>
<event>
 7    1  0.2900470E-011  0.5052886E+02  0.7816164E-02  0.1300439E+00
        -11   -1    0    0    0    0  0.00000000000E+00  0.00000000000E+00  0.45593999997E+02  0.45594000000E+02  0.51100000000E-03 0.  1.
         11   -1    0    0    0    0 -0.00000000000E+00 -0.00000000000E+00 -0.45593999997E+02  0.45594000000E+02  0.51100000000E-03 0. -1.
    9900012    2    1    2    0    0  0.15725787797E+02 -0.18683245986E+02  0.32508487257E+02  0.50528858025E+02  0.29999994454E+02 0.  0.
         12    1    1    2    0    0 -0.15725787797E+02  0.18683245986E+02 -0.32508487257E+02  0.40659141975E+02  0.00000000000E+00 0. -1.
         11    1    3    3    0    0  0.48810771172E+01 -0.15568579162E+02  0.56020875145E+00  0.16325422048E+02  0.51100000000E-03 0. -1.
        -11    1    3    3    0    0  0.48093097488E+01 -0.28813587618E+01  0.10283442832E+02  0.11712424400E+02  0.51100000000E-03 0.  1.
         12    1    3    3    0    0  0.60354009308E+01 -0.23330806270E+00  0.21664835673E+02  0.22491011577E+02  0.00000000000E+00 0. -1.
</event>
<event>
 7    1  0.2900470E-011  0.5052886E+02  0.7816164E-02  0.1300439E+00
        -11   -1    0    0    0    0  0.00000000000E+00  0.00000000000E+00  0.45593999997E+02  0.45594000000E+02  0.51100000000E-03 0.  1.
         11   -1    0    0    0    0 -0.00000000000E+00 -0.00000000000E+00 -0.45593999997E+02  0.45594000000E+02  0.51100000000E-03 0. -1.
    9900012    2    1    2    0    0 -0.14867933714E+02  0.18273346031E+02  0.33139027360E+02  0.50528858808E+02  0.29999996832E+02 0.  0.
         12    1    1    2    0    0  0.14867933714E+02 -0.18273346031E+02 -0.33139027360E+02  0.40659141192E+02  0.00000000000E+00 0. -1.
         11    1    3    3    0    0 -0.49374670758E+01  0.93987311117E+01  0.30345034551E+02  0.32148652379E+02  0.51100000000E-03 0. -1.
        -11    1    3    3    0    0 -0.86097675573E+01  0.11851363255E+02  0.34704121916E+01  0.15054124665E+02  0.51100000000E-03 0.  1.
         12    1    3    3    0    0 -0.13206990812E+01 -0.29767483353E+01 -0.67641938252E+00  0.33260817633E+01  0.00000000000E+00 0. -1.
</event>
<event>
 7    1  0.2900470E-011  0.5052884E+02  0.7816164E-02  0.1300439E+00
        -11   -1    0    0    0    0  0.00000000000E+00  0.00000000000E+00  0.45593999997E+02  0.45594000000E+02  0.51100000000E-03 0. -1.
         11   -1    0    0    0    0 -0.00000000000E+00 -0.00000000000E+00 -0.45593999997E+02  0.45594000000E+02  0.51100000000E-03 0.  1.
    9900012    2    1    2    0    0  0.22317688254E+01  0.33694397620E+02 -0.22646728981E+02  0.50528836745E+02  0.29999929770E+02 0.  0.
         12    1    1    2    0    0 -0.22317688254E+01 -0.33694397620E+02  0.22646728981E+02  0.40659163255E+02  0.00000000000E+00 0. -1.
         11    1    3    3    0    0  0.73759841480E+01  0.72062864442E+01  0.48101878223E+00  0.10323133526E+02  0.51100000000E-03 0. -1.
        -11    1    3    3    0    0 -0.33285687991E+01  0.27166407550E+02 -0.25315925036E+02  0.37282557987E+02  0.51100000000E-03 0.  1.
        -12    1    3    3    0    0 -0.18156465234E+01 -0.67829637401E+00  0.21881772724E+01  0.29231452315E+01  0.00000000000E+00 0.  1.
</event>
<event>
 7    1  0.2900470E-011  0.5052899E+02  0.7816164E-02  0.1300438E+00
        -11   -1    0    0    0    0  0.00000000000E+00  0.00000000000E+00  0.45593999997E+02  0.45594000000E+02  0.51100000000E-03 0.  1.
         11   -1    0    0    0    0 -0.00000000000E+00 -0.00000000000E+00 -0.45593999997E+02  0.45594000000E+02  0.51100000000E-03 0. -1.
    9900012    2    1    2    0    0 -0.33320806362E+01 -0.26086819752E+02  0.31008555692E+02  0.50528985596E+02  0.30000382217E+02 0.  0.
         12    1    1    2    0    0  0.33320806362E+01  0.26086819752E+02 -0.31008555692E+02  0.40659014404E+02  0.00000000000E+00 0. -1.
         11    1    3    3    0    0 -0.99716575407E+01 -0.33341547008E+01  0.15696992916E+02  0.18893017984E+02  0.51100000000E-03 0.  1.
        -11    1    3    3    0    0  0.77592933790E+01 -0.71846421681E+01  0.11391005968E+02  0.15542867627E+02  0.51100000000E-03 0. -1.
         12    1    3    3    0    0 -0.11197164745E+01 -0.15568022883E+02  0.39205568081E+01  0.16093099986E+02  0.00000000000E+00 0. -1.
</event>
<event>
 7    1  0.2900470E-011  0.5052886E+02  0.7816164E-02  0.1300439E+00
        -11   -1    0    0    0    0  0.00000000000E+00  0.00000000000E+00  0.45593999997E+02  0.45594000000E+02  0.51100000000E-03 0.  1.
         11   -1    0    0    0    0 -0.00000000000E+00 -0.00000000000E+00 -0.45593999997E+02  0.45594000000E+02  0.51100000000E-03 0. -1.
    9900012    2    1    2    0    0 -0.12337417886E+02  0.31587743267E+02  0.22431412376E+02  0.50528859995E+02  0.30000000440E+02 0.  0.
         12    1    1    2    0    0  0.12337417886E+02 -0.31587743267E+02 -0.22431412376E+02  0.40659140005E+02  0.00000000000E+00 0. -1.
         11    1    3    3    0    0  0.79544197058E+01  0.98957972633E+01  0.35407342824E+01  0.13180910282E+02  0.51100000000E-03 0. -1.
        -11    1    3    3    0    0 -0.21860516204E+02  0.21450388656E+02  0.17826938479E+02  0.35437283728E+02  0.51100000000E-03 0.  1.
        -12    1    3    3    0    0  0.15686786122E+01  0.24155734708E+00  0.10637396147E+01  0.19106659855E+01  0.00000000000E+00 0.  1.
</event>
<event>
 7    1  0.2900470E-011  0.5052886E+02  0.7816164E-02  0.1300439E+00
        -11   -1    0    0    0    0  0.00000000000E+00  0.00000000000E+00  0.45593999997E+02  0.45594000000E+02  0.51100000000E-03 0. -1.
         11   -1    0    0    0    0 -0.00000000000E+00 -0.00000000000E+00 -0.45593999997E+02  0.45594000000E+02  0.51100000000E-03 0.  1.
    9900012    2    1    2    0    0  0.19512382245E+02 -0.27425390192E+02  0.22809656720E+02  0.50528861694E+02  0.30000005606E+02 0.  0.
         12    1    1    2    0    0 -0.19512382245E+02  0.27425390192E+02 -0.22809656720E+02  0.40659138306E+02  0.00000000000E+00 0. -1.
         11    1    3    3    0    0  0.16013099757E+02 -0.15374437004E+02  0.20695914938E+02  0.30349852922E+02  0.51100000000E-03 0. -1.
        -11    1    3    3    0    0 -0.24165527331E+01 -0.12805580681E+02 -0.16367063136E+01  0.13133980033E+02  0.51100000000E-03 0.  1.
        -12    1    3    3    0    0  0.59158352213E+01  0.75462749263E+00  0.37504480952E+01  0.70450287390E+01  0.00000000000E+00 0.  1.
</event>
<event>
 7    1  0.2900470E-011  0.5052888E+02  0.7816164E-02  0.1300439E+00
        -11   -1    0    0    0    0  0.00000000000E+00  0.00000000000E+00  0.45593999997E+02  0.45594000000E+02  0.51100000000E-03 0. -1.
         11   -1    0    0    0    0 -0.00000000000E+00 -0.00000000000E+00 -0.45593999997E+02  0.45594000000E+02  0.51100000000E-03 0.  1.
    9900012    2    1    2    0    0  0.15963561094E+02  0.11669466634E+02 -0.35526786290E+02  0.50528877058E+02  0.30000052305E+02 0.  0.
         12    1    1    2    0    0 -0.15963561094E+02 -0.11669466634E+02  0.35526786290E+02  0.40659122942E+02  0.00000000000E+00 0. -1.
         11    1    3    3    0    0 -0.57974168327E+01  0.40476605799E+01 -0.38631825995E+01  0.80571569527E+01  0.51100000000E-03 0. -1.
        -11    1    3    3    0    0  0.94684417980E+01  0.43770790148E+01 -0.26974192832E+02  0.28920879828E+02  0.51100000000E-03 0.  1.
         12    1    3    3    0    0  0.12292536129E+02  0.32447270397E+01 -0.46894108583E+01  0.13550840278E+02  0.00000000000E+00 0. -1.
</event>
<event>
 7    1  0.2900470E-011  0.5052886E+02  0.7816164E-02  0.1300439E+00
        -11   -1    0    0    0    0  0.00000000000E+00  0.00000000000E+00  0.45593999997E+02  0.45594000000E+02  0.51100000000E-03 0.  1.
         11   -1    0    0    0    0 -0.00000000000E+00 -0.00000000000E+00 -0.45593999997E+02  0.45594000000E+02  0.51100000000E-03 0. -1.
    9900012    2    1    2    0    0  0.31079768995E+02  0.39150915333E+01  0.25920763481E+02  0.50528856356E+02  0.29999989378E+02 0.  0.
         12    1    1    2    0    0 -0.31079768995E+02 -0.39150915333E+01 -0.25920763481E+02  0.40659143644E+02  0.00000000000E+00 0. -1.
         11    1    3    3    0    0  0.13273867032E+02  0.15364805531E+02  0.13588872237E+02  0.24432155941E+02  0.51100000000E-03 0.  1.
        -11    1    3    3    0    0  0.47628773612E+01 -0.67992426689E+01  0.81457945363E+01  0.11630506030E+02  0.51100000000E-03 0. -1.
         12    1    3    3    0    0  0.13043024602E+02 -0.46504713283E+01  0.41860967074E+01  0.14466194385E+02  0.00000000000E+00 0. -1.
</event>
<event>
 7    1  0.2900470E-011  0.5052887E+02  0.7816164E-02  0.1300439E+00
        -11   -1    0    0    0    0  0.00000000000E+00  0.00000000000E+00  0.45593999997E+02  0.45594000000E+02  0.51100000000E-03 0.  1.
         11   -1    0    0    0    0 -0.00000000000E+00 -0.00000000000E+00 -0.45593999997E+02  0.45594000000E+02  0.51100000000E-03 0. -1.
    9900012    2    1    2    0    0 -0.38567204069E+02 -0.10839784071E+02 -0.69451379291E+01  0.50528867087E+02  0.30000021997E+02 0.  0.
         12    1    1    2    0    0  0.38567204069E+02  0.10839784071E+02  0.69451379291E+01  0.40659132913E+02  0.00000000000E+00 0. -1.
         11    1    3    3    0    0 -0.14883513002E+02  0.42265137272E+01 -0.12619432294E+02  0.19965781959E+02  0.51100000000E-03 0. -1.
        -11    1    3    3    0    0 -0.21191148772E+02 -0.11097700311E+02  0.99704548811E+00  0.23941968140E+02  0.51100000000E-03 0.  1.
         12    1    3    3    0    0 -0.24925422947E+01 -0.39685974875E+01  0.46772488763E+01  0.66211169873E+01  0.00000000000E+00 0. -1.
</event>
<event>
 7    1  0.2900470E-011  0.5052886E+02  0.7816164E-02  0.1300439E+00
        -11   -1    0    0    0    0  0.00000000000E+00  0.00000000000E+00  0.45593999997E+02  0.45594000000E+02  0.51100000000E-03 0.  1.
         11   -1    0    0    0    0 -0.00000000000E+00 -0.00000000000E+00 -0.45593999997E+02  0.45594000000E+02  0.51100000000E-03 0. -1.
    9900012    2    1    2    0    0 -0.54277533066E+01 -0.13532107878E+02  0.37955068462E+02  0.50528859926E+02  0.30000000232E+02 0.  0.
         12    1    1    2    0    0  0.54277533066E+01  0.13532107878E+02 -0.37955068462E+02  0.40659140074E+02  0.00000000000E+00 0. -1.
         11    1    3    3    0    0  0.54934126172E+00  0.91381557676E+00 -0.42189390217E+01  0.43515837875E+01  0.51100000000E-03 0. -1.
        -11    1    3    3    0    0 -0.66794494111E+01 -0.82990741971E+01  0.15585773034E+02  0.18878718132E+02  0.51100000000E-03 0.  1.
         12    1    3    3    0    0  0.70235484277E+00 -0.61468492572E+01  0.26588234450E+02  0.27298558007E+02  0.00000000000E+00 0. -1.
</event>
<event>
 7    1  0.2900470E-011  0.5052886E+02  0.7816164E-02  0.1300439E+00
        -11   -1    0    0    0    0  0.00000000000E+00  0.00000000000E+00  0.45593999997E+02  0.45594000000E+02  0.51100000000E-03 0. -1.
         11   -1    0    0    0    0 -0.00000000000E+00 -0.00000000000E+00 -0.45593999997E+02  0.45594000000E+02  0.51100000000E-03 0.  1.
    9900012    2    1    2    0    0  0.16549039690E+01 -0.40087312620E+02  0.65904911141E+01  0.50528856952E+02  0.29999991192E+02 0.  0.
         12    1    1    2    0    0 -0.16549039690E+01  0.40087312620E+02 -0.65904911141E+01  0.40659143048E+02  0.00000000000E+00 0. -1.
         11    1    3    3    0    0  0.10260397815E+02 -0.10865558528E+02  0.11142448391E+02  0.18641091220E+02  0.51100000000E-03 0. -1.
        -11    1    3    3    0    0 -0.51737009782E+01 -0.21147364734E+02  0.47500500116E+00  0.21776222056E+02  0.51100000000E-03 0.  1.
         12    1    3    3    0    0 -0.34317928679E+01 -0.80743893577E+01 -0.50269622779E+01  0.10111543677E+02  0.00000000000E+00 0. -1.
</event>
<event>
 7    1  0.2900470E-011  0.5052880E+02  0.7816164E-02  0.1300439E+00
        -11   -1    0    0    0    0  0.00000000000E+00  0.00000000000E+00  0.45593999997E+02  0.45594000000E+02  0.51100000000E-03 0. -1.
         11   -1    0    0    0    0 -0.00000000000E+00 -0.00000000000E+00 -0.45593999997E+02  0.45594000000E+02  0.51100000000E-03 0.  1.
    9900012    2    1    2    0    0  0.23348332043E+02 -0.23784830384E+01 -0.33201937452E+02  0.50528801271E+02  0.29999821942E+02 0.  0.
         12    1    1    2    0    0 -0.23348332043E+02  0.23784830384E+01  0.33201937452E+02  0.40659198729E+02  0.00000000000E+00 0. -1.
         11    1    3    3    0    0 -0.49739001146E+01 -0.31303412271E+01 -0.87712693761E+00  0.59420594472E+01  0.51100000000E-03 0. -1.
        -11    1    3    3    0    0  0.23695450764E+02  0.95624523613E+00 -0.18713211591E+02  0.30208824542E+02  0.51100000000E-03 0.  1.
         12    1    3    3    0    0  0.46267813930E+01 -0.20438704750E+00 -0.13611598923E+02  0.14377917282E+02  0.00000000000E+00 0. -1.
</event>
<event>
 7    1  0.2900470E-011  0.5052886E+02  0.7816164E-02  0.1300439E+00
        -11   -1    0    0    0    0  0.00000000000E+00  0.00000000000E+00  0.45593999997E+02  0.45594000000E+02  0.51100000000E-03 0. -1.
         11   -1    0    0    0    0 -0.00000000000E+00 -0.00000000000E+00 -0.45593999997E+02  0.45594000000E+02  0.51100000000E-03 0.  1.
    9900012    2    1    2    0    0  0.25187023402E+02 -0.28151135307E+02 -0.15043037324E+02  0.50528861558E+02  0.30000005193E+02 0.  0.
         12    1    1    2    0    0 -0.25187023402E+02  0.28151135307E+02  0.15043037324E+02  0.40659138442E+02  0.00000000000E+00 0. -1.
         11    1    3    3    0    0 -0.39383354056E+01 -0.27517305086E+01 -0.10033354266E+02  0.11124329402E+02  0.51100000000E-03 0. -1.
        -11    1    3    3    0    0  0.12571130937E+02 -0.13509589611E+02 -0.46014782111E+01  0.19018831365E+02  0.51100000000E-03 0.  1.
         12    1    3    3    0    0  0.16554227870E+02 -0.11889815187E+02 -0.40820484730E+00  0.20385700791E+02  0.00000000000E+00 0. -1.
</event>
<event>
 7    1  0.2900470E-011  0.5052888E+02  0.7816164E-02  0.1300439E+00
        -11   -1    0    0    0    0  0.00000000000E+00  0.00000000000E+00  0.45593999997E+02  0.45594000000E+02  0.51100000000E-03 0.  1.
         11   -1    0    0    0    0 -0.00000000000E+00 -0.00000000000E+00 -0.45593999997E+02  0.45594000000E+02  0.51100000000E-03 0. -1.
    9900012    2    1    2    0    0  0.27051577132E+02  0.48318477815E+01  0.29967137094E+02  0.50528881909E+02  0.30000067050E+02 0.  0.
         12    1    1    2    0    0 -0.27051577132E+02 -0.48318477815E+01 -0.29967137094E+02  0.40659118091E+02  0.00000000000E+00 0. -1.
         11    1    3    3    0    0  0.16331821343E+02  0.12956681638E+02  0.11400289626E+02  0.23760694250E+02  0.51100000000E-03 0. -1.
        -11    1    3    3    0    0  0.11984824719E+02 -0.31418173312E+01  0.17620992741E+02  0.21540808368E+02  0.51100000000E-03 0.  1.
         12    1    3    3    0    0 -0.12650689296E+01 -0.49830165252E+01  0.94585472739E+00  0.52273792910E+01  0.00000000000E+00 0. -1.
</event>
<event>
 7    1  0.2900470E-011  0.5052886E+02  0.7816164E-02  0.1300439E+00
        -11   -1    0    0    0    0  0.00000000000E+00  0.00000000000E+00  0.45593999997E+02  0.45594000000E+02  0.51100000000E-03 0. -1.
         11   -1    0    0    0    0 -0.00000000000E+00 -0.00000000000E+00 -0.45593999997E+02  0.45594000000E+02  0.51100000000E-03 0.  1.
    9900012    2    1    2    0    0  0.17252578349E+02 -0.36627387151E+02 -0.37348164489E+01  0.50528858308E+02  0.29999995313E+02 0.  0.
         12    1    1    2    0    0 -0.17252578349E+02  0.36627387151E+02  0.37348164489E+01  0.40659141692E+02  0.00000000000E+00 0. -1.
         11    1    3    3    0    0 -0.18345246835E+01 -0.20269431100E+01  0.85297484918E+01  0.89571529394E+01  0.51100000000E-03 0. -1.
        -11    1    3    3    0    0  0.29034021800E+01 -0.43616699736E+01 -0.30317004764E+01  0.60535210595E+01  0.51100000000E-03 0.  1.
         12    1    3    3    0    0  0.16183700852E+02 -0.30238774068E+02 -0.92328644643E+01  0.35518184309E+02  0.00000000000E+00 0. -1.
</event>
<event>
 7    1  0.2900470E-011  0.5052886E+02  0.7816164E-02  0.1300439E+00
        -11   -1    0    0    0    0  0.00000000000E+00  0.00000000000E+00  0.45593999997E+02  0.45594000000E+02  0.51100000000E-03 0. -1.
         11   -1    0    0    0    0 -0.00000000000E+00 -0.00000000000E+00 -0.45593999997E+02  0.45594000000E+02  0.51100000000E-03 0.  1.
    9900012    2    1    2    0    0  0.27184427203E+02 -0.30193612280E+02 -0.15869561285E+01  0.50528859150E+02  0.29999997873E+02 0.  0.
         12    1    1    2    0    0 -0.27184427203E+02  0.30193612280E+02  0.15869561285E+01  0.40659140850E+02  0.00000000000E+00 0. -1.
         11    1    3    3    0    0  0.39480498237E+01 -0.15109422651E+02  0.61253176501E+01  0.16775019131E+02  0.51100000000E-03 0. -1.
        -11    1    3    3    0    0  0.14357146828E+02  0.37378067121E+00 -0.80452963783E-01  0.14362236942E+02  0.51100000000E-03 0.  1.
        -12    1    3    3    0    0  0.88792305519E+01 -0.15457970299E+02 -0.76318208149E+01  0.19391603078E+02  0.00000000000E+00 0.  1.
</event>
<event>
 7    1  0.2900470E-011  0.5052886E+02  0.7816164E-02  0.1300439E+00
        -11   -1    0    0    0    0  0.00000000000E+00  0.00000000000E+00  0.45593999997E+02  0.45594000000E+02  0.51100000000E-03 0.  1.
         11   -1    0    0    0    0 -0.00000000000E+00 -0.00000000000E+00 -0.45593999997E+02  0.45594000000E+02  0.51100000000E-03 0. -1.
    9900012    2    1    2    0    0  0.24459035841E+02  0.32447154376E+02  0.14502623817E+01  0.50528861761E+02  0.30000005808E+02 0.  0.
         12    1    1    2    0    0 -0.24459035841E+02 -0.32447154376E+02 -0.14502623817E+01  0.40659138239E+02  0.00000000000E+00 0. -1.
         11    1    3    3    0    0  0.92245167311E+01  0.21583390965E+02 -0.78135235264E+01  0.24738343207E+02  0.51100000000E-03 0. -1.
        -11    1    3    3    0    0  0.99394880481E+01  0.14026046452E+02  0.94564037692E+01  0.19620065602E+02  0.51100000000E-03 0.  1.
         12    1    3    3    0    0  0.52950310620E+01 -0.31622830415E+01 -0.19261786107E+00  0.61704529512E+01  0.00000000000E+00 0. -1.
</event>
<event>
 7    1  0.2900470E-011  0.5052886E+02  0.7816164E-02  0.1300439E+00
        -11   -1    0    0    0    0  0.00000000000E+00  0.00000000000E+00  0.45593999997E+02  0.45594000000E+02  0.51100000000E-03 0. -1.
         11   -1    0    0    0    0 -0.00000000000E+00 -0.00000000000E+00 -0.45593999997E+02  0.45594000000E+02  0.51100000000E-03 0.  1.
    9900012    2    1    2    0    0  0.47687862060E+01  0.28923371673E+02 -0.28175566661E+02  0.50528864403E+02  0.30000013839E+02 0.  0.
         12    1    1    2    0    0 -0.47687862060E+01 -0.28923371673E+02  0.28175566661E+02  0.40659135597E+02  0.00000000000E+00 0. -1.
         11    1    3    3    0    0 -0.22111436096E+01  0.98727563301E+01 -0.30804105003E+00  0.10122023670E+02  0.51100000000E-03 0. -1.
        -11    1    3    3    0    0  0.10614507881E+02  0.81220800737E+00 -0.10809114482E+02  0.15171170540E+02  0.51100000000E-03 0.  1.
        -12    1    3    3    0    0 -0.36345780659E+01  0.18238407336E+02 -0.17058411129E+02  0.25235670193E+02  0.00000000000E+00 0.  1.
</event>
<event>
 7    1  0.2900470E-011  0.5052886E+02  0.7816164E-02  0.1300439E+00
        -11   -1    0    0    0    0  0.00000000000E+00  0.00000000000E+00  0.45593999997E+02  0.45594000000E+02  0.51100000000E-03 0. -1.
         11   -1    0    0    0    0 -0.00000000000E+00 -0.00000000000E+00 -0.45593999997E+02  0.45594000000E+02  0.51100000000E-03 0.  1.
    9900012    2    1    2    0    0 -0.59639676427E+00  0.32873034372E+02 -0.23920148792E+02  0.50528860854E+02  0.30000003051E+02 0.  0.
         12    1    1    2    0    0  0.59639676427E+00 -0.32873034372E+02  0.23920148792E+02  0.40659139146E+02  0.00000000000E+00 0. -1.
         11    1    3    3    0    0  0.21107586358E+01  0.15842241215E+02  0.50735093416E+01  0.16768196266E+02  0.51100000000E-03 0. -1.
        -11    1    3    3    0    0 -0.93312915980E+00  0.29653465353E+01 -0.56748010143E+01  0.64705005151E+01  0.51100000000E-03 0.  1.
         12    1    3    3    0    0 -0.17740262402E+01  0.14065446622E+02 -0.23318857119E+02  0.27290164073E+02  0.00000000000E+00 0. -1.
</event>
<event>
 7    1  0.2900470E-011  0.5052886E+02  0.7816164E-02  0.1300439E+00
        -11   -1    0    0    0    0  0.00000000000E+00  0.00000000000E+00  0.45593999997E+02  0.45594000000E+02  0.51100000000E-03 0.  1.
         11   -1    0    0    0    0 -0.00000000000E+00 -0.00000000000E+00 -0.45593999997E+02  0.45594000000E+02  0.51100000000E-03 0. -1.
    9900012    2    1    2    0    0 -0.10125273983E+02 -0.18784241373E+02  0.34609200560E+02  0.50528860061E+02  0.30000000640E+02 0.  0.
         12    1    1    2    0    0  0.10125273983E+02  0.18784241373E+02 -0.34609200560E+02  0.40659139939E+02  0.00000000000E+00 0. -1.
         11    1    3    3    0    0 -0.65041412416E+01 -0.43134128626E+01 -0.98811035698E+00  0.78667494020E+01  0.51100000000E-03 0. -1.
        -11    1    3    3    0    0  0.68296308699E+01 -0.86953936712E+01  0.21586751359E+02  0.24253691748E+02  0.51100000000E-03 0.  1.
         12    1    3    3    0    0 -0.10450763612E+02 -0.57754348393E+01  0.14010559558E+02  0.18408418910E+02  0.00000000000E+00 0. -1.
</event>
<event>
 7    1  0.2900470E-011  0.5052883E+02  0.7816164E-02  0.1300439E+00
        -11   -1    0    0    0    0  0.00000000000E+00  0.00000000000E+00  0.45593999997E+02  0.45594000000E+02  0.51100000000E-03 0.  1.
         11   -1    0    0    0    0 -0.00000000000E+00 -0.00000000000E+00 -0.45593999997E+02  0.45594000000E+02  0.51100000000E-03 0. -1.
    9900012    2    1    2    0    0 -0.33920258196E+02 -0.14064567863E+02  0.17457731130E+02  0.50528826848E+02  0.29999899686E+02 0.  0.
         12    1    1    2    0    0  0.33920258196E+02  0.14064567863E+02 -0.17457731130E+02  0.40659173152E+02  0.00000000000E+00 0. -1.
         11    1    3    3    0    0 -0.21789154791E+02  0.26854842196E+01  0.14215208534E+02  0.26154373361E+02  0.51100000000E-03 0. -1.
        -11    1    3    3    0    0 -0.54412165515E+01 -0.23627522975E+01  0.58078137243E+01  0.83018152532E+01  0.51100000000E-03 0.  1.
         12    1    3    3    0    0 -0.66898868535E+01 -0.14387299785E+02 -0.25652911279E+01  0.16072638233E+02  0.00000000000E+00 0. -1.
</event>
<event>
 7    1  0.2900470E-011  0.5052885E+02  0.7816164E-02  0.1300439E+00
        -11   -1    0    0    0    0  0.00000000000E+00  0.00000000000E+00  0.45593999997E+02  0.45594000000E+02  0.51100000000E-03 0.  1.
         11   -1    0    0    0    0 -0.00000000000E+00 -0.00000000000E+00 -0.45593999997E+02  0.45594000000E+02  0.51100000000E-03 0. -1.
    9900012    2    1    2    0    0  0.67736353617E+01  0.21728128489E+02  0.33692323603E+02  0.50528851295E+02  0.29999973996E+02 0.  0.
         12    1    1    2    0    0 -0.67736353617E+01 -0.21728128489E+02 -0.33692323603E+02  0.40659148705E+02  0.00000000000E+00 0. -1.
         11    1    3    3    0    0  0.26106312603E+01  0.12082865173E+01 -0.17196787971E-01  0.28767425807E+01  0.51100000000E-03 0. -1.
        -11    1    3    3    0    0  0.53120172134E+00  0.11535987526E+02  0.35904899492E+02  0.37716349124E+02  0.51100000000E-03 0.  1.
        -12    1    3    3    0    0  0.36318023801E+01  0.89838544457E+01 -0.21953791010E+01  0.99357595898E+01  0.00000000000E+00 0.  1.
</event>
<event>
 7    1  0.2900470E-011  0.5052886E+02  0.7816164E-02  0.1300439E+00
        -11   -1    0    0    0    0  0.00000000000E+00  0.00000000000E+00  0.45593999997E+02  0.45594000000E+02  0.51100000000E-03 0.  1.
         11   -1    0    0    0    0 -0.00000000000E+00 -0.00000000000E+00 -0.45593999997E+02  0.45594000000E+02  0.51100000000E-03 0. -1.
    9900012    2    1    2    0    0 -0.15669598524E+02 -0.26444117202E+02  0.26614623583E+02  0.50528857842E+02  0.29999993898E+02 0.  0.
         12    1    1    2    0    0  0.15669598524E+02  0.26444117202E+02 -0.26614623583E+02  0.40659142158E+02  0.00000000000E+00 0. -1.
         11    1    3    3    0    0 -0.38515581881E+01 -0.32865516584E+01 -0.45592954613E+01  0.68134497609E+01  0.51100000000E-03 0. -1.
        -11    1    3    3    0    0 -0.68947870947E+00 -0.93670053749E+01  0.21645428354E+02  0.23595354192E+02  0.51100000000E-03 0.  1.
        -12    1    3    3    0    0 -0.11128561627E+02 -0.13790560169E+02  0.95284906908E+01  0.20120053889E+02  0.00000000000E+00 0.  1.
</event>
<event>
 7    1  0.2900470E-011  0.5052886E+02  0.7816164E-02  0.1300439E+00
        -11   -1    0    0    0    0  0.00000000000E+00  0.00000000000E+00  0.45593999997E+02  0.45594000000E+02  0.51100000000E-03 0.  1.
         11   -1    0    0    0    0 -0.00000000000E+00 -0.00000000000E+00 -0.45593999997E+02  0.45594000000E+02  0.51100000000E-03 0. -1.
    9900012    2    1    2    0    0 -0.69101159449E+01 -0.10895592069E+02  0.38557778507E+02  0.50528856965E+02  0.29999991232E+02 0.  0.
         12    1    1    2    0    0  0.69101159449E+01  0.10895592069E+02 -0.38557778507E+02  0.40659143035E+02  0.00000000000E+00 0. -1.
         11    1    3    3    0    0 -0.12315393946E+02  0.38529934693E+01  0.23016034643E+02  0.26386593901E+02  0.51100000000E-03 0. -1.
        -11    1    3    3    0    0 -0.11221258450E+01 -0.89198440107E+01  0.11234046505E+02  0.14388418423E+02  0.51100000000E-03 0.  1.
         12    1    3    3    0    0  0.65274038457E+01 -0.58287415274E+01  0.43076973591E+01  0.97538446418E+01  0.00000000000E+00 0. -1.
</event>
<event>
 7    1  0.2900470E-011  0.5052888E+02  0.7816164E-02  0.1300439E+00
        -11   -1    0    0    0    0  0.00000000000E+00  0.00000000000E+00  0.45593999997E+02  0.45594000000E+02  0.51100000000E-03 0.  1.
         11   -1    0    0    0    0 -0.00000000000E+00 -0.00000000000E+00 -0.45593999997E+02  0.45594000000E+02  0.51100000000E-03 0. -1.
    9900012    2    1    2    0    0 -0.52486319690E+01  0.19287583143E+02  0.35406283747E+02  0.50528881345E+02  0.30000065336E+02 0.  0.
         12    1    1    2    0    0  0.52486319690E+01 -0.19287583143E+02 -0.35406283747E+02  0.40659118655E+02  0.00000000000E+00 0. -1.
         11    1    3    3    0    0 -0.12639779043E+00  0.31790092601E+01 -0.59160116881E+00  0.32360575523E+01  0.51100000000E-03 0. -1.
        -11    1    3    3    0    0 -0.98153877720E+01  0.19858591408E+02  0.34666565354E+02  0.41139716134E+02  0.51100000000E-03 0.  1.
        -12    1    3    3    0    0  0.46931535934E+01 -0.37500175249E+01  0.13313195612E+01  0.61531076590E+01  0.00000000000E+00 0.  1.
</event>
<event>
 7    1  0.2900470E-011  0.5052885E+02  0.7816164E-02  0.1300439E+00
        -11   -1    0    0    0    0  0.00000000000E+00  0.00000000000E+00  0.45593999997E+02  0.45594000000E+02  0.51100000000E-03 0.  1.
         11   -1    0    0    0    0 -0.00000000000E+00 -0.00000000000E+00 -0.45593999997E+02  0.45594000000E+02  0.51100000000E-03 0. -1.
    9900012    2    1    2    0    0 -0.29008644227E+02  0.41590531470E+01  0.28184525947E+02  0.50528847699E+02  0.29999963066E+02 0.  0.
         12    1    1    2    0    0  0.29008644227E+02 -0.41590531470E+01 -0.28184525947E+02  0.40659152301E+02  0.00000000000E+00 0. -1.
         11    1    3    3    0    0 -0.13827215793E+02 -0.92249837818E+01  0.17537212005E+01  0.16714298091E+02  0.51100000000E-03 0. -1.
        -11    1    3    3    0    0 -0.40117366007E+01  0.49776411403E+01  0.12706262232E+02  0.14223924988E+02  0.51100000000E-03 0.  1.
         12    1    3    3    0    0 -0.11169691833E+02  0.84063957885E+01  0.13724542514E+02  0.19590624621E+02  0.00000000000E+00 0. -1.
</event>
<event>
 7    1  0.2900470E-011  0.5052886E+02  0.7816164E-02  0.1300439E+00
        -11   -1    0    0    0    0  0.00000000000E+00  0.00000000000E+00  0.45593999997E+02  0.45594000000E+02  0.51100000000E-03 0.  1.
         11   -1    0    0    0    0 -0.00000000000E+00 -0.00000000000E+00 -0.45593999997E+02  0.45594000000E+02  0.51100000000E-03 0. -1.
    9900012    2    1    2    0    0 -0.14688233199E+02 -0.26582151785E+02  0.27033506490E+02  0.50528862513E+02  0.30000008094E+02 0.  0.
         12    1    1    2    0    0  0.14688233199E+02  0.26582151785E+02 -0.27033506490E+02  0.40659137487E+02  0.00000000000E+00 0. -1.
         11    1    3    3    0    0  0.11988993197E-01 -0.15893209506E+01  0.50215810927E+00  0.16668076817E+01  0.51100000000E-03 0. -1.
        -11    1    3    3    0    0 -0.55063699268E+01 -0.53745692801E+01 -0.60131214890E+01  0.97654357312E+01  0.51100000000E-03 0.  1.
        -12    1    3    3    0    0 -0.91938522658E+01 -0.19618261554E+02  0.32544469870E+02  0.39096619100E+02  0.00000000000E+00 0.  1.
</event>
<event>
 7    1  0.2900470E-011  0.5052886E+02  0.7816164E-02  0.1300439E+00
        -11   -1    0    0    0    0  0.00000000000E+00  0.00000000000E+00  0.45593999997E+02  0.45594000000E+02  0.51100000000E-03 0.  1.
         11   -1    0    0    0    0 -0.00000000000E+00 -0.00000000000E+00 -0.45593999997E+02  0.45594000000E+02  0.51100000000E-03 0. -1.
    9900012    2    1    2    0    0  0.88869761648E+00 -0.18302554357E+02  0.36295899629E+02  0.50528860691E+02  0.30000002557E+02 0.  0.
         12    1    1    2    0    0 -0.88869761648E+00  0.18302554357E+02 -0.36295899629E+02  0.40659139309E+02  0.00000000000E+00 0. -1.
         11    1    3    3    0    0 -0.67662409673E+01 -0.23191711209E+00 -0.56534452823E+00  0.67937778203E+01  0.51100000000E-03 0. -1.
        -11    1    3    3    0    0  0.10203630701E+01 -0.16060121523E+02  0.29627037100E+02  0.33715426317E+02  0.51100000000E-03 0.  1.
        -12    1    3    3    0    0  0.66345755137E+01 -0.20105157215E+01  0.72342070574E+01  0.10019656554E+02  0.00000000000E+00 0.  1.
</event>
<event>
 7    1  0.2900470E-011  0.5052886E+02  0.7816164E-02  0.1300439E+00
        -11   -1    0    0    0    0  0.00000000000E+00  0.00000000000E+00  0.45593999997E+02  0.45594000000E+02  0.51100000000E-03 0. -1.
         11   -1    0    0    0    0 -0.00000000000E+00 -0.00000000000E+00 -0.45593999997E+02  0.45594000000E+02  0.51100000000E-03 0.  1.
    9900012    2    1    2    0    0 -0.95421523830E+01 -0.10781027070E+02 -0.38024764541E+02  0.50528856684E+02  0.29999990377E+02 0.  0.
         12    1    1    2    0    0  0.95421523830E+01  0.10781027070E+02  0.38024764541E+02  0.40659143316E+02  0.00000000000E+00 0. -1.
         11    1    3    3    0    0  0.22855298656E+01 -0.15401091518E+02 -0.10009362122E+02  0.18509581223E+02  0.51100000000E-03 0. -1.
        -11    1    3    3    0    0 -0.74616506366E+01  0.19506268832E+01 -0.24809393632E+02  0.25980515548E+02  0.51100000000E-03 0.  1.
        -12    1    3    3    0    0 -0.43660316119E+01  0.26694375649E+01 -0.32060087867E+01  0.60387599132E+01  0.00000000000E+00 0.  1.
</event>
<event>
 7    1  0.2900470E-011  0.5052889E+02  0.7816164E-02  0.1300439E+00
        -11   -1    0    0    0    0  0.00000000000E+00  0.00000000000E+00  0.45593999997E+02  0.45594000000E+02  0.51100000000E-03 0.  1.
         11   -1    0    0    0    0 -0.00000000000E+00 -0.00000000000E+00 -0.45593999997E+02  0.45594000000E+02  0.51100000000E-03 0. -1.
    9900012    2    1    2    0    0  0.29382114225E+02 -0.26535900105E+02 -0.92574558696E+01  0.50528891305E+02  0.30000095609E+02 0.  0.
         12    1    1    2    0    0 -0.29382114225E+02  0.26535900105E+02  0.92574558696E+01  0.40659108695E+02  0.00000000000E+00 0. -1.
         11    1    3    3    0    0  0.14165065163E+01 -0.17498325944E+02  0.33997543542E+01  0.17881728984E+02  0.51100000000E-03 0. -1.
        -11    1    3    3    0    0  0.12629535612E+02 -0.61233491356E+01 -0.32015130749E+01  0.14396189101E+02  0.51100000000E-03 0.  1.
         12    1    3    3    0    0  0.15336072097E+02 -0.29142250258E+01 -0.94556971489E+01  0.18250973219E+02  0.00000000000E+00 0. -1.
</event>
<event>
 7    1  0.2900470E-011  0.5052885E+02  0.7816164E-02  0.1300439E+00
        -11   -1    0    0    0    0  0.00000000000E+00  0.00000000000E+00  0.45593999997E+02  0.45594000000E+02  0.51100000000E-03 0.  1.
         11   -1    0    0    0    0 -0.00000000000E+00 -0.00000000000E+00 -0.45593999997E+02  0.45594000000E+02  0.51100000000E-03 0. -1.
    9900012    2    1    2    0    0  0.11864954353E+02 -0.13362219241E+01  0.38866482424E+02  0.50528854819E+02  0.29999984708E+02 0.  0.
         12    1    1    2    0    0 -0.11864954353E+02  0.13362219241E+01 -0.38866482424E+02  0.40659145181E+02  0.00000000000E+00 0. -1.
         11    1    3    3    0    0 -0.61612567909E+01  0.13574228008E+01  0.43712567884E+01  0.76753871612E+01  0.51100000000E-03 0. -1.
        -11    1    3    3    0    0  0.13261800805E+02 -0.30908037761E+01  0.35452416085E+02  0.37977654418E+02  0.51100000000E-03 0.  1.
         12    1    3    3    0    0  0.47644103393E+01  0.39715905127E+00 -0.95719044942E+00  0.48758132398E+01  0.00000000000E+00 0. -1.
</event>
<event>
 7    1  0.2900470E-011  0.5052886E+02  0.7816164E-02  0.1300439E+00
        -11   -1    0    0    0    0  0.00000000000E+00  0.00000000000E+00  0.45593999997E+02  0.45594000000E+02  0.51100000000E-03 0.  1.
         11   -1    0    0    0    0 -0.00000000000E+00 -0.00000000000E+00 -0.45593999997E+02  0.45594000000E+02  0.51100000000E-03 0. -1.
    9900012    2    1    2    0    0  0.87112024695E+01  0.85056856988E+01  0.38793480434E+02  0.50528857586E+02  0.29999993119E+02 0.  0.
         12    1    1    2    0    0 -0.87112024695E+01 -0.85056856988E+01 -0.38793480434E+02  0.40659142414E+02  0.00000000000E+00 0. -1.
         11    1    3    3    0    0 -0.13482174209E+01 -0.27509657415E+01  0.88489080076E+00  0.31888139982E+01  0.51100000000E-03 0. -1.
        -11    1    3    3    0    0  0.74911104468E+01  0.52868921438E+01  0.39581341513E+02  0.40629429733E+02  0.51100000000E-03 0.  1.
        -12    1    3    3    0    0  0.25683094435E+01  0.59697592965E+01 -0.16727518796E+01  0.67106138546E+01  0.00000000000E+00 0.  1.
</event>
<event>
 7    1  0.2941262E-011  0.5052885E+02  0.7816164E-02  0.1300439E+00
        -11   -1    0    0    0    0  0.00000000000E+00  0.00000000000E+00  0.45593999997E+02  0.45594000000E+02  0.51100000000E-03 0. -1.
         11   -1    0    0    0    0 -0.00000000000E+00 -0.00000000000E+00 -0.45593999997E+02  0.45594000000E+02  0.51100000000E-03 0.  1.
    9900012    2    1    2    0    0 -0.68426256686E+01 -0.29056188719E+02 -0.27605841606E+02  0.50528854415E+02  0.29999983481E+02 0.  0.
         12    1    1    2    0    0  0.68426256686E+01  0.29056188719E+02  0.27605841606E+02  0.40659145585E+02  0.00000000000E+00 0. -1.
         11    1    3    3    0    0  0.23503447473E+01  0.31172288306E+01  0.14250760672E+01  0.41559689690E+01  0.51100000000E-03 0. -1.
        -11    1    3    3    0    0 -0.13898458547E+01 -0.22788243905E+02 -0.24134206342E+02  0.33221915174E+02  0.51100000000E-03 0.  1.
         12    1    3    3    0    0 -0.78031245612E+01 -0.93851736447E+01 -0.48967113304E+01  0.13150970273E+02  0.00000000000E+00 0. -1.
</event>
<event>
 7    1  0.2900470E-011  0.5052887E+02  0.7816164E-02  0.1300439E+00
        -11   -1    0    0    0    0  0.00000000000E+00  0.00000000000E+00  0.45593999997E+02  0.45594000000E+02  0.51100000000E-03 0. -1.
         11   -1    0    0    0    0 -0.00000000000E+00 -0.00000000000E+00 -0.45593999997E+02  0.45594000000E+02  0.51100000000E-03 0.  1.
    9900012    2    1    2    0    0 -0.16282346007E+02  0.29319670699E+02 -0.22987107734E+02  0.50528868143E+02  0.30000025206E+02 0.  0.
         12    1    1    2    0    0  0.16282346007E+02 -0.29319670699E+02  0.22987107734E+02  0.40659131857E+02  0.00000000000E+00 0. -1.
         11    1    3    3    0    0 -0.61573548722E+01  0.13482552928E+02  0.44165226975E+01  0.15466024877E+02  0.51100000000E-03 0. -1.
        -11    1    3    3    0    0 -0.11657936055E+02  0.12970325528E+02 -0.17780722372E+02  0.24905640038E+02  0.51100000000E-03 0.  1.
         12    1    3    3    0    0  0.15329449203E+01  0.28667922432E+01 -0.96229080596E+01  0.10157203228E+02  0.00000000000E+00 0. -1.
</event>
<event>
 7    1  0.2900470E-011  0.5052885E+02  0.7816164E-02  0.1300439E+00
        -11   -1    0    0    0    0  0.00000000000E+00  0.00000000000E+00  0.45593999997E+02  0.45594000000E+02  0.51100000000E-03 0. -1.
         11   -1    0    0    0    0 -0.00000000000E+00 -0.00000000000E+00 -0.45593999997E+02  0.45594000000E+02  0.51100000000E-03 0.  1.
    9900012    2    1    2    0    0 -0.38844545631E+02  0.49576324624E+01  0.10940258196E+02  0.50528854728E+02  0.29999984430E+02 0.  0.
         12    1    1    2    0    0  0.38844545631E+02 -0.49576324624E+01 -0.10940258196E+02  0.40659145272E+02  0.00000000000E+00 0. -1.
         11    1    3    3    0    0  0.99346219002E-01  0.11276294712E+01  0.97506370389E+01  0.98161265692E+01  0.51100000000E-03 0. -1.
        -11    1    3    3    0    0 -0.30674908804E+02  0.53855840790E+01  0.48815701885E+01  0.31524344145E+02  0.51100000000E-03 0.  1.
         12    1    3    3    0    0 -0.82689830455E+01 -0.15555810878E+01 -0.36919490311E+01  0.91883840133E+01  0.00000000000E+00 0. -1.
</event>
<event>
 7    1  0.2900470E-011  0.5052892E+02  0.7816164E-02  0.1300439E+00
        -11   -1    0    0    0    0  0.00000000000E+00  0.00000000000E+00  0.45593999997E+02  0.45594000000E+02  0.51100000000E-03 0. -1.
         11   -1    0    0    0    0 -0.00000000000E+00 -0.00000000000E+00 -0.45593999997E+02  0.45594000000E+02  0.51100000000E-03 0.  1.
    9900012    2    1    2    0    0 -0.39375495512E+02 -0.98293724860E+01 -0.24728438618E+01  0.50528915319E+02  0.30000168604E+02 0.  0.
         12    1    1    2    0    0  0.39375495512E+02  0.98293724860E+01  0.24728438618E+01  0.40659084681E+02  0.00000000000E+00 0. -1.
         11    1    3    3    0    0  0.39702347288E+01 -0.13331286060E+00  0.38558551190E+01  0.55360775898E+01  0.51100000000E-03 0. -1.
        -11    1    3    3    0    0 -0.27085898545E+02 -0.44252519286E+01 -0.43067075873E+01  0.27780865450E+02  0.51100000000E-03 0.  1.
         12    1    3    3    0    0 -0.16259831696E+02 -0.52708076969E+01 -0.20219913935E+01  0.17211972280E+02  0.00000000000E+00 0. -1.
</event>
<event>
 7    1  0.2900470E-011  0.5052887E+02  0.7816164E-02  0.1300439E+00
        -11   -1    0    0    0    0  0.00000000000E+00  0.00000000000E+00  0.45593999997E+02  0.45594000000E+02  0.51100000000E-03 0.  1.
         11   -1    0    0    0    0 -0.00000000000E+00 -0.00000000000E+00 -0.45593999997E+02  0.45594000000E+02  0.51100000000E-03 0. -1.
    9900012    2    1    2    0    0  0.36603849842E+02  0.37007270874E+01 -0.17309756072E+02  0.50528869912E+02  0.30000030585E+02 0.  0.
         12    1    1    2    0    0 -0.36603849842E+02 -0.37007270874E+01  0.17309756072E+02  0.40659130088E+02  0.00000000000E+00 0. -1.
         11    1    3    3    0    0 -0.22613842566E+01 -0.81082400852E+00  0.44481372000E+01  0.50554148336E+01  0.51100000000E-03 0. -1.
        -11    1    3    3    0    0  0.38586241586E+02  0.34056517965E+01 -0.21504570839E+02  0.44305113375E+02  0.51100000000E-03 0.  1.
        -12    1    3    3    0    0  0.27899251185E+00  0.11058992994E+01 -0.25332243353E+00  0.11683417041E+01  0.00000000000E+00 0.  1.
</event>
<event>
 7    1  0.2900470E-011  0.5052885E+02  0.7816164E-02  0.1300439E+00
        -11   -1    0    0    0    0  0.00000000000E+00  0.00000000000E+00  0.45593999997E+02  0.45594000000E+02  0.51100000000E-03 0.  1.
         11   -1    0    0    0    0 -0.00000000000E+00 -0.00000000000E+00 -0.45593999997E+02  0.45594000000E+02  0.51100000000E-03 0. -1.
    9900012    2    1    2    0    0  0.27885034114E+02 -0.17989838962E+02  0.23493764190E+02  0.50528851101E+02  0.29999973406E+02 0.  0.
         12    1    1    2    0    0 -0.27885034114E+02  0.17989838962E+02 -0.23493764190E+02  0.40659148899E+02  0.00000000000E+00 0. -1.
         11    1    3    3    0    0  0.19219510164E+02 -0.19698679727E+02  0.74158735971E+01  0.28503030285E+02  0.51100000000E-03 0. -1.
        -11    1    3    3    0    0  0.79682153570E+00  0.50054510642E+01  0.17721784623E+01  0.53693651095E+01  0.51100000000E-03 0.  1.
        -12    1    3    3    0    0  0.78687024138E+01 -0.32966102992E+01  0.14305712130E+02  0.16656455706E+02  0.00000000000E+00 0.  1.
</event>
<event>
 7    1  0.2900470E-011  0.5052886E+02  0.7816164E-02  0.1300439E+00
        -11   -1    0    0    0    0  0.00000000000E+00  0.00000000000E+00  0.45593999997E+02  0.45594000000E+02  0.51100000000E-03 0.  1.
         11   -1    0    0    0    0 -0.00000000000E+00 -0.00000000000E+00 -0.45593999997E+02  0.45594000000E+02  0.51100000000E-03 0. -1.
    9900012    2    1    2    0    0  0.26806420134E+02 -0.25632297099E+02  0.16660335696E+02  0.50528860800E+02  0.30000002888E+02 0.  0.
         12    1    1    2    0    0 -0.26806420134E+02  0.25632297099E+02 -0.16660335696E+02  0.40659139200E+02  0.00000000000E+00 0. -1.
         11    1    3    3    0    0  0.31657403817E+01 -0.24908865551E+01 -0.58385304480E+01  0.70932972621E+01  0.51100000000E-03 0. -1.
        -11    1    3    3    0    0  0.15286901007E+02 -0.10563621144E+02  0.21333706440E+02  0.28291455686E+02  0.51100000000E-03 0.  1.
         12    1    3    3    0    0  0.83537787449E+01 -0.12577789399E+02  0.11651597037E+01  0.15144107852E+02  0.00000000000E+00 0. -1.
</event>
<event>
 7    1  0.2900470E-011  0.5052887E+02  0.7816164E-02  0.1300439E+00
        -11   -1    0    0    0    0  0.00000000000E+00  0.00000000000E+00  0.45593999997E+02  0.45594000000E+02  0.51100000000E-03 0.  1.
         11   -1    0    0    0    0 -0.00000000000E+00 -0.00000000000E+00 -0.45593999997E+02  0.45594000000E+02  0.51100000000E-03 0. -1.
    9900012    2    1    2    0    0  0.32362491337E+02  0.20505145725E+02 -0.13615184802E+02  0.50528866906E+02  0.30000021448E+02 0.  0.
         12    1    1    2    0    0 -0.32362491337E+02 -0.20505145725E+02  0.13615184802E+02  0.40659133094E+02  0.00000000000E+00 0. -1.
         11    1    3    3    0    0 -0.70453722465E+00  0.52846258714E+01 -0.25468337530E+01  0.59084689834E+01  0.51100000000E-03 0. -1.
        -11    1    3    3    0    0  0.32635069978E+02  0.17987022959E+02 -0.14679545487E+02  0.40050840732E+02  0.51100000000E-03 0.  1.
        -12    1    3    3    0    0  0.43195858410E+00 -0.27665031052E+01  0.36111944384E+01  0.45695571910E+01  0.00000000000E+00 0.  1.
</event>
<event>
 7    1  0.2900470E-011  0.5052892E+02  0.7816164E-02  0.1300439E+00
        -11   -1    0    0    0    0  0.00000000000E+00  0.00000000000E+00  0.45593999997E+02  0.45594000000E+02  0.51100000000E-03 0. -1.
         11   -1    0    0    0    0 -0.00000000000E+00 -0.00000000000E+00 -0.45593999997E+02  0.45594000000E+02  0.51100000000E-03 0.  1.
    9900012    2    1    2    0    0 -0.39405126579E+02  0.73696244738E+01 -0.67886516804E+01  0.50528915440E+02  0.30000168971E+02 0.  0.
         12    1    1    2    0    0  0.39405126579E+02 -0.73696244738E+01  0.67886516804E+01  0.40659084560E+02  0.00000000000E+00 0. -1.
         11    1    3    3    0    0 -0.26453123023E+02  0.81417194867E+01  0.45346218414E+01  0.28046712987E+02  0.51100000000E-03 0. -1.
        -11    1    3    3    0    0 -0.71461951824E+01 -0.75933374543E+01 -0.53905425161E+01  0.11738178230E+02  0.51100000000E-03 0.  1.
         12    1    3    3    0    0 -0.58058083743E+01  0.68212424415E+01 -0.59327310057E+01  0.10744024223E+02  0.00000000000E+00 0. -1.
</event>
<event>
 7    1  0.2900470E-011  0.5052898E+02  0.7816164E-02  0.1300438E+00
        -11   -1    0    0    0    0  0.00000000000E+00  0.00000000000E+00  0.45593999997E+02  0.45594000000E+02  0.51100000000E-03 0. -1.
         11   -1    0    0    0    0 -0.00000000000E+00 -0.00000000000E+00 -0.45593999997E+02  0.45594000000E+02  0.51100000000E-03 0.  1.
    9900012    2    1    2    0    0 -0.26564387317E+02  0.29445773420E+02  0.89685883815E+01  0.50528981032E+02  0.30000368344E+02 0.  0.
         12    1    1    2    0    0  0.26564387317E+02 -0.29445773420E+02 -0.89685883815E+01  0.40659018968E+02  0.00000000000E+00 0. -1.
         11    1    3    3    0    0  0.61755162180E+00  0.12254170755E+02  0.12573058314E+02  0.17567807675E+02  0.51100000000E-03 0. -1.
        -11    1    3    3    0    0 -0.24812650518E+02  0.17514251178E+02 -0.32733757270E+01  0.30547202965E+02  0.51100000000E-03 0.  1.
         12    1    3    3    0    0 -0.23692884207E+01 -0.32264851256E+00 -0.33109420501E+00  0.24139703925E+01  0.00000000000E+00 0. -1.
</event>
<event>
 7    1  0.2900470E-011  0.5052887E+02  0.7816164E-02  0.1300439E+00
        -11   -1    0    0    0    0  0.00000000000E+00  0.00000000000E+00  0.45593999997E+02  0.45594000000E+02  0.51100000000E-03 0.  1.
         11   -1    0    0    0    0 -0.00000000000E+00 -0.00000000000E+00 -0.45593999997E+02  0.45594000000E+02  0.51100000000E-03 0. -1.
    9900012    2    1    2    0    0  0.37289840351E+02 -0.67545423626E+00  0.16191866055E+02  0.50528868699E+02  0.30000026896E+02 0.  0.
         12    1    1    2    0    0 -0.37289840351E+02  0.67545423626E+00 -0.16191866055E+02  0.40659131301E+02  0.00000000000E+00 0. -1.
         11    1    3    3    0    0  0.12531862825E+02 -0.76691737700E+01 -0.46972667564E+00  0.14699811413E+02  0.51100000000E-03 0. -1.
        -11    1    3    3    0    0  0.75654837694E+01  0.11168789041E+02  0.10499839246E+02  0.17094590307E+02  0.51100000000E-03 0.  1.
        -12    1    3    3    0    0  0.17192493757E+02 -0.41750695072E+01  0.61617534851E+01  0.18734466979E+02  0.00000000000E+00 0.  1.
</event>
<event>
 7    1  0.2900470E-011  0.5052886E+02  0.7816164E-02  0.1300439E+00
        -11   -1    0    0    0    0  0.00000000000E+00  0.00000000000E+00  0.45593999997E+02  0.45594000000E+02  0.51100000000E-03 0.  1.
         11   -1    0    0    0    0 -0.00000000000E+00 -0.00000000000E+00 -0.45593999997E+02  0.45594000000E+02  0.51100000000E-03 0. -1.
    9900012    2    1    2    0    0  0.21345299056E+02 -0.25225946196E+01  0.34513483217E+02  0.50528858357E+02  0.29999995463E+02 0.  0.
         12    1    1    2    0    0 -0.21345299056E+02  0.25225946196E+01 -0.34513483217E+02  0.40659141643E+02  0.00000000000E+00 0. -1.
         11    1    3    3    0    0  0.11803718133E+02  0.78966347982E+01  0.29419215244E+01  0.14503086065E+02  0.51100000000E-03 0. -1.
        -11    1    3    3    0    0  0.19577634314E+01 -0.78928574796E+01  0.22554356797E+02  0.23975592749E+02  0.51100000000E-03 0.  1.
        -12    1    3    3    0    0  0.75838174914E+01 -0.25263719382E+01  0.90172048949E+01  0.12050179543E+02  0.00000000000E+00 0.  1.
</event>
<event>
 7    1  0.2900470E-011  0.5052886E+02  0.7816164E-02  0.1300439E+00
        -11   -1    0    0    0    0  0.00000000000E+00  0.00000000000E+00  0.45593999997E+02  0.45594000000E+02  0.51100000000E-03 0. -1.
         11   -1    0    0    0    0 -0.00000000000E+00 -0.00000000000E+00 -0.45593999997E+02  0.45594000000E+02  0.51100000000E-03 0.  1.
    9900012    2    1    2    0    0 -0.10316907015E+02 -0.15937454214E+02 -0.35954485582E+02  0.50528855264E+02  0.29999986062E+02 0.  0.
         12    1    1    2    0    0  0.10316907015E+02  0.15937454214E+02  0.35954485582E+02  0.40659144736E+02  0.00000000000E+00 0. -1.
         11    1    3    3    0    0 -0.65724554058E-01 -0.64051926102E+00 -0.24358455572E+02  0.24366964168E+02  0.51100000000E-03 0. -1.
        -11    1    3    3    0    0 -0.11615731685E+02 -0.79189997505E+01 -0.12228052123E+02  0.18632258012E+02  0.51100000000E-03 0.  1.
         12    1    3    3    0    0  0.13645492246E+01 -0.73779352025E+01  0.63202211320E+00  0.75296330847E+01  0.00000000000E+00 0. -1.
</event>
<event>
 7    1  0.2900470E-011  0.5052886E+02  0.7816164E-02  0.1300439E+00
        -11   -1    0    0    0    0  0.00000000000E+00  0.00000000000E+00  0.45593999997E+02  0.45594000000E+02  0.51100000000E-03 0.  1.
         11   -1    0    0    0    0 -0.00000000000E+00 -0.00000000000E+00 -0.45593999997E+02  0.45594000000E+02  0.51100000000E-03 0. -1.
    9900012    2    1    2    0    0 -0.30723278464E+01 -0.28837076726E+02  0.28498230510E+02  0.50528864069E+02  0.30000012824E+02 0.  0.
         12    1    1    2    0    0  0.30723278464E+01  0.28837076726E+02 -0.28498230510E+02  0.40659135931E+02  0.00000000000E+00 0. -1.
         11    1    3    3    0    0 -0.37818447904E+01 -0.13119308475E+02 -0.45146288183E+00  0.13660981805E+02  0.51100000000E-03 0. -1.
        -11    1    3    3    0    0  0.52813680005E+01 -0.60589843654E+00  0.14581791627E+02  0.15520586592E+02  0.51100000000E-03 0.  1.
         12    1    3    3    0    0 -0.45718510565E+01 -0.15111869814E+02  0.14367901765E+02  0.21347295671E+02  0.00000000000E+00 0. -1.
</event>
<event>
 7    1  0.2900470E-011  0.5052884E+02  0.7816164E-02  0.1300439E+00
        -11   -1    0    0    0    0  0.00000000000E+00  0.00000000000E+00  0.45593999997E+02  0.45594000000E+02  0.51100000000E-03 0.  1.
         11   -1    0    0    0    0 -0.00000000000E+00 -0.00000000000E+00 -0.45593999997E+02  0.45594000000E+02  0.51100000000E-03 0. -1.
    9900012    2    1    2    0    0 -0.20187969756E+02 -0.28355638359E+02  0.21013580641E+02  0.50528844562E+02  0.29999953529E+02 0.  0.
         12    1    1    2    0    0  0.20187969756E+02  0.28355638359E+02 -0.21013580641E+02  0.40659155438E+02  0.00000000000E+00 0. -1.
         11    1    3    3    0    0 -0.11955494487E+02 -0.19542415914E+02 -0.18395759280E+01  0.22983122243E+02  0.51100000000E-03 0. -1.
        -11    1    3    3    0    0 -0.16639121288E+01 -0.23732103339E+01  0.15501235793E+02  0.15769877686E+02  0.51100000000E-03 0.  1.
         12    1    3    3    0    0 -0.65685631401E+01 -0.64400121116E+01  0.73519207758E+01  0.11775844633E+02  0.00000000000E+00 0. -1.
</event>
<event>
 7    1  0.2900470E-011  0.5052886E+02  0.7816164E-02  0.1300439E+00
        -11   -1    0    0    0    0  0.00000000000E+00  0.00000000000E+00  0.45593999997E+02  0.45594000000E+02  0.51100000000E-03 0. -1.
         11   -1    0    0    0    0 -0.00000000000E+00 -0.00000000000E+00 -0.45593999997E+02  0.45594000000E+02  0.51100000000E-03 0.  1.
    9900012    2    1    2    0    0 -0.30981003182E+02  0.16917571124E+02 -0.20177675033E+02  0.50528863995E+02  0.30000012600E+02 0.  0.
         12    1    1    2    0    0  0.30981003182E+02 -0.16917571124E+02  0.20177675033E+02  0.40659136005E+02  0.00000000000E+00 0. -1.
         11    1    3    3    0    0 -0.58448878972E+01  0.54087316119E+01  0.36355811904E+01  0.87541157768E+01  0.51100000000E-03 0. -1.
        -11    1    3    3    0    0 -0.13578618655E+02  0.76120748400E+00 -0.22032803873E+02  0.25892137189E+02  0.51100000000E-03 0.  1.
        -12    1    3    3    0    0 -0.11557496630E+02  0.10747632028E+02 -0.17804523499E+01  0.15882611030E+02  0.00000000000E+00 0.  1.
</event>
<event>
 7    1  0.2900470E-011  0.5052887E+02  0.7816164E-02  0.1300439E+00
        -11   -1    0    0    0    0  0.00000000000E+00  0.00000000000E+00  0.45593999997E+02  0.45594000000E+02  0.51100000000E-03 0.  1.
         11   -1    0    0    0    0 -0.00000000000E+00 -0.00000000000E+00 -0.45593999997E+02  0.45594000000E+02  0.51100000000E-03 0. -1.
    9900012    2    1    2    0    0 -0.57860230164E+01  0.22031452912E+02  0.33679400225E+02  0.50528868439E+02  0.30000026108E+02 0.  0.
         12    1    1    2    0    0  0.57860230164E+01 -0.22031452912E+02 -0.33679400225E+02  0.40659131561E+02  0.00000000000E+00 0. -1.
         11    1    3    3    0    0 -0.61764695943E+01 -0.44624970444E+01  0.10184987683E+02  0.12719930460E+02  0.51100000000E-03 0. -1.
        -11    1    3    3    0    0  0.67990308623E+01  0.13317331287E+02  0.12527994757E+02  0.19507147054E+02  0.51100000000E-03 0.  1.
        -12    1    3    3    0    0 -0.64085842843E+01  0.13176618669E+02  0.10966417784E+02  0.18301790926E+02  0.00000000000E+00 0.  1.
</event>
<event>
 7    1  0.2900470E-011  0.5052884E+02  0.7816164E-02  0.1300439E+00
        -11   -1    0    0    0    0  0.00000000000E+00  0.00000000000E+00  0.45593999997E+02  0.45594000000E+02  0.51100000000E-03 0. -1.
         11   -1    0    0    0    0 -0.00000000000E+00 -0.00000000000E+00 -0.45593999997E+02  0.45594000000E+02  0.51100000000E-03 0.  1.
    9900012    2    1    2    0    0  0.40231731892E+02 -0.24304571753E+01 -0.53542729432E+01  0.50528836065E+02  0.29999927704E+02 0.  0.
         12    1    1    2    0    0 -0.40231731892E+02  0.24304571753E+01  0.53542729432E+01  0.40659163935E+02  0.00000000000E+00 0. -1.
         11    1    3    3    0    0  0.20547714351E+02 -0.17165579040E+01  0.65146134575E+01  0.21623952572E+02  0.51100000000E-03 0. -1.
        -11    1    3    3    0    0  0.18414134068E+02  0.89442045678E+00 -0.15924314731E+02  0.24361119049E+02  0.51100000000E-03 0.  1.
        -12    1    3    3    0    0  0.12698834738E+01 -0.16083197281E+01  0.40554283301E+01  0.45437644443E+01  0.00000000000E+00 0.  1.
</event>
<event>
 7    1  0.2900470E-011  0.5052887E+02  0.7816164E-02  0.1300439E+00
        -11   -1    0    0    0    0  0.00000000000E+00  0.00000000000E+00  0.45593999997E+02  0.45594000000E+02  0.51100000000E-03 0.  1.
         11   -1    0    0    0    0 -0.00000000000E+00 -0.00000000000E+00 -0.45593999997E+02  0.45594000000E+02  0.51100000000E-03 0. -1.
    9900012    2    1    2    0    0  0.14433480241E+02  0.24791148091E+02  0.28813865168E+02  0.50528865707E+02  0.30000017803E+02 0.  0.
         12    1    1    2    0    0 -0.14433480241E+02 -0.24791148091E+02 -0.28813865168E+02  0.40659134293E+02  0.00000000000E+00 0. -1.
         11    1    3    3    0    0  0.53844607998E+01  0.27927259774E+02  0.22665328940E+02  0.36368137054E+02  0.51100000000E-03 0.  1.
        -11    1    3    3    0    0  0.61735508110E+01 -0.46466556873E+01  0.62387718354E+00  0.77519908213E+01  0.51100000000E-03 0. -1.
        -12    1    3    3    0    0  0.28754686300E+01  0.15105440041E+01  0.55246590450E+01  0.64087378316E+01  0.00000000000E+00 0.  1.
</event>
<event>
 7    1  0.2900470E-011  0.5052886E+02  0.7816164E-02  0.1300439E+00
        -11   -1    0    0    0    0  0.00000000000E+00  0.00000000000E+00  0.45593999997E+02  0.45594000000E+02  0.51100000000E-03 0. -1.
         11   -1    0    0    0    0 -0.00000000000E+00 -0.00000000000E+00 -0.45593999997E+02  0.45594000000E+02  0.51100000000E-03 0.  1.
    9900012    2    1    2    0    0 -0.16560758437E+02 -0.37073897412E+02 -0.21054672779E+01  0.50528861030E+02  0.30000003586E+02 0.  0.
         12    1    1    2    0    0  0.16560758437E+02  0.37073897412E+02  0.21054672779E+01  0.40659138970E+02  0.00000000000E+00 0. -1.
         11    1    3    3    0    0 -0.33566680857E+01  0.38161905286E+01  0.34821142344E+01  0.61608157407E+01  0.51100000000E-03 0. -1.
        -11    1    3    3    0    0 -0.82669401854E+01 -0.35893856720E+02 -0.60571670169E+01  0.37328280469E+02  0.51100000000E-03 0.  1.
         12    1    3    3    0    0 -0.49371501661E+01 -0.49962312205E+01  0.46958550472E+00  0.70397648197E+01  0.00000000000E+00 0. -1.
</event>
<event>
 7    1  0.2900470E-011  0.5052887E+02  0.7816164E-02  0.1300439E+00
        -11   -1    0    0    0    0  0.00000000000E+00  0.00000000000E+00  0.45593999997E+02  0.45594000000E+02  0.51100000000E-03 0.  1.
         11   -1    0    0    0    0 -0.00000000000E+00 -0.00000000000E+00 -0.45593999997E+02  0.45594000000E+02  0.51100000000E-03 0. -1.
    9900012    2    1    2    0    0 -0.39389350126E+02  0.63248477698E+01  0.78511368885E+01  0.50528868761E+02  0.30000027086E+02 0.  0.
         12    1    1    2    0    0  0.39389350126E+02 -0.63248477698E+01 -0.78511368885E+01  0.40659131239E+02  0.00000000000E+00 0. -1.
         11    1    3    3    0    0 -0.18848992624E+02 -0.10878471486E+02  0.61963213558E+01  0.22627860337E+02  0.51100000000E-03 0. -1.
        -11    1    3    3    0    0 -0.19227090579E+02  0.15678637384E+02 -0.68010981516E+00  0.24818606568E+02  0.51100000000E-03 0.  1.
         12    1    3    3    0    0 -0.13132669225E+01  0.15246818720E+01  0.23349253479E+01  0.30824018558E+01  0.00000000000E+00 0. -1.
</event>
<event>
 7    1  0.2900470E-011  0.5052885E+02  0.7816164E-02  0.1300439E+00
        -11   -1    0    0    0    0  0.00000000000E+00  0.00000000000E+00  0.45593999997E+02  0.45594000000E+02  0.51100000000E-03 0.  1.
         11   -1    0    0    0    0 -0.00000000000E+00 -0.00000000000E+00 -0.45593999997E+02  0.45594000000E+02  0.51100000000E-03 0. -1.
    9900012    2    1    2    0    0  0.42298409698E+01 -0.27375408635E+02  0.29763437349E+02  0.50528846598E+02  0.29999959718E+02 0.  0.
         12    1    1    2    0    0 -0.42298409698E+01  0.27375408635E+02 -0.29763437349E+02  0.40659153402E+02  0.00000000000E+00 0. -1.
         11    1    3    3    0    0 -0.28209721141E+00  0.39966447119E+01  0.12476957377E+02  0.13104473031E+02  0.51100000000E-03 0. -1.
        -11    1    3    3    0    0  0.71991804922E+01 -0.15443823544E+02  0.89214255858E+01  0.19233609130E+02  0.51100000000E-03 0.  1.
        -12    1    3    3    0    0 -0.26872423110E+01 -0.15928229803E+02  0.83650543867E+01  0.18190764437E+02  0.00000000000E+00 0.  1.
</event>
<event>
 7    1  0.2900470E-011  0.5052884E+02  0.7816164E-02  0.1300439E+00
        -11   -1    0    0    0    0  0.00000000000E+00  0.00000000000E+00  0.45593999997E+02  0.45594000000E+02  0.51100000000E-03 0.  1.
         11   -1    0    0    0    0 -0.00000000000E+00 -0.00000000000E+00 -0.45593999997E+02  0.45594000000E+02  0.51100000000E-03 0. -1.
    9900012    2    1    2    0    0  0.18878948078E+02  0.30854707952E+02  0.18567159168E+02  0.50528842571E+02  0.29999947478E+02 0.  0.
         12    1    1    2    0    0 -0.18878948078E+02 -0.30854707952E+02 -0.18567159168E+02  0.40659157429E+02  0.00000000000E+00 0. -1.
         11    1    3    3    0    0  0.27513625954E+01  0.28255178243E+01 -0.66947672028E+01  0.77700357314E+01  0.51100000000E-03 0. -1.
        -11    1    3    3    0    0  0.12878877857E+02  0.26724459994E+02  0.18006689674E+02  0.34703070903E+02  0.51100000000E-03 0.  1.
        -12    1    3    3    0    0  0.32487076256E+01  0.13047301336E+01  0.72552366963E+01  0.80557359364E+01  0.00000000000E+00 0.  1.
</event>
<event>
 7    1  0.2900470E-011  0.5052884E+02  0.7816164E-02  0.1300439E+00
        -11   -1    0    0    0    0  0.00000000000E+00  0.00000000000E+00  0.45593999997E+02  0.45594000000E+02  0.51100000000E-03 0.  1.
         11   -1    0    0    0    0 -0.00000000000E+00 -0.00000000000E+00 -0.45593999997E+02  0.45594000000E+02  0.51100000000E-03 0. -1.
    9900012    2    1    2    0    0 -0.20002314045E+02 -0.22355294712E+02  0.27446597355E+02  0.50528837747E+02  0.29999932814E+02 0.  0.
         12    1    1    2    0    0  0.20002314045E+02  0.22355294712E+02 -0.27446597355E+02  0.40659162253E+02  0.00000000000E+00 0. -1.
         11    1    3    3    0    0 -0.39344149309E+01  0.15313391763E+01 -0.46269930871E+01  0.62636798937E+01  0.51100000000E-03 0. -1.
        -11    1    3    3    0    0 -0.15769186012E+02 -0.21194286630E+02  0.23791709744E+02  0.35551518477E+02  0.51100000000E-03 0.  1.
         12    1    3    3    0    0 -0.29871310211E+00 -0.26923472581E+01  0.82818806980E+01  0.87136393758E+01  0.00000000000E+00 0. -1.
</event>
<event>
 7    1  0.2900470E-011  0.5052885E+02  0.7816164E-02  0.1300439E+00
        -11   -1    0    0    0    0  0.00000000000E+00  0.00000000000E+00  0.45593999997E+02  0.45594000000E+02  0.51100000000E-03 0.  1.
         11   -1    0    0    0    0 -0.00000000000E+00 -0.00000000000E+00 -0.45593999997E+02  0.45594000000E+02  0.51100000000E-03 0. -1.
    9900012    2    1    2    0    0  0.40716837099E+01  0.23513456766E+02  0.32919681962E+02  0.50528847060E+02  0.29999961122E+02 0.  0.
         12    1    1    2    0    0 -0.40716837099E+01 -0.23513456766E+02 -0.32919681962E+02  0.40659152940E+02  0.00000000000E+00 0. -1.
         11    1    3    3    0    0 -0.10215366248E+02  0.13078856819E+02  0.55301150585E+01  0.17492637768E+02  0.51100000000E-03 0. -1.
        -11    1    3    3    0    0  0.10805996756E+02  0.47476744226E+01  0.17339855004E+02  0.20975713340E+02  0.51100000000E-03 0.  1.
         12    1    3    3    0    0  0.34810532023E+01  0.56869255247E+01  0.10049711900E+02  0.12060495951E+02  0.00000000000E+00 0. -1.
</event>
<event>
 7    1  0.2900470E-011  0.5052887E+02  0.7816164E-02  0.1300439E+00
        -11   -1    0    0    0    0  0.00000000000E+00  0.00000000000E+00  0.45593999997E+02  0.45594000000E+02  0.51100000000E-03 0.  1.
         11   -1    0    0    0    0 -0.00000000000E+00 -0.00000000000E+00 -0.45593999997E+02  0.45594000000E+02  0.51100000000E-03 0. -1.
    9900012    2    1    2    0    0 -0.38862421016E+02 -0.62573987625E+01  0.10184390501E+02  0.50528872902E+02  0.30000039671E+02 0.  0.
         12    1    1    2    0    0  0.38862421016E+02  0.62573987625E+01 -0.10184390501E+02  0.40659127098E+02  0.00000000000E+00 0. -1.
         11    1    3    3    0    0 -0.14473841419E+02  0.84566548004E+01 -0.17259056371E+01  0.16851879610E+02  0.51100000000E-03 0. -1.
        -11    1    3    3    0    0 -0.21889866147E+02 -0.16696588602E+02  0.80788979271E+01  0.28691652146E+02  0.51100000000E-03 0.  1.
        -12    1    3    3    0    0 -0.24987134501E+01  0.19825350394E+01  0.38313982114E+01  0.49853411461E+01  0.00000000000E+00 0.  1.
</event>
<event>
 7    1  0.2900470E-011  0.5052887E+02  0.7816164E-02  0.1300439E+00
        -11   -1    0    0    0    0  0.00000000000E+00  0.00000000000E+00  0.45593999997E+02  0.45594000000E+02  0.51100000000E-03 0.  1.
         11   -1    0    0    0    0 -0.00000000000E+00 -0.00000000000E+00 -0.45593999997E+02  0.45594000000E+02  0.51100000000E-03 0. -1.
    9900012    2    1    2    0    0 -0.35019152922E+02  0.19122373366E+02  0.78204026524E+01  0.50528869019E+02  0.30000027869E+02 0.  0.
         12    1    1    2    0    0  0.35019152922E+02 -0.19122373366E+02 -0.78204026524E+01  0.40659130981E+02  0.00000000000E+00 0. -1.
         11    1    3    3    0    0 -0.31728384549E+02  0.21765174981E+02  0.46572692455E+01  0.38756978534E+02  0.51100000000E-03 0. -1.
        -11    1    3    3    0    0 -0.54260209345E+01 -0.52523031127E+01  0.36107594777E+01  0.83705421232E+01  0.51100000000E-03 0.  1.
         12    1    3    3    0    0  0.21352525618E+01  0.26095014987E+01 -0.44762607074E+00  0.34013483611E+01  0.00000000000E+00 0. -1.
</event>
<event>
 7    1  0.2900470E-011  0.5052883E+02  0.7816164E-02  0.1300439E+00
        -11   -1    0    0    0    0  0.00000000000E+00  0.00000000000E+00  0.45593999997E+02  0.45594000000E+02  0.51100000000E-03 0.  1.
         11   -1    0    0    0    0 -0.00000000000E+00 -0.00000000000E+00 -0.45593999997E+02  0.45594000000E+02  0.51100000000E-03 0. -1.
    9900012    2    1    2    0    0  0.23122403188E+02 -0.10733503228E+02  0.31675138829E+02  0.50528830793E+02  0.29999911679E+02 0.  0.
         12    1    1    2    0    0 -0.23122403188E+02  0.10733503228E+02 -0.31675138829E+02  0.40659169207E+02  0.00000000000E+00 0. -1.
         11    1    3    3    0    0  0.27900809734E+01 -0.49808278659E+01 -0.37820503072E+01  0.68481459428E+01  0.51100000000E-03 0. -1.
        -11    1    3    3    0    0  0.18786121914E+02 -0.88350446672E+01  0.34204918641E+02  0.40011908856E+02  0.51100000000E-03 0.  1.
         12    1    3    3    0    0  0.15462003006E+01  0.30823693048E+01  0.12522704955E+01  0.36687759941E+01  0.00000000000E+00 0. -1.
</event>
<event>
 7    1  0.2900470E-011  0.5052886E+02  0.7816164E-02  0.1300439E+00
        -11   -1    0    0    0    0  0.00000000000E+00  0.00000000000E+00  0.45593999997E+02  0.45594000000E+02  0.51100000000E-03 0.  1.
         11   -1    0    0    0    0 -0.00000000000E+00 -0.00000000000E+00 -0.45593999997E+02  0.45594000000E+02  0.51100000000E-03 0. -1.
    9900012    2    1    2    0    0  0.64541724128E+01 -0.15038526170E+02  0.37220321795E+02  0.50528856312E+02  0.29999989246E+02 0.  0.
         12    1    1    2    0    0 -0.64541724128E+01  0.15038526170E+02 -0.37220321795E+02  0.40659143688E+02  0.00000000000E+00 0. -1.
         11    1    3    3    0    0  0.52226535459E+01  0.24954021576E+01  0.25720697860E+01  0.63339312622E+01  0.51100000000E-03 0. -1.
        -11    1    3    3    0    0 -0.70329451346E+01 -0.17348880727E+02  0.20138350539E+02  0.27495438575E+02  0.51100000000E-03 0.  1.
        -12    1    3    3    0    0  0.82644640014E+01 -0.18504760045E+00  0.14509901470E+02  0.16699486474E+02  0.00000000000E+00 0.  1.
</event>
<event>
 7    1  0.2900470E-011  0.5052887E+02  0.7816164E-02  0.1300439E+00
        -11   -1    0    0    0    0  0.00000000000E+00  0.00000000000E+00  0.45593999997E+02  0.45594000000E+02  0.51100000000E-03 0. -1.
         11   -1    0    0    0    0 -0.00000000000E+00 -0.00000000000E+00 -0.45593999997E+02  0.45594000000E+02  0.51100000000E-03 0.  1.
    9900012    2    1    2    0    0  0.24037680645E+02 -0.27971161779E+02 -0.17116339509E+02  0.50528867444E+02  0.30000023082E+02 0.  0.
         12    1    1    2    0    0 -0.24037680645E+02  0.27971161779E+02  0.17116339509E+02  0.40659132556E+02  0.00000000000E+00 0. -1.
         11    1    3    3    0    0  0.11326487947E+02 -0.23618609402E+02 -0.24818517413E+01  0.26311359289E+02  0.51100000000E-03 0. -1.
        -11    1    3    3    0    0  0.13949543750E+01  0.45539043315E+01 -0.24622271504E+01  0.53615767429E+01  0.51100000000E-03 0.  1.
        -12    1    3    3    0    0  0.11316238323E+02 -0.89064567087E+01 -0.12172260617E+02  0.18855931412E+02  0.00000000000E+00 0.  1.
</event>
<event>
 7    1  0.2900470E-011  0.5052885E+02  0.7816164E-02  0.1300439E+00
        -11   -1    0    0    0    0  0.00000000000E+00  0.00000000000E+00  0.45593999997E+02  0.45594000000E+02  0.51100000000E-03 0. -1.
         11   -1    0    0    0    0 -0.00000000000E+00 -0.00000000000E+00 -0.45593999997E+02  0.45594000000E+02  0.51100000000E-03 0.  1.
    9900012    2    1    2    0    0 -0.11073632705E+01  0.10650224752E+02 -0.39223882235E+02  0.50528850006E+02  0.29999970079E+02 0.  0.
         12    1    1    2    0    0  0.11073632705E+01 -0.10650224752E+02  0.39223882235E+02  0.40659149994E+02  0.00000000000E+00 0. -1.
         11    1    3    3    0    0 -0.17166066124E+01 -0.40925674672E+01 -0.15504333766E+02  0.16127002589E+02  0.51100000000E-03 0. -1.
        -11    1    3    3    0    0  0.64641125186E+01  0.73583005851E+01 -0.10487210465E+01  0.98503377733E+01  0.51100000000E-03 0.  1.
         12    1    3    3    0    0 -0.58548691767E+01  0.73844916336E+01 -0.22670827422E+02  0.24551509643E+02  0.00000000000E+00 0. -1.
</event>
<event>
 7    1  0.2900470E-011  0.5052888E+02  0.7816164E-02  0.1300439E+00
        -11   -1    0    0    0    0  0.00000000000E+00  0.00000000000E+00  0.45593999997E+02  0.45594000000E+02  0.51100000000E-03 0.  1.
         11   -1    0    0    0    0 -0.00000000000E+00 -0.00000000000E+00 -0.45593999997E+02  0.45594000000E+02  0.51100000000E-03 0. -1.
    9900012    2    1    2    0    0  0.25734943460E+02  0.29529194628E+02  0.10904285442E+02  0.50528879360E+02  0.30000059301E+02 0.  0.
         12    1    1    2    0    0 -0.25734943460E+02 -0.29529194628E+02 -0.10904285442E+02  0.40659120640E+02  0.00000000000E+00 0. -1.
         11    1    3    3    0    0  0.17855367418E+02  0.32918220999E+02  0.10387508977E+02  0.38862884123E+02  0.51100000000E-03 0.  1.
        -11    1    3    3    0    0  0.78761766391E+01 -0.31323488759E+01  0.31333990102E+01  0.90368112489E+01  0.51100000000E-03 0. -1.
         12    1    3    3    0    0  0.33994034435E-02 -0.25667749519E+00 -0.26166225459E+01  0.26291839875E+01  0.00000000000E+00 0. -1.
</event>
<event>
 7    1  0.2900470E-011  0.5052885E+02  0.7816164E-02  0.1300439E+00
        -11   -1    0    0    0    0  0.00000000000E+00  0.00000000000E+00  0.45593999997E+02  0.45594000000E+02  0.51100000000E-03 0.  1.
         11   -1    0    0    0    0 -0.00000000000E+00 -0.00000000000E+00 -0.45593999997E+02  0.45594000000E+02  0.51100000000E-03 0. -1.
    9900012    2    1    2    0    0 -0.33377756552E+02 -0.22495806698E+02  0.57471938481E+01  0.50528853568E+02  0.29999980906E+02 0.  0.
         12    1    1    2    0    0  0.33377756552E+02  0.22495806698E+02 -0.57471938481E+01  0.40659146432E+02  0.00000000000E+00 0. -1.
         11    1    3    3    0    0 -0.33890200650E+01  0.45267255562E+01  0.51302659072E+01  0.76352033242E+01  0.51100000000E-03 0. -1.
        -11    1    3    3    0    0 -0.19256360488E+02 -0.25371189674E+02  0.21668852290E+01  0.31924913102E+02  0.51100000000E-03 0.  1.
         12    1    3    3    0    0 -0.10732375999E+02 -0.16513425807E+01 -0.15499572881E+01  0.10968737142E+02  0.00000000000E+00 0. -1.
</event>
<event>
 7    1  0.2900470E-011  0.5052885E+02  0.7816164E-02  0.1300439E+00
        -11   -1    0    0    0    0  0.00000000000E+00  0.00000000000E+00  0.45593999997E+02  0.45594000000E+02  0.51100000000E-03 0.  1.
         11   -1    0    0    0    0 -0.00000000000E+00 -0.00000000000E+00 -0.45593999997E+02  0.45594000000E+02  0.51100000000E-03 0. -1.
    9900012    2    1    2    0    0  0.27364478317E+01 -0.24439083607E+00  0.40566221037E+02  0.50528853884E+02  0.29999981867E+02 0.  0.
         12    1    1    2    0    0 -0.27364478317E+01  0.24439083607E+00 -0.40566221037E+02  0.40659146116E+02  0.00000000000E+00 0. -1.
         11    1    3    3    0    0  0.35105321488E+01 -0.13472572330E+01  0.25623586220E+02  0.25898013612E+02  0.51100000000E-03 0. -1.
        -11    1    3    3    0    0 -0.81433382270E+01 -0.43900844201E+01  0.33556589031E+01  0.98410998182E+01  0.51100000000E-03 0.  1.
         12    1    3    3    0    0  0.73692539100E+01  0.54929508171E+01  0.11586975914E+02  0.14789740454E+02  0.00000000000E+00 0. -1.
</event>
<event>
 7    1  0.2900470E-011  0.5052885E+02  0.7816164E-02  0.1300439E+00
        -11   -1    0    0    0    0  0.00000000000E+00  0.00000000000E+00  0.45593999997E+02  0.45594000000E+02  0.51100000000E-03 0. -1.
         11   -1    0    0    0    0 -0.00000000000E+00 -0.00000000000E+00 -0.45593999997E+02  0.45594000000E+02  0.51100000000E-03 0.  1.
    9900012    2    1    2    0    0  0.34430201808E+02  0.19103135760E+02  0.10138911101E+02  0.50528854525E+02  0.29999983815E+02 0.  0.
         12    1    1    2    0    0 -0.34430201808E+02 -0.19103135760E+02 -0.10138911101E+02  0.40659145475E+02  0.00000000000E+00 0. -1.
         11    1    3    3    0    0  0.20922473637E+02  0.21038770763E+02  0.15110159245E+02  0.33297097335E+02  0.51100000000E-03 0. -1.
        -11    1    3    3    0    0  0.56139845908E+01 -0.53192701653E+01 -0.36149822134E+01  0.85369523099E+01  0.51100000000E-03 0.  1.
        -12    1    3    3    0    0  0.78937435809E+01  0.33836351620E+01 -0.13562659305E+01  0.86948048802E+01  0.00000000000E+00 0.  1.
</event>
<event>
 7    1  0.2900470E-011  0.5052886E+02  0.7816164E-02  0.1300439E+00
        -11   -1    0    0    0    0  0.00000000000E+00  0.00000000000E+00  0.45593999997E+02  0.45594000000E+02  0.51100000000E-03 0. -1.
         11   -1    0    0    0    0 -0.00000000000E+00 -0.00000000000E+00 -0.45593999997E+02  0.45594000000E+02  0.51100000000E-03 0.  1.
    9900012    2    1    2    0    0  0.37807792297E+02 -0.42676308230E+01 -0.14336112637E+02  0.50528856419E+02  0.29999989572E+02 0.  0.
         12    1    1    2    0    0 -0.37807792297E+02  0.42676308230E+01  0.14336112637E+02  0.40659143581E+02  0.00000000000E+00 0. -1.
         11    1    3    3    0    0  0.17253853959E+02 -0.64584728295E+01  0.20747295029E+01  0.18539467374E+02  0.51100000000E-03 0. -1.
        -11    1    3    3    0    0  0.17277997913E+02  0.69414215109E+01 -0.18109121512E+02  0.25974079900E+02  0.51100000000E-03 0.  1.
        -12    1    3    3    0    0  0.32759404246E+01 -0.47505795044E+01  0.16982793717E+01  0.60153091456E+01  0.00000000000E+00 0.  1.
</event>
<event>
 7    1  0.2900470E-011  0.5052883E+02  0.7816164E-02  0.1300439E+00
        -11   -1    0    0    0    0  0.00000000000E+00  0.00000000000E+00  0.45593999997E+02  0.45594000000E+02  0.51100000000E-03 0. -1.
         11   -1    0    0    0    0 -0.00000000000E+00 -0.00000000000E+00 -0.45593999997E+02  0.45594000000E+02  0.51100000000E-03 0.  1.
    9900012    2    1    2    0    0 -0.28031854648E+02  0.16235352795E+02 -0.24572274792E+02  0.50528828294E+02  0.29999904081E+02 0.  0.
         12    1    1    2    0    0  0.28031854648E+02 -0.16235352795E+02  0.24572274792E+02  0.40659171706E+02  0.00000000000E+00 0. -1.
         11    1    3    3    0    0 -0.85113534447E+01  0.50595590018E+01 -0.12279028404E+01  0.99774756526E+01  0.51100000000E-03 0. -1.
        -11    1    3    3    0    0 -0.89625882652E+01 -0.45234404985E+01 -0.18457588008E+02  0.21011236462E+02  0.51100000000E-03 0.  1.
        -12    1    3    3    0    0 -0.10557912939E+02  0.15699234291E+02 -0.48867839440E+01  0.19540116179E+02  0.00000000000E+00 0.  1.
</event>
<event>
 7    1  0.2900470E-011  0.5052886E+02  0.7816164E-02  0.1300439E+00
        -11   -1    0    0    0    0  0.00000000000E+00  0.00000000000E+00  0.45593999997E+02  0.45594000000E+02  0.51100000000E-03 0. -1.
         11   -1    0    0    0    0 -0.00000000000E+00 -0.00000000000E+00 -0.45593999997E+02  0.45594000000E+02  0.51100000000E-03 0.  1.
    9900012    2    1    2    0    0 -0.27469375922E+02  0.24229543622E+02 -0.17650169846E+02  0.50528857200E+02  0.29999991944E+02 0.  0.
         12    1    1    2    0    0  0.27469375922E+02 -0.24229543622E+02  0.17650169846E+02  0.40659142800E+02  0.00000000000E+00 0. -1.
         11    1    3    3    0    0 -0.17425378789E+02  0.23853732328E+02 -0.86797082076E+00  0.29553303462E+02  0.51100000000E-03 0.  1.
        -11    1    3    3    0    0 -0.51061438908E+01  0.14613804156E+01 -0.14474217542E+02  0.15417889346E+02  0.51100000000E-03 0. -1.
        -12    1    3    3    0    0 -0.49378532422E+01 -0.10855691225E+01 -0.23079814830E+01  0.55576643914E+01  0.00000000000E+00 0.  1.
</event>
<event>
 7    1  0.2900470E-011  0.5052886E+02  0.7816164E-02  0.1300439E+00
        -11   -1    0    0    0    0  0.00000000000E+00  0.00000000000E+00  0.45593999997E+02  0.45594000000E+02  0.51100000000E-03 0.  1.
         11   -1    0    0    0    0 -0.00000000000E+00 -0.00000000000E+00 -0.45593999997E+02  0.45594000000E+02  0.51100000000E-03 0. -1.
    9900012    2    1    2    0    0 -0.19120035584E+02 -0.29894123269E+02  0.19847706129E+02  0.50528858281E+02  0.29999995231E+02 0.  0.
         12    1    1    2    0    0  0.19120035584E+02  0.29894123269E+02 -0.19847706129E+02  0.40659141719E+02  0.00000000000E+00 0. -1.
         11    1    3    3    0    0 -0.74117861972E+01 -0.10466915582E+02 -0.14021130562E+01  0.12901814513E+02  0.51100000000E-03 0. -1.
        -11    1    3    3    0    0 -0.42634339775E+01  0.42644844206E+01  0.58757490570E+01  0.84194491444E+01  0.51100000000E-03 0.  1.
        -12    1    3    3    0    0 -0.74448154090E+01 -0.23691692108E+02  0.15374070129E+02  0.29207594624E+02  0.00000000000E+00 0.  1.
</event>
<event>
 7    1  0.2900470E-011  0.5052886E+02  0.7816164E-02  0.1300439E+00
        -11   -1    0    0    0    0  0.00000000000E+00  0.00000000000E+00  0.45593999997E+02  0.45594000000E+02  0.51100000000E-03 0. -1.
         11   -1    0    0    0    0 -0.00000000000E+00 -0.00000000000E+00 -0.45593999997E+02  0.45594000000E+02  0.51100000000E-03 0.  1.
    9900012    2    1    2    0    0  0.21139787908E+02 -0.11610221127E+02 -0.32733433319E+02  0.50528861737E+02  0.30000005735E+02 0.  0.
         12    1    1    2    0    0 -0.21139787908E+02  0.11610221127E+02  0.32733433319E+02  0.40659138263E+02  0.00000000000E+00 0. -1.
         11    1    3    3    0    0  0.13679942266E+02  0.29578311172E+01 -0.35808511281E+01  0.14446870955E+02  0.51100000000E-03 0. -1.
        -11    1    3    3    0    0  0.57036985120E+01 -0.84770679344E+01 -0.27775390260E+02  0.29595019207E+02  0.51100000000E-03 0.  1.
        -12    1    3    3    0    0  0.17561471300E+01 -0.60909843098E+01 -0.13771919313E+01  0.64869715754E+01  0.00000000000E+00 0.  1.
</event>
<event>
 7    1  0.2900470E-011  0.5052886E+02  0.7816164E-02  0.1300439E+00
        -11   -1    0    0    0    0  0.00000000000E+00  0.00000000000E+00  0.45593999997E+02  0.45594000000E+02  0.51100000000E-03 0. -1.
         11   -1    0    0    0    0 -0.00000000000E+00 -0.00000000000E+00 -0.45593999997E+02  0.45594000000E+02  0.51100000000E-03 0.  1.
    9900012    2    1    2    0    0  0.22489665818E+02  0.23324608920E+02 -0.24563041988E+02  0.50528862263E+02  0.30000007333E+02 0.  0.
         12    1    1    2    0    0 -0.22489665818E+02 -0.23324608920E+02  0.24563041988E+02  0.40659137737E+02  0.00000000000E+00 0. -1.
         11    1    3    3    0    0  0.13966337337E+02  0.97984406499E+01  0.25975993321E+01  0.17257332944E+02  0.51100000000E-03 0. -1.
        -11    1    3    3    0    0  0.10404254495E+02  0.97187272775E+01 -0.24258608022E+02  0.28127961798E+02  0.51100000000E-03 0.  1.
         12    1    3    3    0    0 -0.18809260137E+01  0.38074409921E+01 -0.29020332984E+01  0.51435675210E+01  0.00000000000E+00 0. -1.
</event>
<event>
 7    1  0.2900470E-011  0.5052887E+02  0.7816164E-02  0.1300439E+00
        -11   -1    0    0    0    0  0.00000000000E+00  0.00000000000E+00  0.45593999997E+02  0.45594000000E+02  0.51100000000E-03 0.  1.
         11   -1    0    0    0    0 -0.00000000000E+00 -0.00000000000E+00 -0.45593999997E+02  0.45594000000E+02  0.51100000000E-03 0. -1.
    9900012    2    1    2    0    0  0.21650262481E+02  0.34098541866E+02  0.46604845760E+01  0.50528873849E+02  0.30000042550E+02 0.  0.
         12    1    1    2    0    0 -0.21650262481E+02 -0.34098541866E+02 -0.46604845760E+01  0.40659126151E+02  0.00000000000E+00 0. -1.
         11    1    3    3    0    0  0.97200456142E+01  0.20478165160E+02 -0.11342261297E+02  0.25347217335E+02  0.51100000000E-03 0. -1.
        -11    1    3    3    0    0  0.19528518995E+01  0.74665275664E+01  0.61471263707E+01  0.98666016095E+01  0.51100000000E-03 0.  1.
         12    1    3    3    0    0  0.99773649673E+01  0.61538491401E+01  0.98556195023E+01  0.15315054904E+02  0.00000000000E+00 0. -1.
</event>
<event>
 7    1  0.2900470E-011  0.5052884E+02  0.7816164E-02  0.1300439E+00
        -11   -1    0    0    0    0  0.00000000000E+00  0.00000000000E+00  0.45593999997E+02  0.45594000000E+02  0.51100000000E-03 0. -1.
         11   -1    0    0    0    0 -0.00000000000E+00 -0.00000000000E+00 -0.45593999997E+02  0.45594000000E+02  0.51100000000E-03 0.  1.
    9900012    2    1    2    0    0  0.10364151115E+02 -0.16922247196E+01 -0.39279609914E+02  0.50528843493E+02  0.29999950282E+02 0.  0.
         12    1    1    2    0    0 -0.10364151115E+02  0.16922247196E+01  0.39279609914E+02  0.40659156507E+02  0.00000000000E+00 0. -1.
         11    1    3    3    0    0  0.82237197016E+01 -0.11698557051E+00 -0.10754627114E+02  0.13539027143E+02  0.51100000000E-03 0. -1.
        -11    1    3    3    0    0 -0.55353198661E+01 -0.58990150389E+01 -0.26824129594E+02  0.28017353073E+02  0.51100000000E-03 0.  1.
        -12    1    3    3    0    0  0.76757512792E+01  0.43237758897E+01 -0.17008532064E+01  0.89724632780E+01  0.00000000000E+00 0.  1.
</event>
<event>
 7    1  0.2900470E-011  0.5052886E+02  0.7816164E-02  0.1300439E+00
        -11   -1    0    0    0    0  0.00000000000E+00  0.00000000000E+00  0.45593999997E+02  0.45594000000E+02  0.51100000000E-03 0.  1.
         11   -1    0    0    0    0 -0.00000000000E+00 -0.00000000000E+00 -0.45593999997E+02  0.45594000000E+02  0.51100000000E-03 0. -1.
    9900012    2    1    2    0    0  0.11190149437E+02  0.39038990896E+02  0.19756773916E+01  0.50528861350E+02  0.30000004560E+02 0.  0.
         12    1    1    2    0    0 -0.11190149437E+02 -0.39038990896E+02 -0.19756773916E+01  0.40659138650E+02  0.00000000000E+00 0. -1.
         11    1    3    3    0    0  0.31669347423E+01  0.91309531146E+01  0.11718351666E+02  0.15189586777E+02  0.51100000000E-03 0. -1.
        -11    1    3    3    0    0  0.98540078318E+01  0.21325285287E+02 -0.18981423317E+01  0.23568457894E+02  0.51100000000E-03 0.  1.
         12    1    3    3    0    0 -0.18307931372E+01  0.85827524948E+01 -0.78445319425E+01  0.11770816679E+02  0.00000000000E+00 0. -1.
</event>
<event>
 7    1  0.2900470E-011  0.5052886E+02  0.7816164E-02  0.1300439E+00
        -11   -1    0    0    0    0  0.00000000000E+00  0.00000000000E+00  0.45593999997E+02  0.45594000000E+02  0.51100000000E-03 0.  1.
         11   -1    0    0    0    0 -0.00000000000E+00 -0.00000000000E+00 -0.45593999997E+02  0.45594000000E+02  0.51100000000E-03 0. -1.
    9900012    2    1    2    0    0 -0.29603734767E+02  0.27850027947E+02  0.10772312898E+01  0.50528860854E+02  0.30000003052E+02 0.  0.
         12    1    1    2    0    0  0.29603734767E+02 -0.27850027947E+02 -0.10772312898E+01  0.40659139146E+02  0.00000000000E+00 0. -1.
         11    1    3    3    0    0 -0.27026147880E+01  0.13539848568E+02  0.80438111828E+01  0.15979190359E+02  0.51100000000E-03 0. -1.
        -11    1    3    3    0    0 -0.16413296734E+02  0.33015848325E+01 -0.93238997864E+01  0.19163295113E+02  0.51100000000E-03 0.  1.
         12    1    3    3    0    0 -0.10487823245E+02  0.11008594547E+02  0.23573198934E+01  0.15386375382E+02  0.00000000000E+00 0. -1.
</event>
<event>
 7    1  0.2900470E-011  0.5052885E+02  0.7816164E-02  0.1300439E+00
        -11   -1    0    0    0    0  0.00000000000E+00  0.00000000000E+00  0.45593999997E+02  0.45594000000E+02  0.51100000000E-03 0. -1.
         11   -1    0    0    0    0 -0.00000000000E+00 -0.00000000000E+00 -0.45593999997E+02  0.45594000000E+02  0.51100000000E-03 0.  1.
    9900012    2    1    2    0    0 -0.28190059492E+02  0.18571526949E+02  0.22662422885E+02  0.50528850004E+02  0.29999970072E+02 0.  0.
         12    1    1    2    0    0  0.28190059492E+02 -0.18571526949E+02 -0.22662422885E+02  0.40659149996E+02  0.00000000000E+00 0. -1.
         11    1    3    3    0    0 -0.13876016170E+02  0.73006360233E+01  0.77572404445E+01  0.17493367048E+02  0.51100000000E-03 0. -1.
        -11    1    3    3    0    0  0.45191332691E+01 -0.21518149317E+01 -0.81547619221E+00  0.50712793933E+01  0.51100000000E-03 0.  1.
        -12    1    3    3    0    0 -0.18833176591E+02  0.13422705858E+02  0.15720658632E+02  0.27964203563E+02  0.00000000000E+00 0.  1.
</event>
<event>
 7    1  0.2900470E-011  0.5052887E+02  0.7816164E-02  0.1300439E+00
        -11   -1    0    0    0    0  0.00000000000E+00  0.00000000000E+00  0.45593999997E+02  0.45594000000E+02  0.51100000000E-03 0.  1.
         11   -1    0    0    0    0 -0.00000000000E+00 -0.00000000000E+00 -0.45593999997E+02  0.45594000000E+02  0.51100000000E-03 0. -1.
    9900012    2    1    2    0    0  0.32279207876E+02 -0.44686351434E+01  0.24315617893E+02  0.50528865298E+02  0.30000016561E+02 0.  0.
         12    1    1    2    0    0 -0.32279207876E+02  0.44686351434E+01 -0.24315617893E+02  0.40659134702E+02  0.00000000000E+00 0. -1.
         11    1    3    3    0    0  0.32722262263E+01  0.75610732174E+01 -0.80550894067E-01  0.82391614490E+01  0.51100000000E-03 0. -1.
        -11    1    3    3    0    0  0.61183818419E+01 -0.81988916273E+01  0.28428815737E+01  0.10617833874E+02  0.51100000000E-03 0.  1.
         12    1    3    3    0    0  0.22888599808E+02 -0.38308167335E+01  0.21553287214E+02  0.31671869975E+02  0.00000000000E+00 0. -1.
</event>
<event>
 7    1  0.2900470E-011  0.5052885E+02  0.7816164E-02  0.1300439E+00
        -11   -1    0    0    0    0  0.00000000000E+00  0.00000000000E+00  0.45593999997E+02  0.45594000000E+02  0.51100000000E-03 0.  1.
         11   -1    0    0    0    0 -0.00000000000E+00 -0.00000000000E+00 -0.45593999997E+02  0.45594000000E+02  0.51100000000E-03 0. -1.
    9900012    2    1    2    0    0 -0.40459781131E+02 -0.29412173735E+01  0.27426069288E+01  0.50528849227E+02  0.29999967712E+02 0.  0.
         12    1    1    2    0    0  0.40459781131E+02  0.29412173735E+01 -0.27426069288E+01  0.40659150773E+02  0.00000000000E+00 0. -1.
         11    1    3    3    0    0 -0.11392314757E+02 -0.50224614676E+01 -0.10097505483E+02  0.16030270490E+02  0.51100000000E-03 0. -1.
        -11    1    3    3    0    0 -0.10508444997E+02 -0.19056614417E+01  0.11152287238E+02  0.15441258779E+02  0.51100000000E-03 0.  1.
        -12    1    3    3    0    0 -0.18559021376E+02  0.39869055358E+01  0.16878251742E+01  0.19057319959E+02  0.00000000000E+00 0.  1.
</event>
<event>
 7    1  0.2900470E-011  0.5052885E+02  0.7816164E-02  0.1300439E+00
        -11   -1    0    0    0    0  0.00000000000E+00  0.00000000000E+00  0.45593999997E+02  0.45594000000E+02  0.51100000000E-03 0.  1.
         11   -1    0    0    0    0 -0.00000000000E+00 -0.00000000000E+00 -0.45593999997E+02  0.45594000000E+02  0.51100000000E-03 0. -1.
    9900012    2    1    2    0    0  0.28963568839E+02  0.26604166138E+02  0.10319709509E+02  0.50528851212E+02  0.29999973744E+02 0.  0.
         12    1    1    2    0    0 -0.28963568839E+02 -0.26604166138E+02 -0.10319709509E+02  0.40659148788E+02  0.00000000000E+00 0. -1.
         11    1    3    3    0    0  0.88798784551E+01  0.11091291278E+02 -0.91264051224E+01  0.16886688672E+02  0.51100000000E-03 0. -1.
        -11    1    3    3    0    0  0.20296973181E+02  0.15245770405E+02  0.15630551134E+02  0.29811319403E+02  0.51100000000E-03 0.  1.
         12    1    3    3    0    0 -0.21328279636E+00  0.26710445546E+00  0.38155634970E+01  0.38308431371E+01  0.00000000000E+00 0. -1.
</event>
<event>
 7    1  0.2900470E-011  0.5052886E+02  0.7816164E-02  0.1300439E+00
        -11   -1    0    0    0    0  0.00000000000E+00  0.00000000000E+00  0.45593999997E+02  0.45594000000E+02  0.51100000000E-03 0.  1.
         11   -1    0    0    0    0 -0.00000000000E+00 -0.00000000000E+00 -0.45593999997E+02  0.45594000000E+02  0.51100000000E-03 0. -1.
    9900012    2    1    2    0    0  0.13460964788E+02  0.14976355932E+02  0.35322471629E+02  0.50528858199E+02  0.29999994981E+02 0.  0.
         12    1    1    2    0    0 -0.13460964788E+02 -0.14976355932E+02 -0.35322471629E+02  0.40659141801E+02  0.00000000000E+00 0. -1.
         11    1    3    3    0    0 -0.17579031609E+01  0.10226984341E+02  0.26189532919E+01  0.10702352491E+02  0.51100000000E-03 0. -1.
        -11    1    3    3    0    0  0.93602025422E+01  0.84909664825E+01  0.29655770690E+02  0.32236231773E+02  0.51100000000E-03 0.  1.
         12    1    3    3    0    0  0.58586654070E+01 -0.37415948920E+01  0.30477476479E+01  0.75902739352E+01  0.00000000000E+00 0. -1.
</event>
<event>
 7    1  0.2900470E-011  0.5052886E+02  0.7816164E-02  0.1300439E+00
        -11   -1    0    0    0    0  0.00000000000E+00  0.00000000000E+00  0.45593999997E+02  0.45594000000E+02  0.51100000000E-03 0.  1.
         11   -1    0    0    0    0 -0.00000000000E+00 -0.00000000000E+00 -0.45593999997E+02  0.45594000000E+02  0.51100000000E-03 0. -1.
    9900012    2    1    2    0    0  0.33622008707E+02 -0.22130762174E+02  0.57407031846E+01  0.50528858630E+02  0.29999996290E+02 0.  0.
         12    1    1    2    0    0 -0.33622008707E+02  0.22130762174E+02 -0.57407031846E+01  0.40659141370E+02  0.00000000000E+00 0. -1.
         11    1    3    3    0    0  0.14869258362E+02 -0.13505136174E+02  0.67076019099E+01  0.21177239456E+02  0.51100000000E-03 0. -1.
        -11    1    3    3    0    0 -0.48568915595E+00 -0.18111122602E+01 -0.76493417105E+01  0.78758142716E+01  0.51100000000E-03 0.  1.
        -12    1    3    3    0    0  0.19238439501E+02 -0.68145137396E+01  0.66824429852E+01  0.21475804902E+02  0.00000000000E+00 0.  1.
</event>
<event>
 7    1  0.2900470E-011  0.5052886E+02  0.7816164E-02  0.1300439E+00
        -11   -1    0    0    0    0  0.00000000000E+00  0.00000000000E+00  0.45593999997E+02  0.45594000000E+02  0.51100000000E-03 0.  1.
         11   -1    0    0    0    0 -0.00000000000E+00 -0.00000000000E+00 -0.45593999997E+02  0.45594000000E+02  0.51100000000E-03 0. -1.
    9900012    2    1    2    0    0  0.15768993784E+02 -0.12529632254E+02  0.35320143324E+02  0.50528863588E+02  0.30000011361E+02 0.  0.
         12    1    1    2    0    0 -0.15768993784E+02  0.12529632254E+02 -0.35320143324E+02  0.40659136412E+02  0.00000000000E+00 0. -1.
         11    1    3    3    0    0 -0.24641910999E+01 -0.27146386399E+01  0.18500422013E+02  0.18860199247E+02  0.51100000000E-03 0. -1.
        -11    1    3    3    0    0  0.14761690505E+02  0.10589237276E+01  0.12799735890E+02  0.19566861402E+02  0.51100000000E-03 0.  1.
         12    1    3    3    0    0  0.34714943787E+01 -0.10873917342E+02  0.40199854213E+01  0.12101802939E+02  0.00000000000E+00 0. -1.
</event>
<event>
 7    1  0.2900470E-011  0.5052886E+02  0.7816164E-02  0.1300439E+00
        -11   -1    0    0    0    0  0.00000000000E+00  0.00000000000E+00  0.45593999997E+02  0.45594000000E+02  0.51100000000E-03 0.  1.
         11   -1    0    0    0    0 -0.00000000000E+00 -0.00000000000E+00 -0.45593999997E+02  0.45594000000E+02  0.51100000000E-03 0. -1.
    9900012    2    1    2    0    0 -0.11905133150E+02  0.15349436511E+01  0.38846841244E+02  0.50528864225E+02  0.30000013299E+02 0.  0.
         12    1    1    2    0    0  0.11905133150E+02 -0.15349436511E+01 -0.38846841244E+02  0.40659135775E+02  0.00000000000E+00 0. -1.
         11    1    3    3    0    0 -0.69017233390E+01  0.50382753214E+01  0.35383820074E+01  0.92486837309E+01  0.51100000000E-03 0. -1.
        -11    1    3    3    0    0  0.26517361247E+01 -0.10159174762E+02  0.12546695466E+02  0.16360321014E+02  0.51100000000E-03 0.  1.
        -12    1    3    3    0    0 -0.76551459360E+01  0.66558430914E+01  0.22761763770E+02  0.24919859480E+02  0.00000000000E+00 0.  1.
</event>
<event>
 7    1  0.2900470E-011  0.5052885E+02  0.7816164E-02  0.1300439E+00
        -11   -1    0    0    0    0  0.00000000000E+00  0.00000000000E+00  0.45593999997E+02  0.45594000000E+02  0.51100000000E-03 0.  1.
         11   -1    0    0    0    0 -0.00000000000E+00 -0.00000000000E+00 -0.45593999997E+02  0.45594000000E+02  0.51100000000E-03 0. -1.
    9900012    2    1    2    0    0  0.14198939999E+02  0.14819275335E+02  0.35099078854E+02  0.50528853982E+02  0.29999982162E+02 0.  0.
         12    1    1    2    0    0 -0.14198939999E+02 -0.14819275335E+02 -0.35099078854E+02  0.40659146018E+02  0.00000000000E+00 0. -1.
         11    1    3    3    0    0 -0.53030784040E+01  0.12039463322E+01  0.58881546869E+01  0.80151414965E+01  0.51100000000E-03 0. -1.
        -11    1    3    3    0    0  0.17965510357E+02  0.17535938437E+02  0.28914253023E+02  0.38292332488E+02  0.51100000000E-03 0.  1.
         12    1    3    3    0    0  0.15365080461E+01 -0.39206094338E+01  0.29667114358E+00  0.42213799966E+01  0.00000000000E+00 0. -1.
</event>
<event>
 7    1  0.2900470E-011  0.5052887E+02  0.7816164E-02  0.1300439E+00
        -11   -1    0    0    0    0  0.00000000000E+00  0.00000000000E+00  0.45593999997E+02  0.45594000000E+02  0.51100000000E-03 0.  1.
         11   -1    0    0    0    0 -0.00000000000E+00 -0.00000000000E+00 -0.45593999997E+02  0.45594000000E+02  0.51100000000E-03 0. -1.
    9900012    2    1    2    0    0  0.16950977925E+02 -0.36412918637E+02  0.63188848113E+01  0.50528873084E+02  0.30000040226E+02 0.  0.
         12    1    1    2    0    0 -0.16950977925E+02  0.36412918637E+02 -0.63188848113E+01  0.40659126916E+02  0.00000000000E+00 0. -1.
         11    1    3    3    0    0  0.82743793715E+01 -0.28427928490E+02 -0.69646867550E+01  0.30415774428E+02  0.51100000000E-03 0. -1.
        -11    1    3    3    0    0  0.22291271900E+01 -0.71642522606E+01  0.10810228971E+02  0.13158896958E+02  0.51100000000E-03 0.  1.
         12    1    3    3    0    0  0.64474713637E+01 -0.82073788727E+00  0.24733425952E+01  0.69542016981E+01  0.00000000000E+00 0. -1.
</event>
<event>
 7    1  0.2900470E-011  0.5052882E+02  0.7816164E-02  0.1300439E+00
        -11   -1    0    0    0    0  0.00000000000E+00  0.00000000000E+00  0.45593999997E+02  0.45594000000E+02  0.51100000000E-03 0. -1.
         11   -1    0    0    0    0 -0.00000000000E+00 -0.00000000000E+00 -0.45593999997E+02  0.45594000000E+02  0.51100000000E-03 0.  1.
    9900012    2    1    2    0    0 -0.29454780882E+02 -0.25157739919E+02 -0.12356081864E+02  0.50528822024E+02  0.29999885024E+02 0.  0.
         12    1    1    2    0    0  0.29454780882E+02  0.25157739919E+02  0.12356081864E+02  0.40659177976E+02  0.00000000000E+00 0. -1.
         11    1    3    3    0    0 -0.36573794107E+01 -0.10781976258E+02  0.64065235870E+01  0.13064110414E+02  0.51100000000E-03 0. -1.
        -11    1    3    3    0    0 -0.19395532444E+02 -0.34051596417E+01 -0.10566018634E+02  0.22347763670E+02  0.51100000000E-03 0.  1.
         12    1    3    3    0    0 -0.64018690274E+01 -0.10970604020E+02 -0.81965868164E+01  0.15116947941E+02  0.00000000000E+00 0. -1.
</event>
<event>
 7    1  0.2900470E-011  0.5052886E+02  0.7816164E-02  0.1300439E+00
        -11   -1    0    0    0    0  0.00000000000E+00  0.00000000000E+00  0.45593999997E+02  0.45594000000E+02  0.51100000000E-03 0. -1.
         11   -1    0    0    0    0 -0.00000000000E+00 -0.00000000000E+00 -0.45593999997E+02  0.45594000000E+02  0.51100000000E-03 0.  1.
    9900012    2    1    2    0    0  0.10189690444E+02 -0.25315300648E+01 -0.39280114068E+02  0.50528858383E+02  0.29999995542E+02 0.  0.
         12    1    1    2    0    0 -0.10189690444E+02  0.25315300648E+01  0.39280114068E+02  0.40659141617E+02  0.00000000000E+00 0. -1.
         11    1    3    3    0    0 -0.91478634591E-01 -0.94400816190E+01 -0.25212546110E+01  0.97713987938E+01  0.51100000000E-03 0. -1.
        -11    1    3    3    0    0  0.17489327620E+01  0.67858661008E+00 -0.24511228749E+02  0.24582912371E+02  0.51100000000E-03 0.  1.
         12    1    3    3    0    0  0.85322363165E+01  0.62299649441E+01 -0.12247630708E+02  0.16174547218E+02  0.00000000000E+00 0. -1.
</event>
<event>
 7    1  0.2900470E-011  0.5052887E+02  0.7816164E-02  0.1300439E+00
        -11   -1    0    0    0    0  0.00000000000E+00  0.00000000000E+00  0.45593999997E+02  0.45594000000E+02  0.51100000000E-03 0.  1.
         11   -1    0    0    0    0 -0.00000000000E+00 -0.00000000000E+00 -0.45593999997E+02  0.45594000000E+02  0.51100000000E-03 0. -1.
    9900012    2    1    2    0    0  0.18883838271E+02 -0.22391689564E+02  0.28198898893E+02  0.50528868084E+02  0.30000025028E+02 0.  0.
         12    1    1    2    0    0 -0.18883838271E+02  0.22391689564E+02 -0.28198898893E+02  0.40659131916E+02  0.00000000000E+00 0. -1.
         11    1    3    3    0    0  0.10405843515E+02 -0.92426066682E+01 -0.38090884076E+01  0.14429709354E+02  0.51100000000E-03 0. -1.
        -11    1    3    3    0    0  0.27652658088E+01 -0.50213277066E+00  0.57146015349E+01  0.63683202869E+01  0.51100000000E-03 0.  1.
         12    1    3    3    0    0  0.57127289470E+01 -0.12646950125E+02  0.26293385766E+02  0.29730838443E+02  0.00000000000E+00 0. -1.
</event>
<event>
 7    1  0.2900470E-011  0.5052873E+02  0.7816164E-02  0.1300439E+00
        -11   -1    0    0    0    0  0.00000000000E+00  0.00000000000E+00  0.45593999997E+02  0.45594000000E+02  0.51100000000E-03 0. -1.
         11   -1    0    0    0    0 -0.00000000000E+00 -0.00000000000E+00 -0.45593999997E+02  0.45594000000E+02  0.51100000000E-03 0.  1.
    9900012    2    1    2    0    0  0.93215968676E+01 -0.23449808658E+01 -0.39506769673E+02  0.50528733487E+02  0.29999615903E+02 0.  0.
         12    1    1    2    0    0 -0.93215968676E+01  0.23449808658E+01  0.39506769673E+02  0.40659266513E+02  0.00000000000E+00 0. -1.
         11    1    3    3    0    0  0.48005181672E+01 -0.43217912285E+01 -0.77650582687E+01  0.10100444756E+02  0.51100000000E-03 0. -1.
        -11    1    3    3    0    0  0.10381913468E+02  0.95963876748E+01 -0.12298003675E+02  0.18738080967E+02  0.51100000000E-03 0.  1.
        -12    1    3    3    0    0 -0.58608347671E+01 -0.76195773121E+01 -0.19443707729E+02  0.21690207764E+02  0.00000000000E+00 0.  1.
</event>
<event>
 7    1  0.2900470E-011  0.5052886E+02  0.7816164E-02  0.1300439E+00
        -11   -1    0    0    0    0  0.00000000000E+00  0.00000000000E+00  0.45593999997E+02  0.45594000000E+02  0.51100000000E-03 0. -1.
         11   -1    0    0    0    0 -0.00000000000E+00 -0.00000000000E+00 -0.45593999997E+02  0.45594000000E+02  0.51100000000E-03 0.  1.
    9900012    2    1    2    0    0  0.27526875363E+02 -0.28709715132E+02  0.84373709156E+01  0.50528857877E+02  0.29999994003E+02 0.  0.
         12    1    1    2    0    0 -0.27526875363E+02  0.28709715132E+02 -0.84373709156E+01  0.40659142123E+02  0.00000000000E+00 0. -1.
         11    1    3    3    0    0  0.28531044567E+02 -0.13953591179E+02  0.95632435933E+01  0.33168943896E+02  0.51100000000E-03 0.  1.
        -11    1    3    3    0    0  0.36732374920E+00 -0.89547018082E+01 -0.49880574767E+01  0.10256818652E+02  0.51100000000E-03 0. -1.
        -12    1    3    3    0    0 -0.13714929537E+01 -0.58014221452E+01  0.38621847989E+01  0.71030953288E+01  0.00000000000E+00 0.  1.
</event>
<event>
 7    1  0.2900470E-011  0.5052887E+02  0.7816164E-02  0.1300439E+00
        -11   -1    0    0    0    0  0.00000000000E+00  0.00000000000E+00  0.45593999997E+02  0.45594000000E+02  0.51100000000E-03 0.  1.
         11   -1    0    0    0    0 -0.00000000000E+00 -0.00000000000E+00 -0.45593999997E+02  0.45594000000E+02  0.51100000000E-03 0. -1.
    9900012    2    1    2    0    0 -0.16998674754E+02 -0.47609284505E+01  0.36627086698E+02  0.50528869868E+02  0.30000030451E+02 0.  0.
         12    1    1    2    0    0  0.16998674754E+02  0.47609284505E+01 -0.36627086698E+02  0.40659130132E+02  0.00000000000E+00 0. -1.
         11    1    3    3    0    0  0.22503353365E+01  0.67558270069E+01  0.45527287596E+01  0.84517777476E+01  0.51100000000E-03 0. -1.
        -11    1    3    3    0    0 -0.13518956304E+02 -0.84739958362E+01  0.94565220507E+01  0.18547145186E+02  0.51100000000E-03 0.  1.
         12    1    3    3    0    0 -0.57300537864E+01 -0.30427596212E+01  0.22617835888E+02  0.23529946935E+02  0.00000000000E+00 0. -1.
</event>
<event>
 7    1  0.2900470E-011  0.5052886E+02  0.7816164E-02  0.1300439E+00
        -11   -1    0    0    0    0  0.00000000000E+00  0.00000000000E+00  0.45593999997E+02  0.45594000000E+02  0.51100000000E-03 0.  1.
         11   -1    0    0    0    0 -0.00000000000E+00 -0.00000000000E+00 -0.45593999997E+02  0.45594000000E+02  0.51100000000E-03 0. -1.
    9900012    2    1    2    0    0  0.39158402953E+02 -0.10913932532E+02  0.81921358130E+00  0.50528861346E+02  0.30000004548E+02 0.  0.
         12    1    1    2    0    0 -0.39158402953E+02  0.10913932532E+02 -0.81921358130E+00  0.40659138654E+02  0.00000000000E+00 0. -1.
         11    1    3    3    0    0 -0.16136597290E+01 -0.25684746247E+00  0.41140134037E+01  0.44266211592E+01  0.51100000000E-03 0. -1.
        -11    1    3    3    0    0  0.38096774206E+02 -0.89429341734E+01  0.27964150825E+01  0.39232132419E+02  0.51100000000E-03 0.  1.
         12    1    3    3    0    0  0.26752884760E+01 -0.17141508962E+01 -0.60912149049E+01  0.68701077679E+01  0.00000000000E+00 0. -1.
</event>
<event>
 7    1  0.2900470E-011  0.5052886E+02  0.7816164E-02  0.1300439E+00
        -11   -1    0    0    0    0  0.00000000000E+00  0.00000000000E+00  0.45593999997E+02  0.45594000000E+02  0.51100000000E-03 0.  1.
         11   -1    0    0    0    0 -0.00000000000E+00 -0.00000000000E+00 -0.45593999997E+02  0.45594000000E+02  0.51100000000E-03 0. -1.
    9900012    2    1    2    0    0  0.15031162916E+02 -0.21851806475E+02  0.30817664861E+02  0.50528858687E+02  0.29999996466E+02 0.  0.
         12    1    1    2    0    0 -0.15031162916E+02  0.21851806475E+02 -0.30817664861E+02  0.40659141313E+02  0.00000000000E+00 0. -1.
         11    1    3    3    0    0  0.79335281750E+01  0.83534172881E+00  0.15026130706E+02  0.17012444544E+02  0.51100000000E-03 0. -1.
        -11    1    3    3    0    0  0.29180727721E+01 -0.17273815939E+02  0.19101497365E+02  0.25918469624E+02  0.51100000000E-03 0.  1.
         12    1    3    3    0    0  0.41795619688E+01 -0.54133322641E+01 -0.33099632107E+01  0.75979445187E+01  0.00000000000E+00 0. -1.
</event>
<event>
 7    1  0.2900470E-011  0.5052888E+02  0.7816164E-02  0.1300439E+00
        -11   -1    0    0    0    0  0.00000000000E+00  0.00000000000E+00  0.45593999997E+02  0.45594000000E+02  0.51100000000E-03 0.  1.
         11   -1    0    0    0    0 -0.00000000000E+00 -0.00000000000E+00 -0.45593999997E+02  0.45594000000E+02  0.51100000000E-03 0. -1.
    9900012    2    1    2    0    0  0.36759395604E+01 -0.38618384749E+02  0.12176679755E+02  0.50528884145E+02  0.30000073847E+02 0.  0.
         12    1    1    2    0    0 -0.36759395604E+01  0.38618384749E+02 -0.12176679755E+02  0.40659115855E+02  0.00000000000E+00 0. -1.
         11    1    3    3    0    0 -0.50845048049E+01 -0.93211461903E+00  0.49312301198E+01  0.71440924917E+01  0.51100000000E-03 0. -1.
        -11    1    3    3    0    0  0.19209938389E+01 -0.35508598902E+02  0.53476087517E+01  0.35960363359E+02  0.51100000000E-03 0.  1.
        -12    1    3    3    0    0  0.68394505264E+01 -0.21776712281E+01  0.18978408836E+01  0.74244282945E+01  0.00000000000E+00 0.  1.
</event>
<event>
 7    1  0.2900470E-011  0.5052886E+02  0.7816164E-02  0.1300439E+00
        -11   -1    0    0    0    0  0.00000000000E+00  0.00000000000E+00  0.45593999997E+02  0.45594000000E+02  0.51100000000E-03 0. -1.
         11   -1    0    0    0    0 -0.00000000000E+00 -0.00000000000E+00 -0.45593999997E+02  0.45594000000E+02  0.51100000000E-03 0.  1.
    9900012    2    1    2    0    0  0.38403344909E+02 -0.12354367047E+02 -0.50712985166E+01  0.50528863832E+02  0.30000012103E+02 0.  0.
         12    1    1    2    0    0 -0.38403344909E+02  0.12354367047E+02  0.50712985166E+01  0.40659136168E+02  0.00000000000E+00 0. -1.
         11    1    3    3    0    0  0.12310143519E+02 -0.13055270809E+02  0.88578265781E+01  0.20011017498E+02  0.51100000000E-03 0. -1.
        -11    1    3    3    0    0  0.17499545542E+02  0.36995288558E+01 -0.10795574896E+02  0.20891745870E+02  0.51100000000E-03 0.  1.
         12    1    3    3    0    0  0.85936558480E+01 -0.29986250942E+01 -0.31335501992E+01  0.96261004638E+01  0.00000000000E+00 0. -1.
</event>
<event>
 7    1  0.2900470E-011  0.5052886E+02  0.7816164E-02  0.1300439E+00
        -11   -1    0    0    0    0  0.00000000000E+00  0.00000000000E+00  0.45593999997E+02  0.45594000000E+02  0.51100000000E-03 0. -1.
         11   -1    0    0    0    0 -0.00000000000E+00 -0.00000000000E+00 -0.45593999997E+02  0.45594000000E+02  0.51100000000E-03 0.  1.
    9900012    2    1    2    0    0 -0.37148835468E+02 -0.76874108568E+01 -0.14629875946E+02  0.50528861636E+02  0.30000005429E+02 0.  0.
         12    1    1    2    0    0  0.37148835468E+02  0.76874108568E+01  0.14629875946E+02  0.40659138364E+02  0.00000000000E+00 0. -1.
         11    1    3    3    0    0 -0.45020983481E+01 -0.36161358337E+01 -0.11988232447E+02  0.13306503874E+02  0.51100000000E-03 0. -1.
        -11    1    3    3    0    0 -0.32813528420E+02 -0.74524486410E+01 -0.31616109775E+01  0.33797373010E+02  0.51100000000E-03 0.  1.
         12    1    3    3    0    0  0.16679130042E+00  0.33811736180E+01  0.51996747788E+00  0.34249847519E+01  0.00000000000E+00 0. -1.
</event>
<event>
 7    1  0.2900470E-011  0.5052886E+02  0.7816164E-02  0.1300439E+00
        -11   -1    0    0    0    0  0.00000000000E+00  0.00000000000E+00  0.45593999997E+02  0.45594000000E+02  0.51100000000E-03 0. -1.
         11   -1    0    0    0    0 -0.00000000000E+00 -0.00000000000E+00 -0.45593999997E+02  0.45594000000E+02  0.51100000000E-03 0.  1.
    9900012    2    1    2    0    0  0.95929353240E+01  0.15998768215E+02 -0.36127281371E+02  0.50528862629E+02  0.30000008446E+02 0.  0.
         12    1    1    2    0    0 -0.95929353240E+01 -0.15998768215E+02  0.36127281371E+02  0.40659137371E+02  0.00000000000E+00 0. -1.
         11    1    3    3    0    0  0.31612895166E+01  0.12013045110E+02 -0.11045483874E+02  0.16622566544E+02  0.51100000000E-03 0. -1.
        -11    1    3    3    0    0 -0.20085954235E+01 -0.75247630669E+01 -0.13237388932E+02  0.15358547483E+02  0.51100000000E-03 0.  1.
        -12    1    3    3    0    0  0.84402412309E+01  0.11510486172E+02 -0.11844408565E+02  0.18547748602E+02  0.00000000000E+00 0.  1.
</event>
<event>
 7    1  0.2900470E-011  0.5052895E+02  0.7816164E-02  0.1300438E+00
        -11   -1    0    0    0    0  0.00000000000E+00  0.00000000000E+00  0.45593999997E+02  0.45594000000E+02  0.51100000000E-03 0.  1.
         11   -1    0    0    0    0 -0.00000000000E+00 -0.00000000000E+00 -0.45593999997E+02  0.45594000000E+02  0.51100000000E-03 0. -1.
    9900012    2    1    2    0    0 -0.73772226686E+01  0.84265096105E+00  0.39975301122E+02  0.50528952117E+02  0.30000280453E+02 0.  0.
         12    1    1    2    0    0  0.73772226686E+01 -0.84265096105E+00 -0.39975301122E+02  0.40659047883E+02  0.00000000000E+00 0. -1.
         11    1    3    3    0    0 -0.58367477376E+01  0.92710832266E+00  0.52628774808E+01  0.79135980207E+01  0.51100000000E-03 0. -1.
        -11    1    3    3    0    0  0.77023299103E+01 -0.84921026679E+01  0.21897845303E+02  0.24717550910E+02  0.51100000000E-03 0.  1.
        -12    1    3    3    0    0 -0.92428048413E+01  0.84076453063E+01  0.12814578338E+02  0.17897803187E+02  0.00000000000E+00 0.  1.
</event>
<event>
 7    1  0.2900470E-011  0.5052885E+02  0.7816164E-02  0.1300439E+00
        -11   -1    0    0    0    0  0.00000000000E+00  0.00000000000E+00  0.45593999997E+02  0.45594000000E+02  0.51100000000E-03 0. -1.
         11   -1    0    0    0    0 -0.00000000000E+00 -0.00000000000E+00 -0.45593999997E+02  0.45594000000E+02  0.51100000000E-03 0.  1.
    9900012    2    1    2    0    0 -0.13898589394E+02 -0.17647358282E+02 -0.33890500818E+02  0.50528854815E+02  0.29999984696E+02 0.  0.
         12    1    1    2    0    0  0.13898589394E+02  0.17647358282E+02  0.33890500818E+02  0.40659145185E+02  0.00000000000E+00 0. -1.
         11    1    3    3    0    0 -0.12238644065E+02 -0.53028617256E+01 -0.22344890873E+01  0.13523967346E+02  0.51100000000E-03 0. -1.
        -11    1    3    3    0    0 -0.38712986626E+01 -0.92815744722E+00 -0.20525341948E+02  0.20907847616E+02  0.51100000000E-03 0.  1.
         12    1    3    3    0    0  0.22113533338E+01 -0.11416339109E+02 -0.11130669783E+02  0.16097039853E+02  0.00000000000E+00 0. -1.
</event>
<event>
 7    1  0.2900470E-011  0.5052886E+02  0.7816164E-02  0.1300439E+00
        -11   -1    0    0    0    0  0.00000000000E+00  0.00000000000E+00  0.45593999997E+02  0.45594000000E+02  0.51100000000E-03 0.  1.
         11   -1    0    0    0    0 -0.00000000000E+00 -0.00000000000E+00 -0.45593999997E+02  0.45594000000E+02  0.51100000000E-03 0. -1.
    9900012    2    1    2    0    0 -0.26547754105E+02 -0.13780490251E+02  0.27540520390E+02  0.50528862983E+02  0.30000009524E+02 0.  0.
         12    1    1    2    0    0  0.26547754105E+02  0.13780490251E+02 -0.27540520390E+02  0.40659137017E+02  0.00000000000E+00 0. -1.
         11    1    3    3    0    0 -0.12270750497E+02  0.61829191714E+01  0.17205566107E+02  0.22018885362E+02  0.51100000000E-03 0. -1.
        -11    1    3    3    0    0 -0.75434534259E+01 -0.11565004166E+02  0.11103112941E+02  0.17718129929E+02  0.51100000000E-03 0.  1.
         12    1    3    3    0    0 -0.67335501821E+01 -0.83984052560E+01 -0.76815865741E+00  0.10791847693E+02  0.00000000000E+00 0. -1.
</event>
<event>
 7    1  0.2900470E-011  0.5052886E+02  0.7816164E-02  0.1300439E+00
        -11   -1    0    0    0    0  0.00000000000E+00  0.00000000000E+00  0.45593999997E+02  0.45594000000E+02  0.51100000000E-03 0. -1.
         11   -1    0    0    0    0 -0.00000000000E+00 -0.00000000000E+00 -0.45593999997E+02  0.45594000000E+02  0.51100000000E-03 0.  1.
    9900012    2    1    2    0    0 -0.14463135408E+02 -0.34151880063E+02 -0.16662305602E+02  0.50528860491E+02  0.30000001947E+02 0.  0.
         12    1    1    2    0    0  0.14463135408E+02  0.34151880063E+02  0.16662305602E+02  0.40659139509E+02  0.00000000000E+00 0. -1.
         11    1    3    3    0    0 -0.36965067005E+01 -0.47183306594E+01  0.17646708414E+01  0.62482693154E+01  0.51100000000E-03 0. -1.
        -11    1    3    3    0    0 -0.48365375386E+01  0.54860976984E+00 -0.12137523931E+02  0.13077176893E+02  0.51100000000E-03 0.  1.
        -12    1    3    3    0    0 -0.59300911688E+01 -0.29982159174E+02 -0.62894525121E+01  0.31203414282E+02  0.00000000000E+00 0.  1.
</event>
<event>
 7    1  0.2900470E-011  0.5052886E+02  0.7816164E-02  0.1300439E+00
        -11   -1    0    0    0    0  0.00000000000E+00  0.00000000000E+00  0.45593999997E+02  0.45594000000E+02  0.51100000000E-03 0. -1.
         11   -1    0    0    0    0 -0.00000000000E+00 -0.00000000000E+00 -0.45593999997E+02  0.45594000000E+02  0.51100000000E-03 0.  1.
    9900012    2    1    2    0    0  0.20935459858E+01 -0.26413485097E+02 -0.30840084614E+02  0.50528856517E+02  0.29999989870E+02 0.  0.
         12    1    1    2    0    0 -0.20935459858E+01  0.26413485097E+02  0.30840084614E+02  0.40659143483E+02  0.00000000000E+00 0. -1.
         11    1    3    3    0    0 -0.34803265863E+01 -0.96585807977E+01 -0.29606675948E+02  0.31336179045E+02  0.51100000000E-03 0. -1.
        -11    1    3    3    0    0  0.51092621671E+01 -0.17484826593E+02 -0.82190400589E+00  0.18234561890E+02  0.51100000000E-03 0.  1.
        -12    1    3    3    0    0  0.46461040499E+00  0.72992229367E+00 -0.41150465952E+00  0.95811558177E+00  0.00000000000E+00 0.  1.
</event>
<event>
 7    1  0.2900470E-011  0.5052886E+02  0.7816164E-02  0.1300439E+00
        -11   -1    0    0    0    0  0.00000000000E+00  0.00000000000E+00  0.45593999997E+02  0.45594000000E+02  0.51100000000E-03 0.  1.
         11   -1    0    0    0    0 -0.00000000000E+00 -0.00000000000E+00 -0.45593999997E+02  0.45594000000E+02  0.51100000000E-03 0. -1.
    9900012    2    1    2    0    0  0.13148067077E+02 -0.33343407249E+02  0.19196644247E+02  0.50528860496E+02  0.30000001964E+02 0.  0.
         12    1    1    2    0    0 -0.13148067077E+02  0.33343407249E+02 -0.19196644247E+02  0.40659139504E+02  0.00000000000E+00 0. -1.
         11    1    3    3    0    0  0.83886121042E+00 -0.84416830094E+01  0.18515517167E+02  0.20366395763E+02  0.51100000000E-03 0. -1.
        -11    1    3    3    0    0  0.70161174568E+00 -0.98838129206E-01  0.26153082449E+01  0.27095876983E+01  0.51100000000E-03 0.  1.
         12    1    3    3    0    0  0.11607594121E+02 -0.24802886111E+02 -0.19341811655E+01  0.27452877035E+02  0.00000000000E+00 0. -1.
</event>
<event>
 7    1  0.2900470E-011  0.5052886E+02  0.7816164E-02  0.1300439E+00
        -11   -1    0    0    0    0  0.00000000000E+00  0.00000000000E+00  0.45593999997E+02  0.45594000000E+02  0.51100000000E-03 0.  1.
         11   -1    0    0    0    0 -0.00000000000E+00 -0.00000000000E+00 -0.45593999997E+02  0.45594000000E+02  0.51100000000E-03 0. -1.
    9900012    2    1    2    0    0 -0.93307616675E+01  0.29434449348E+02  0.26452142524E+02  0.50528858767E+02  0.29999996708E+02 0.  0.
         12    1    1    2    0    0  0.93307616675E+01 -0.29434449348E+02 -0.26452142524E+02  0.40659141233E+02  0.00000000000E+00 0. -1.
         11    1    3    3    0    0 -0.13914945771E+02  0.79941056663E+01  0.17256653011E+02  0.23565303194E+02  0.51100000000E-03 0. -1.
        -11    1    3    3    0    0  0.82891203842E+01  0.98440424718E+01  0.68040308529E+01  0.14557112524E+02  0.51100000000E-03 0.  1.
         12    1    3    3    0    0 -0.37049362802E+01  0.11596301210E+02  0.23914586597E+01  0.12406443049E+02  0.00000000000E+00 0. -1.
</event>
<event>
 7    1  0.2900470E-011  0.5052887E+02  0.7816164E-02  0.1300439E+00
        -11   -1    0    0    0    0  0.00000000000E+00  0.00000000000E+00  0.45593999997E+02  0.45594000000E+02  0.51100000000E-03 0.  1.
         11   -1    0    0    0    0 -0.00000000000E+00 -0.00000000000E+00 -0.45593999997E+02  0.45594000000E+02  0.51100000000E-03 0. -1.
    9900012    2    1    2    0    0 -0.14328506674E+02  0.13659346468E+02  0.35514522608E+02  0.50528866149E+02  0.30000019147E+02 0.  0.
         12    1    1    2    0    0  0.14328506674E+02 -0.13659346468E+02 -0.35514522608E+02  0.40659133851E+02  0.00000000000E+00 0. -1.
         11    1    3    3    0    0  0.46196747772E+01  0.10612899569E+01  0.15476784876E+01  0.49862852287E+01  0.51100000000E-03 0. -1.
        -11    1    3    3    0    0 -0.14908564236E+02 -0.11916519600E+01  0.23133557278E+02  0.27547173986E+02  0.51100000000E-03 0.  1.
        -12    1    3    3    0    0 -0.40396172151E+01  0.13789708471E+02  0.10833286842E+02  0.17995406935E+02  0.00000000000E+00 0.  1.
</event>
<event>
 7    1  0.2900470E-011  0.5052886E+02  0.7816164E-02  0.1300439E+00
        -11   -1    0    0    0    0  0.00000000000E+00  0.00000000000E+00  0.45593999997E+02  0.45594000000E+02  0.51100000000E-03 0. -1.
         11   -1    0    0    0    0 -0.00000000000E+00 -0.00000000000E+00 -0.45593999997E+02  0.45594000000E+02  0.51100000000E-03 0.  1.
    9900012    2    1    2    0    0  0.35517648474E+02 -0.18057284782E+02 -0.80991808449E+01  0.50528860595E+02  0.30000002265E+02 0.  0.
         12    1    1    2    0    0 -0.35517648474E+02  0.18057284782E+02  0.80991808449E+01  0.40659139405E+02  0.00000000000E+00 0. -1.
         11    1    3    3    0    0  0.25493530538E+02 -0.11980706012E+02 -0.15156619485E+02  0.31987193224E+02  0.51100000000E-03 0. -1.
        -11    1    3    3    0    0  0.57316187243E+01 -0.94854840674E+01  0.23790003253E+01  0.11335144640E+02  0.51100000000E-03 0.  1.
         12    1    3    3    0    0  0.42924992110E+01  0.34089052978E+01  0.46784383153E+01  0.72065227312E+01  0.00000000000E+00 0. -1.
</event>
<event>
 7    1  0.2900470E-011  0.5052887E+02  0.7816164E-02  0.1300439E+00
        -11   -1    0    0    0    0  0.00000000000E+00  0.00000000000E+00  0.45593999997E+02  0.45594000000E+02  0.51100000000E-03 0.  1.
         11   -1    0    0    0    0 -0.00000000000E+00 -0.00000000000E+00 -0.45593999997E+02  0.45594000000E+02  0.51100000000E-03 0. -1.
    9900012    2    1    2    0    0  0.39212730795E+02  0.29506464512E+01  0.10335380801E+02  0.50528872278E+02  0.30000037775E+02 0.  0.
         12    1    1    2    0    0 -0.39212730795E+02 -0.29506464512E+01 -0.10335380801E+02  0.40659127722E+02  0.00000000000E+00 0. -1.
         11    1    3    3    0    0  0.10479565725E+02  0.22729750358E+01  0.15933832795E+01  0.10840967846E+02  0.51100000000E-03 0. -1.
        -11    1    3    3    0    0 -0.48805238325E+01  0.14410623810E+01  0.10147133622E+01  0.51890092633E+01  0.51100000000E-03 0.  1.
        -12    1    3    3    0    0  0.33613688902E+02 -0.76339096552E+00  0.77272841594E+01  0.34498895168E+02  0.00000000000E+00 0.  1.
</event>
<event>
 7    1  0.2900470E-011  0.5052886E+02  0.7816164E-02  0.1300439E+00
        -11   -1    0    0    0    0  0.00000000000E+00  0.00000000000E+00  0.45593999997E+02  0.45594000000E+02  0.51100000000E-03 0.  1.
         11   -1    0    0    0    0 -0.00000000000E+00 -0.00000000000E+00 -0.45593999997E+02  0.45594000000E+02  0.51100000000E-03 0. -1.
    9900012    2    1    2    0    0  0.37286947043E+02  0.92530183589E+01  0.13312812982E+02  0.50528858863E+02  0.29999996999E+02 0.  0.
         12    1    1    2    0    0 -0.37286947043E+02 -0.92530183589E+01 -0.13312812982E+02  0.40659141137E+02  0.00000000000E+00 0. -1.
         11    1    3    3    0    0 -0.63090333808E+00  0.27933139177E+00 -0.65441181033E+01  0.65803911023E+01  0.51100000000E-03 0. -1.
        -11    1    3    3    0    0  0.34485070198E+02  0.86417549574E+01  0.19308404342E+02  0.40456327982E+02  0.51100000000E-03 0.  1.
        -12    1    3    3    0    0  0.34327801824E+01  0.33193200971E+00  0.54852674369E+00  0.34921397779E+01  0.00000000000E+00 0.  1.
</event>
<event>
 7    1  0.2900470E-011  0.5052888E+02  0.7816164E-02  0.1300439E+00
        -11   -1    0    0    0    0  0.00000000000E+00  0.00000000000E+00  0.45593999997E+02  0.45594000000E+02  0.51100000000E-03 0.  1.
         11   -1    0    0    0    0 -0.00000000000E+00 -0.00000000000E+00 -0.45593999997E+02  0.45594000000E+02  0.51100000000E-03 0. -1.
    9900012    2    1    2    0    0  0.20888824329E+02 -0.22281657970E+01  0.34811729690E+02  0.50528877670E+02  0.30000054166E+02 0.  0.
         12    1    1    2    0    0 -0.20888824329E+02  0.22281657970E+01 -0.34811729690E+02  0.40659122330E+02  0.00000000000E+00 0. -1.
         11    1    3    3    0    0  0.14591539248E+02 -0.90188097306E+01  0.41841052684E+01  0.17656689490E+02  0.51100000000E-03 0. -1.
        -11    1    3    3    0    0  0.53767333198E+01  0.15236402697E+01  0.90038538550E+01  0.10597175348E+02  0.51100000000E-03 0.  1.
         12    1    3    3    0    0  0.92055176106E+00  0.52670036640E+01  0.21623770566E+02  0.22275012831E+02  0.00000000000E+00 0. -1.
</event>
<event>
 7    1  0.2900470E-011  0.5052886E+02  0.7816164E-02  0.1300439E+00
        -11   -1    0    0    0    0  0.00000000000E+00  0.00000000000E+00  0.45593999997E+02  0.45594000000E+02  0.51100000000E-03 0. -1.
         11   -1    0    0    0    0 -0.00000000000E+00 -0.00000000000E+00 -0.45593999997E+02  0.45594000000E+02  0.51100000000E-03 0.  1.
    9900012    2    1    2    0    0  0.31596929647E+02 -0.15249227595E+02 -0.20548989889E+02  0.50528857229E+02  0.29999992034E+02 0.  0.
         12    1    1    2    0    0 -0.31596929647E+02  0.15249227595E+02  0.20548989889E+02  0.40659142771E+02  0.00000000000E+00 0. -1.
         11    1    3    3    0    0  0.10253502326E+02 -0.73765727358E+01  0.43304155493E+01  0.13352926060E+02  0.51100000000E-03 0. -1.
        -11    1    3    3    0    0  0.20656019103E+02 -0.12661690891E+01 -0.21001927486E+02  0.29484831146E+02  0.51100000000E-03 0.  1.
        -12    1    3    3    0    0  0.68740821903E+00 -0.66064857704E+01 -0.38774779521E+01  0.76911000230E+01  0.00000000000E+00 0.  1.
</event>
<event>
 7    1  0.2900470E-011  0.5052885E+02  0.7816164E-02  0.1300439E+00
        -11   -1    0    0    0    0  0.00000000000E+00  0.00000000000E+00  0.45593999997E+02  0.45594000000E+02  0.51100000000E-03 0.  1.
         11   -1    0    0    0    0 -0.00000000000E+00 -0.00000000000E+00 -0.45593999997E+02  0.45594000000E+02  0.51100000000E-03 0. -1.
    9900012    2    1    2    0    0  0.40008447165E+02  0.54897974964E+01  0.47278414124E+01  0.50528853359E+02  0.29999980271E+02 0.  0.
         12    1    1    2    0    0 -0.40008447165E+02 -0.54897974964E+01 -0.47278414124E+01  0.40659146641E+02  0.00000000000E+00 0. -1.
         11    1    3    3    0    0  0.59453985342E+01  0.29939310310E+01 -0.55282636353E+01  0.86529235425E+01  0.51100000000E-03 0. -1.
        -11    1    3    3    0    0  0.12686467121E+02  0.68711597659E+01  0.13569156195E+02  0.19806092110E+02  0.51100000000E-03 0.  1.
        -12    1    3    3    0    0  0.21376581510E+02 -0.43752933005E+01 -0.33130511476E+01  0.22069837707E+02  0.00000000000E+00 0.  1.
</event>
