<event>
 7    1  0.2328810E-008  0.4614232E+02  0.7816164E-02  0.1320468E+00
        -11   -1    0    0    0    0  0.00000000000E+00  0.00000000000E+00  0.45593999997E+02  0.45594000000E+02  0.51100000000E-03 0.  1.
         11   -1    0    0    0    0 -0.00000000000E+00 -0.00000000000E+00 -0.45593999997E+02  0.45594000000E+02  0.51100000000E-03 0. -1.
    9900012    2    1    2    0    0 -0.13476193331E+02  0.37303367093E+02  0.21353323628E+02  0.46142318596E+02  0.10000007612E+02 0.  0.
         12    1    1    2    0    0  0.13476193331E+02 -0.37303367093E+02 -0.21353323628E+02  0.45045681404E+02  0.00000000000E+00 0. -1.
         11    1    3    3    0    0 -0.23850680714E+00  0.64082406830E+01  0.42347976730E+01  0.76847866425E+01  0.51100000000E-03 0. -1.
        -11    1    3    3    0    0 -0.56499241581E+01  0.21296987138E+02  0.12804754712E+02  0.25484211732E+02  0.51100000000E-03 0.  1.
         12    1    3    3    0    0 -0.75877623655E+01  0.95981392727E+01  0.43137712433E+01  0.12973320221E+02  0.00000000000E+00 0. -1.
</event>
<event>
 7    1  0.2328810E-008  0.4614232E+02  0.7816164E-02  0.1320468E+00
        -11   -1    0    0    0    0  0.00000000000E+00  0.00000000000E+00  0.45593999997E+02  0.45594000000E+02  0.51100000000E-03 0.  1.
         11   -1    0    0    0    0 -0.00000000000E+00 -0.00000000000E+00 -0.45593999997E+02  0.45594000000E+02  0.51100000000E-03 0. -1.
    9900012    2    1    2    0    0 -0.32198290585E+02 -0.17501847937E+01  0.31453465237E+02  0.46142317201E+02  0.99999948913E+01 0.  0.
         12    1    1    2    0    0  0.32198290585E+02  0.17501847937E+01 -0.31453465237E+02  0.45045682799E+02  0.00000000000E+00 0. -1.
         11    1    3    3    0    0 -0.49744446936E+01 -0.94235314598E+00  0.68310840153E+01  0.85027547622E+01  0.51100000000E-03 0. -1.
        -11    1    3    3    0    0 -0.24263973264E+02 -0.14375570425E+01  0.24643022950E+02  0.34613372404E+02  0.51100000000E-03 0.  1.
         12    1    3    3    0    0 -0.29598726278E+01  0.62972539480E+00 -0.20641728153E-01  0.30261900348E+01  0.00000000000E+00 0. -1.
</event>
<event>
 7    1  0.2328810E-008  0.4614232E+02  0.7816164E-02  0.1320468E+00
        -11   -1    0    0    0    0  0.00000000000E+00  0.00000000000E+00  0.45593999997E+02  0.45594000000E+02  0.51100000000E-03 0.  1.
         11   -1    0    0    0    0 -0.00000000000E+00 -0.00000000000E+00 -0.45593999997E+02  0.45594000000E+02  0.51100000000E-03 0. -1.
    9900012    2    1    2    0    0  0.22980974499E+02 -0.38742308082E+02 -0.14784314623E+00  0.46142317831E+02  0.10000000635E+02 0.  0.
         12    1    1    2    0    0 -0.22980974499E+02  0.38742308082E+02  0.14784314623E+00  0.45045682169E+02  0.00000000000E+00 0. -1.
         11    1    3    3    0    0  0.26453337665E+01 -0.10446384597E+02 -0.90928694346E+00  0.10814413757E+02  0.51100000000E-03 0. -1.
        -11    1    3    3    0    0  0.91563955192E+01 -0.12391167097E+02  0.31969399518E+01  0.15735343220E+02  0.51100000000E-03 0.  1.
        -12    1    3    3    0    0  0.11179245214E+02 -0.15904756388E+02 -0.24354961546E+01  0.19592560854E+02  0.00000000000E+00 0.  1.
</event>
<event>
 7    1  0.2328810E-008  0.4614232E+02  0.7816164E-02  0.1320468E+00
        -11   -1    0    0    0    0  0.00000000000E+00  0.00000000000E+00  0.45593999997E+02  0.45594000000E+02  0.51100000000E-03 0.  1.
         11   -1    0    0    0    0 -0.00000000000E+00 -0.00000000000E+00 -0.45593999997E+02  0.45594000000E+02  0.51100000000E-03 0. -1.
    9900012    2    1    2    0    0  0.25230112692E+02  0.26789001214E+02  0.25978922302E+02  0.46142316783E+02  0.99999910853E+01 0.  0.
         12    1    1    2    0    0 -0.25230112692E+02 -0.26789001214E+02 -0.25978922302E+02  0.45045683217E+02  0.00000000000E+00 0. -1.
         11    1    3    3    0    0  0.33129465290E+01  0.43628928789E+01  0.80053553451E+01  0.97003176979E+01  0.51100000000E-03 0. -1.
        -11    1    3    3    0    0  0.18809918501E+02  0.20072890610E+02  0.13963884784E+02  0.30850025121E+02  0.51100000000E-03 0.  1.
         12    1    3    3    0    0  0.31072476615E+01  0.23532177254E+01  0.40096821730E+01  0.55919739647E+01  0.00000000000E+00 0. -1.
</event>
<event>
 7    1  0.2328810E-008  0.4614232E+02  0.7816164E-02  0.1320468E+00
        -11   -1    0    0    0    0  0.00000000000E+00  0.00000000000E+00  0.45593999997E+02  0.45594000000E+02  0.51100000000E-03 0.  1.
         11   -1    0    0    0    0 -0.00000000000E+00 -0.00000000000E+00 -0.45593999997E+02  0.45594000000E+02  0.51100000000E-03 0. -1.
    9900012    2    1    2    0    0 -0.29924889488E+02  0.30484702290E+02  0.14293267058E+02  0.46142316879E+02  0.99999919594E+01 0.  0.
         12    1    1    2    0    0  0.29924889488E+02 -0.30484702290E+02 -0.14293267058E+02  0.45045683121E+02  0.00000000000E+00 0. -1.
         11    1    3    3    0    0 -0.38857485765E+01  0.37975730043E+01  0.37087035437E+01  0.65783801166E+01  0.51100000000E-03 0. -1.
        -11    1    3    3    0    0 -0.25325860392E+01  0.56754654947E+01 -0.26585144528E+00  0.62205769732E+01  0.51100000000E-03 0.  1.
        -12    1    3    3    0    0 -0.23506554873E+02  0.21011663791E+02  0.10850414959E+02  0.33343359790E+02  0.00000000000E+00 0.  1.
</event>
<event>
 7    1  0.2328810E-008  0.4614231E+02  0.7816164E-02  0.1320468E+00
        -11   -1    0    0    0    0  0.00000000000E+00  0.00000000000E+00  0.45593999997E+02  0.45594000000E+02  0.51100000000E-03 0.  1.
         11   -1    0    0    0    0 -0.00000000000E+00 -0.00000000000E+00 -0.45593999997E+02  0.45594000000E+02  0.51100000000E-03 0. -1.
    9900012    2    1    2    0    0  0.26263334798E+02  0.27250502267E+02  0.24428696907E+02  0.46142313624E+02  0.99999622724E+01 0.  0.
         12    1    1    2    0    0 -0.26263334798E+02 -0.27250502267E+02 -0.24428696907E+02  0.45045686376E+02  0.00000000000E+00 0. -1.
         11    1    3    3    0    0  0.23730466146E+01  0.13726810760E+01  0.21810275115E+01  0.35032106472E+01  0.51100000000E-03 0. -1.
        -11    1    3    3    0    0  0.82135163489E+01  0.43995068920E+01  0.29143852049E+01  0.97627431130E+01  0.51100000000E-03 0.  1.
         12    1    3    3    0    0  0.15676771835E+02  0.21478314299E+02  0.19333284191E+02  0.32876359864E+02  0.00000000000E+00 0. -1.
</event>
<event>
 7    1  0.2328810E-008  0.4614232E+02  0.7816164E-02  0.1320468E+00
        -11   -1    0    0    0    0  0.00000000000E+00  0.00000000000E+00  0.45593999997E+02  0.45594000000E+02  0.51100000000E-03 0.  1.
         11   -1    0    0    0    0 -0.00000000000E+00 -0.00000000000E+00 -0.45593999997E+02  0.45594000000E+02  0.51100000000E-03 0. -1.
    9900012    2    1    2    0    0  0.20880379548E+02  0.76293043866E+01  0.39178011337E+02  0.46142321985E+02  0.10000038519E+02 0.  0.
         12    1    1    2    0    0 -0.20880379548E+02 -0.76293043866E+01 -0.39178011337E+02  0.45045678015E+02  0.00000000000E+00 0. -1.
         11    1    3    3    0    0 -0.59335561326E+00  0.79210848105E-01 -0.12184184446E+00  0.61089355736E+00  0.51100000000E-03 0. -1.
        -11    1    3    3    0    0  0.82679011169E+01  0.13314418913E+01  0.15269314757E+02  0.17415019374E+02  0.51100000000E-03 0.  1.
         12    1    3    3    0    0  0.13205834044E+02  0.62186516473E+01  0.24030538425E+02  0.28116409054E+02  0.00000000000E+00 0. -1.
</event>
<event>
 7    1  0.2328810E-008  0.4614232E+02  0.7816164E-02  0.1320468E+00
        -11   -1    0    0    0    0  0.00000000000E+00  0.00000000000E+00  0.45593999997E+02  0.45594000000E+02  0.51100000000E-03 0.  1.
         11   -1    0    0    0    0 -0.00000000000E+00 -0.00000000000E+00 -0.45593999997E+02  0.45594000000E+02  0.51100000000E-03 0. -1.
    9900012    2    1    2    0    0  0.20913776541E+01  0.19389907376E+02  0.40605065291E+02  0.46142315458E+02  0.99999789996E+01 0.  0.
         12    1    1    2    0    0 -0.20913776541E+01 -0.19389907376E+02 -0.40605065291E+02  0.45045684542E+02  0.00000000000E+00 0. -1.
         11    1    3    3    0    0  0.12092928167E+01  0.53750525170E+01  0.88240112902E+01  0.10402728209E+02  0.51100000000E-03 0. -1.
        -11    1    3    3    0    0  0.29111976905E+01  0.97425705918E+01  0.13767066790E+02  0.17115048407E+02  0.51100000000E-03 0.  1.
         12    1    3    3    0    0 -0.20291128532E+01  0.42722842674E+01  0.18013987211E+02  0.18624538842E+02  0.00000000000E+00 0. -1.
</event>
<event>
 7    1  0.2328810E-008  0.4614232E+02  0.7816164E-02  0.1320468E+00
        -11   -1    0    0    0    0  0.00000000000E+00  0.00000000000E+00  0.45593999997E+02  0.45594000000E+02  0.51100000000E-03 0. -1.
         11   -1    0    0    0    0 -0.00000000000E+00 -0.00000000000E+00 -0.45593999997E+02  0.45594000000E+02  0.51100000000E-03 0.  1.
    9900012    2    1    2    0    0 -0.19290309544E+02 -0.82214840677E+01 -0.39867337912E+02  0.46142317913E+02  0.10000001381E+02 0.  0.
         12    1    1    2    0    0  0.19290309544E+02  0.82214840677E+01  0.39867337912E+02  0.45045682087E+02  0.00000000000E+00 0. -1.
         11    1    3    3    0    0 -0.64463599221E+01 -0.79968136651E+01 -0.15604758308E+02  0.18681891423E+02  0.51100000000E-03 0. -1.
        -11    1    3    3    0    0 -0.85935015677E+01 -0.43717780815E+00 -0.16118314325E+02  0.18271273917E+02  0.51100000000E-03 0.  1.
         12    1    3    3    0    0 -0.42504480541E+01  0.21250740557E+00 -0.81442652788E+01  0.91891525719E+01  0.00000000000E+00 0. -1.
</event>
<event>
 7    1  0.2328810E-008  0.4614232E+02  0.7816164E-02  0.1320468E+00
        -11   -1    0    0    0    0  0.00000000000E+00  0.00000000000E+00  0.45593999997E+02  0.45594000000E+02  0.51100000000E-03 0. -1.
         11   -1    0    0    0    0 -0.00000000000E+00 -0.00000000000E+00 -0.45593999997E+02  0.45594000000E+02  0.51100000000E-03 0.  1.
    9900012    2    1    2    0    0  0.11370697483E+02  0.33945231886E+02 -0.27341207074E+02  0.46142321703E+02  0.10000035942E+02 0.  0.
         12    1    1    2    0    0 -0.11370697483E+02 -0.33945231886E+02  0.27341207074E+02  0.45045678297E+02  0.00000000000E+00 0. -1.
         11    1    3    3    0    0  0.28187506208E+01  0.17866153688E+01 -0.18024402840E+01  0.37929066396E+01  0.51100000000E-03 0. -1.
        -11    1    3    3    0    0  0.16017092930E+01  0.10832899580E+01 -0.16447230740E+01  0.25385239892E+01  0.51100000000E-03 0.  1.
        -12    1    3    3    0    0  0.69502375692E+01  0.31075326559E+02 -0.23894043716E+02  0.39810891074E+02  0.00000000000E+00 0.  1.
</event>
<event>
 7    1  0.2328810E-008  0.4614232E+02  0.7816164E-02  0.1320468E+00
        -11   -1    0    0    0    0  0.00000000000E+00  0.00000000000E+00  0.45593999997E+02  0.45594000000E+02  0.51100000000E-03 0.  1.
         11   -1    0    0    0    0 -0.00000000000E+00 -0.00000000000E+00 -0.45593999997E+02  0.45594000000E+02  0.51100000000E-03 0. -1.
    9900012    2    1    2    0    0  0.79656590530E+01  0.30824209869E+02  0.31867381120E+02  0.46142316326E+02  0.99999869171E+01 0.  0.
         12    1    1    2    0    0 -0.79656590530E+01 -0.30824209869E+02 -0.31867381120E+02  0.45045683674E+02  0.00000000000E+00 0. -1.
         11    1    3    3    0    0  0.16468301120E+01  0.76786415986E+01  0.79438933766E+01  0.11170453369E+02  0.51100000000E-03 0. -1.
        -11    1    3    3    0    0  0.43471213217E+01  0.23042169989E+02  0.21224694596E+02  0.31627942117E+02  0.51100000000E-03 0.  1.
         12    1    3    3    0    0  0.19717076192E+01  0.10339828126E+00  0.26987931473E+01  0.33439208412E+01  0.00000000000E+00 0. -1.
</event>
<event>
 7    1  0.2328810E-008  0.4614232E+02  0.7816164E-02  0.1320468E+00
        -11   -1    0    0    0    0  0.00000000000E+00  0.00000000000E+00  0.45593999997E+02  0.45594000000E+02  0.51100000000E-03 0. -1.
         11   -1    0    0    0    0 -0.00000000000E+00 -0.00000000000E+00 -0.45593999997E+02  0.45594000000E+02  0.51100000000E-03 0.  1.
    9900012    2    1    2    0    0  0.31607372722E+02  0.17393786951E+02 -0.26973017045E+02  0.46142317816E+02  0.10000000505E+02 0.  0.
         12    1    1    2    0    0 -0.31607372722E+02 -0.17393786951E+02  0.26973017045E+02  0.45045682184E+02  0.00000000000E+00 0. -1.
         11    1    3    3    0    0  0.78319330802E+01  0.35131552322E+01 -0.56548475423E+01  0.10279043557E+02  0.51100000000E-03 0.  1.
        -11    1    3    3    0    0  0.12172954458E+02  0.27588204154E+01 -0.68473346757E+01  0.14236498964E+02  0.51100000000E-03 0. -1.
         12    1    3    3    0    0  0.11602485184E+02  0.11121811304E+02 -0.14470834827E+02  0.21626775296E+02  0.00000000000E+00 0. -1.
</event>
<event>
 7    1  0.2328810E-008  0.4614232E+02  0.7816164E-02  0.1320468E+00
        -11   -1    0    0    0    0  0.00000000000E+00  0.00000000000E+00  0.45593999997E+02  0.45594000000E+02  0.51100000000E-03 0. -1.
         11   -1    0    0    0    0 -0.00000000000E+00 -0.00000000000E+00 -0.45593999997E+02  0.45594000000E+02  0.51100000000E-03 0.  1.
    9900012    2    1    2    0    0 -0.37718501465E+02 -0.22636116178E+02 -0.96971324922E+01  0.46142317777E+02  0.10000000142E+02 0.  0.
         12    1    1    2    0    0  0.37718501465E+02  0.22636116178E+02  0.96971324922E+01  0.45045682223E+02  0.00000000000E+00 0. -1.
         11    1    3    3    0    0 -0.64057607821E+01 -0.22316230961E+00 -0.13613359901E+01  0.65526184501E+01  0.51100000000E-03 0. -1.
        -11    1    3    3    0    0 -0.81917519445E+01 -0.38974357785E+01 -0.23274242098E+01  0.93654529672E+01  0.51100000000E-03 0.  1.
         12    1    3    3    0    0 -0.23120988738E+02 -0.18515518090E+02 -0.60083722924E+01  0.30224246359E+02  0.00000000000E+00 0. -1.
</event>
<event>
 7    1  0.2328810E-008  0.4614232E+02  0.7816164E-02  0.1320468E+00
        -11   -1    0    0    0    0  0.00000000000E+00  0.00000000000E+00  0.45593999997E+02  0.45594000000E+02  0.51100000000E-03 0.  1.
         11   -1    0    0    0    0 -0.00000000000E+00 -0.00000000000E+00 -0.45593999997E+02  0.45594000000E+02  0.51100000000E-03 0. -1.
    9900012    2    1    2    0    0  0.28764784056E+02  0.34343259045E+01  0.34495016444E+02  0.46142317014E+02  0.99999931859E+01 0.  0.
         12    1    1    2    0    0 -0.28764784056E+02 -0.34343259045E+01 -0.34495016444E+02  0.45045682986E+02  0.00000000000E+00 0. -1.
         11    1    3    3    0    0  0.49247029894E+01  0.33901342884E+01  0.10367558040E+02  0.11967955966E+02  0.51100000000E-03 0.  1.
        -11    1    3    3    0    0 -0.58719576206E-01  0.26017532460E+00  0.10079044330E+00  0.28512832680E+00  0.51100000000E-03 0. -1.
         12    1    3    3    0    0  0.23898800642E+02 -0.21598370850E+00  0.24026667961E+02  0.33889232721E+02  0.00000000000E+00 0. -1.
</event>
<event>
 7    1  0.2328810E-008  0.4614232E+02  0.7816164E-02  0.1320468E+00
        -11   -1    0    0    0    0  0.00000000000E+00  0.00000000000E+00  0.45593999997E+02  0.45594000000E+02  0.51100000000E-03 0.  1.
         11   -1    0    0    0    0 -0.00000000000E+00 -0.00000000000E+00 -0.45593999997E+02  0.45594000000E+02  0.51100000000E-03 0. -1.
    9900012    2    1    2    0    0 -0.25803198260E+02 -0.32539097475E+02  0.17450375976E+02  0.46142317336E+02  0.99999961276E+01 0.  0.
         12    1    1    2    0    0  0.25803198260E+02  0.32539097475E+02 -0.17450375976E+02  0.45045682664E+02  0.00000000000E+00 0. -1.
         11    1    3    3    0    0 -0.10756831740E+02 -0.10172021373E+02  0.10495190328E+02  0.18147409406E+02  0.51100000000E-03 0. -1.
        -11    1    3    3    0    0 -0.25943128027E+01 -0.34237251449E+01  0.22232400601E+01  0.48368532552E+01  0.51100000000E-03 0.  1.
         12    1    3    3    0    0 -0.12452053717E+02 -0.18943350957E+02  0.47319455877E+01  0.23158054675E+02  0.00000000000E+00 0. -1.
</event>
<event>
 7    1  0.2328810E-008  0.4614232E+02  0.7816164E-02  0.1320468E+00
        -11   -1    0    0    0    0  0.00000000000E+00  0.00000000000E+00  0.45593999997E+02  0.45594000000E+02  0.51100000000E-03 0.  1.
         11   -1    0    0    0    0 -0.00000000000E+00 -0.00000000000E+00 -0.45593999997E+02  0.45594000000E+02  0.51100000000E-03 0. -1.
    9900012    2    1    2    0    0  0.16773821556E+02  0.19852383065E+02  0.36791782874E+02  0.46142317744E+02  0.99999998409E+01 0.  0.
         12    1    1    2    0    0 -0.16773821556E+02 -0.19852383065E+02 -0.36791782874E+02  0.45045682256E+02  0.00000000000E+00 0. -1.
         11    1    3    3    0    0  0.98818969267E+01  0.89060785415E+01  0.15455420979E+02  0.20392159272E+02  0.51100000000E-03 0. -1.
        -11    1    3    3    0    0  0.18435204097E+01  0.86775140498E+01  0.12660550662E+02  0.15459216051E+02  0.51100000000E-03 0.  1.
        -12    1    3    3    0    0  0.50484042191E+01  0.22687904735E+01  0.86758112322E+01  0.10290942421E+02  0.00000000000E+00 0.  1.
</event>
<event>
 7    1  0.2328810E-008  0.4614232E+02  0.7816164E-02  0.1320468E+00
        -11   -1    0    0    0    0  0.00000000000E+00  0.00000000000E+00  0.45593999997E+02  0.45594000000E+02  0.51100000000E-03 0.  1.
         11   -1    0    0    0    0 -0.00000000000E+00 -0.00000000000E+00 -0.45593999997E+02  0.45594000000E+02  0.51100000000E-03 0. -1.
    9900012    2    1    2    0    0 -0.64554189579E+01  0.22802530557E+02  0.38307778144E+02  0.46142315411E+02  0.99999785704E+01 0.  0.
         12    1    1    2    0    0  0.64554189579E+01 -0.22802530557E+02 -0.38307778144E+02  0.45045684589E+02  0.00000000000E+00 0. -1.
         11    1    3    3    0    0 -0.82649946278E+00 -0.15824839695E+00  0.46448292582E+01  0.47204430953E+01  0.51100000000E-03 0.  1.
        -11    1    3    3    0    0 -0.23715562609E+01  0.35425072644E+01  0.41928466309E+01  0.59794314067E+01  0.51100000000E-03 0. -1.
        -12    1    3    3    0    0 -0.32573632342E+01  0.19418271690E+02  0.29470102255E+02  0.35442440909E+02  0.00000000000E+00 0.  1.
</event>
<event>
 7    1  0.2328810E-008  0.4614232E+02  0.7816164E-02  0.1320468E+00
        -11   -1    0    0    0    0  0.00000000000E+00  0.00000000000E+00  0.45593999997E+02  0.45594000000E+02  0.51100000000E-03 0.  1.
         11   -1    0    0    0    0 -0.00000000000E+00 -0.00000000000E+00 -0.45593999997E+02  0.45594000000E+02  0.51100000000E-03 0. -1.
    9900012    2    1    2    0    0  0.30827012713E+01 -0.41955281810E+02  0.16104806729E+02  0.46142317425E+02  0.99999969348E+01 0.  0.
         12    1    1    2    0    0 -0.30827012713E+01  0.41955281810E+02 -0.16104806729E+02  0.45045682575E+02  0.00000000000E+00 0. -1.
         11    1    3    3    0    0  0.50677680333E+01 -0.12825335068E+02  0.65271559860E+01  0.15256974077E+02  0.51100000000E-03 0. -1.
        -11    1    3    3    0    0 -0.19770569564E+01 -0.88950164585E+01  0.34440587753E+01  0.97412326281E+01  0.51100000000E-03 0.  1.
         12    1    3    3    0    0 -0.80098056026E-02 -0.20234930283E+02  0.61335919676E+01  0.21144110720E+02  0.00000000000E+00 0. -1.
</event>
<event>
 7    1  0.2328810E-008  0.4614232E+02  0.7816164E-02  0.1320468E+00
        -11   -1    0    0    0    0  0.00000000000E+00  0.00000000000E+00  0.45593999997E+02  0.45594000000E+02  0.51100000000E-03 0.  1.
         11   -1    0    0    0    0 -0.00000000000E+00 -0.00000000000E+00 -0.45593999997E+02  0.45594000000E+02  0.51100000000E-03 0. -1.
    9900012    2    1    2    0    0  0.22670275283E+00 -0.92762439180E+01  0.44079625413E+02  0.46142317943E+02  0.10000001661E+02 0.  0.
         12    1    1    2    0    0 -0.22670275283E+00  0.92762439180E+01 -0.44079625413E+02  0.45045682057E+02  0.00000000000E+00 0. -1.
         11    1    3    3    0    0 -0.48133051218E+00 -0.93343590962E+01  0.30981941564E+02  0.32361128568E+02  0.51100000000E-03 0. -1.
        -11    1    3    3    0    0  0.12128555918E+01 -0.73264921090E+00  0.12671983164E+02  0.12750958832E+02  0.51100000000E-03 0.  1.
         12    1    3    3    0    0 -0.50482232675E+00  0.79076438906E+00  0.42570068453E+00  0.10302305438E+01  0.00000000000E+00 0. -1.
</event>
<event>
 7    1  0.2328810E-008  0.4614232E+02  0.7816164E-02  0.1320468E+00
        -11   -1    0    0    0    0  0.00000000000E+00  0.00000000000E+00  0.45593999997E+02  0.45594000000E+02  0.51100000000E-03 0.  1.
         11   -1    0    0    0    0 -0.00000000000E+00 -0.00000000000E+00 -0.45593999997E+02  0.45594000000E+02  0.51100000000E-03 0. -1.
    9900012    2    1    2    0    0 -0.17125653194E+02 -0.36810114948E+02  0.19515146897E+02  0.46142317429E+02  0.99999969755E+01 0.  0.
         12    1    1    2    0    0  0.17125653194E+02  0.36810114948E+02 -0.19515146897E+02  0.45045682571E+02  0.00000000000E+00 0. -1.
         11    1    3    3    0    0 -0.18973750581E+01 -0.10177346558E+02  0.59239598981E+01  0.11927770798E+02  0.51100000000E-03 0. -1.
        -11    1    3    3    0    0 -0.65921792811E+01 -0.12776166343E+02  0.28098470556E+01  0.14648634573E+02  0.51100000000E-03 0.  1.
         12    1    3    3    0    0 -0.86360988552E+01 -0.13856602047E+02  0.10781339944E+02  0.19565912059E+02  0.00000000000E+00 0. -1.
</event>
<event>
 7    1  0.2328810E-008  0.4614232E+02  0.7816164E-02  0.1320468E+00
        -11   -1    0    0    0    0  0.00000000000E+00  0.00000000000E+00  0.45593999997E+02  0.45594000000E+02  0.51100000000E-03 0. -1.
         11   -1    0    0    0    0 -0.00000000000E+00 -0.00000000000E+00 -0.45593999997E+02  0.45594000000E+02  0.51100000000E-03 0.  1.
    9900012    2    1    2    0    0 -0.38783807762E+02  0.24497660387E+01 -0.22780001026E+02  0.46142317133E+02  0.99999942758E+01 0.  0.
         12    1    1    2    0    0  0.38783807762E+02 -0.24497660387E+01  0.22780001026E+02  0.45045682867E+02  0.00000000000E+00 0. -1.
         11    1    3    3    0    0 -0.13257970248E+02 -0.23758021840E+01 -0.66500089641E+01  0.15021345832E+02  0.51100000000E-03 0. -1.
        -11    1    3    3    0    0 -0.48302889105E+01  0.24214285763E+01 -0.13296143278E+01  0.55644300544E+01  0.51100000000E-03 0.  1.
        -12    1    3    3    0    0 -0.20695548604E+02  0.24041396464E+01 -0.14800377734E+02  0.25556541247E+02  0.00000000000E+00 0.  1.
</event>
<event>
 7    1  0.2328810E-008  0.4614232E+02  0.7816164E-02  0.1320468E+00
        -11   -1    0    0    0    0  0.00000000000E+00  0.00000000000E+00  0.45593999997E+02  0.45594000000E+02  0.51100000000E-03 0. -1.
         11   -1    0    0    0    0 -0.00000000000E+00 -0.00000000000E+00 -0.45593999997E+02  0.45594000000E+02  0.51100000000E-03 0.  1.
    9900012    2    1    2    0    0  0.38188329167E+02  0.21122883129E+01 -0.23797123510E+02  0.46142319476E+02  0.10000015638E+02 0.  0.
         12    1    1    2    0    0 -0.38188329167E+02 -0.21122883129E+01  0.23797123510E+02  0.45045680524E+02  0.00000000000E+00 0. -1.
         11    1    3    3    0    0  0.18236928619E+02 -0.19425023759E+01 -0.12919383540E+02  0.22433665600E+02  0.51100000000E-03 0. -1.
        -11    1    3    3    0    0  0.18263772402E+02  0.51958963515E+01 -0.93720436411E+01  0.21175408462E+02  0.51100000000E-03 0.  1.
        -12    1    3    3    0    0  0.16876281461E+01 -0.11411056628E+01 -0.15056963293E+01  0.25332454143E+01  0.00000000000E+00 0.  1.
</event>
<event>
 7    1  0.2328810E-008  0.4614232E+02  0.7816164E-02  0.1320468E+00
        -11   -1    0    0    0    0  0.00000000000E+00  0.00000000000E+00  0.45593999997E+02  0.45594000000E+02  0.51100000000E-03 0.  1.
         11   -1    0    0    0    0 -0.00000000000E+00 -0.00000000000E+00 -0.45593999997E+02  0.45594000000E+02  0.51100000000E-03 0. -1.
    9900012    2    1    2    0    0  0.18843110637E+02  0.64847705808E+01  0.40397999897E+02  0.46142318035E+02  0.10000002500E+02 0.  0.
         12    1    1    2    0    0 -0.18843110637E+02 -0.64847705808E+01 -0.40397999897E+02  0.45045681965E+02  0.00000000000E+00 0. -1.
         11    1    3    3    0    0 -0.26122161230E+00  0.12303601854E-01  0.41368361025E+01  0.41450936431E+01  0.51100000000E-03 0. -1.
        -11    1    3    3    0    0  0.34931760454E+01  0.33938474316E+01  0.53754368682E+01  0.72536750036E+01  0.51100000000E-03 0.  1.
        -12    1    3    3    0    0  0.15611156204E+02  0.30786195474E+01  0.30885726927E+02  0.34743549389E+02  0.00000000000E+00 0.  1.
</event>
<event>
 7    1  0.2328810E-008  0.4614232E+02  0.7816164E-02  0.1320468E+00
        -11   -1    0    0    0    0  0.00000000000E+00  0.00000000000E+00  0.45593999997E+02  0.45594000000E+02  0.51100000000E-03 0.  1.
         11   -1    0    0    0    0 -0.00000000000E+00 -0.00000000000E+00 -0.45593999997E+02  0.45594000000E+02  0.51100000000E-03 0. -1.
    9900012    2    1    2    0    0 -0.24850310535E+02  0.31025973880E+02  0.21188777663E+02  0.46142319988E+02  0.10000020307E+02 0.  0.
         12    1    1    2    0    0  0.24850310535E+02 -0.31025973880E+02 -0.21188777663E+02  0.45045680012E+02  0.00000000000E+00 0. -1.
         11    1    3    3    0    0 -0.93475017862E+01  0.10844717205E+02  0.40173245562E+01  0.14870190912E+02  0.51100000000E-03 0. -1.
        -11    1    3    3    0    0 -0.98306025871E+01  0.13786483503E+02  0.79748350989E+01  0.18716459861E+02  0.51100000000E-03 0.  1.
         12    1    3    3    0    0 -0.56722061615E+01  0.63947731715E+01  0.91966180080E+01  0.12555669215E+02  0.00000000000E+00 0. -1.
</event>
<event>
 7    1  0.2328810E-008  0.4614232E+02  0.7816164E-02  0.1320468E+00
        -11   -1    0    0    0    0  0.00000000000E+00  0.00000000000E+00  0.45593999997E+02  0.45594000000E+02  0.51100000000E-03 0. -1.
         11   -1    0    0    0    0 -0.00000000000E+00 -0.00000000000E+00 -0.45593999997E+02  0.45594000000E+02  0.51100000000E-03 0.  1.
    9900012    2    1    2    0    0  0.19500137954E+02 -0.12584945193E+02 -0.38606700564E+02  0.46142317030E+02  0.99999933370E+01 0.  0.
         12    1    1    2    0    0 -0.19500137954E+02  0.12584945193E+02  0.38606700564E+02  0.45045682970E+02  0.00000000000E+00 0. -1.
         11    1    3    3    0    0  0.13638635404E+02 -0.46835814968E+01 -0.20926393240E+02  0.25413819973E+02  0.51100000000E-03 0. -1.
        -11    1    3    3    0    0  0.54559367531E+01 -0.37737794315E+01 -0.11718442897E+02  0.13465903655E+02  0.51100000000E-03 0.  1.
        -12    1    3    3    0    0  0.40556579629E+00 -0.41275842648E+01 -0.59618644275E+01  0.72625934025E+01  0.00000000000E+00 0.  1.
</event>
<event>
 7    1  0.2328810E-008  0.4614232E+02  0.7816164E-02  0.1320468E+00
        -11   -1    0    0    0    0  0.00000000000E+00  0.00000000000E+00  0.45593999997E+02  0.45594000000E+02  0.51100000000E-03 0.  1.
         11   -1    0    0    0    0 -0.00000000000E+00 -0.00000000000E+00 -0.45593999997E+02  0.45594000000E+02  0.51100000000E-03 0. -1.
    9900012    2    1    2    0    0  0.20974345588E+02  0.31579812492E+02  0.24329114339E+02  0.46142317250E+02  0.99999953437E+01 0.  0.
         12    1    1    2    0    0 -0.20974345588E+02 -0.31579812492E+02 -0.24329114339E+02  0.45045682750E+02  0.00000000000E+00 0. -1.
         11    1    3    3    0    0  0.75031387555E+01  0.59668547822E+01  0.27427844019E+01  0.99711239944E+01  0.51100000000E-03 0. -1.
        -11    1    3    3    0    0  0.93400714116E+00  0.32259477095E+01  0.22495684563E+01  0.40422353302E+01  0.51100000000E-03 0.  1.
         12    1    3    3    0    0  0.12537199692E+02  0.22387010000E+02  0.19336761480E+02  0.32128957926E+02  0.00000000000E+00 0. -1.
</event>
<event>
 7    1  0.2328810E-008  0.4614232E+02  0.7816164E-02  0.1320468E+00
        -11   -1    0    0    0    0  0.00000000000E+00  0.00000000000E+00  0.45593999997E+02  0.45594000000E+02  0.51100000000E-03 0. -1.
         11   -1    0    0    0    0 -0.00000000000E+00 -0.00000000000E+00 -0.45593999997E+02  0.45594000000E+02  0.51100000000E-03 0.  1.
    9900012    2    1    2    0    0 -0.21538185263E+02 -0.12081644228E+02 -0.37672987473E+02  0.46142317224E+02  0.99999950983E+01 0.  0.
         12    1    1    2    0    0  0.21538185263E+02  0.12081644228E+02  0.37672987473E+02  0.45045682776E+02  0.00000000000E+00 0. -1.
         11    1    3    3    0    0 -0.17154717281E-01  0.85759070509E+00 -0.36799796789E+01  0.37786249880E+01  0.51100000000E-03 0. -1.
        -11    1    3    3    0    0 -0.15650747651E+02 -0.79159486106E+01 -0.22880798486E+02  0.28829482896E+02  0.51100000000E-03 0.  1.
         12    1    3    3    0    0 -0.58702828942E+01 -0.50232863222E+01 -0.11112209308E+02  0.13534209339E+02  0.00000000000E+00 0. -1.
</event>
<event>
 7    1  0.2328810E-008  0.4614232E+02  0.7816164E-02  0.1320468E+00
        -11   -1    0    0    0    0  0.00000000000E+00  0.00000000000E+00  0.45593999997E+02  0.45594000000E+02  0.51100000000E-03 0. -1.
         11   -1    0    0    0    0 -0.00000000000E+00 -0.00000000000E+00 -0.45593999997E+02  0.45594000000E+02  0.51100000000E-03 0.  1.
    9900012    2    1    2    0    0 -0.33065280489E+02 -0.24477084567E+02  0.18348654584E+02  0.46142316879E+02  0.99999919606E+01 0.  0.
         12    1    1    2    0    0  0.33065280489E+02  0.24477084567E+02 -0.18348654584E+02  0.45045683121E+02  0.00000000000E+00 0. -1.
         11    1    3    3    0    0 -0.69716819566E+01 -0.61111269523E+01  0.53096816054E+01  0.10683769978E+02  0.51100000000E-03 0. -1.
        -11    1    3    3    0    0 -0.96905806889E+01 -0.11541554246E+02  0.76024022053E+01  0.16879317168E+02  0.51100000000E-03 0.  1.
         12    1    3    3    0    0 -0.16403017843E+02 -0.68244033693E+01  0.54365707736E+01  0.18579229734E+02  0.00000000000E+00 0. -1.
</event>
<event>
 7    1  0.2328810E-008  0.4614232E+02  0.7816164E-02  0.1320468E+00
        -11   -1    0    0    0    0  0.00000000000E+00  0.00000000000E+00  0.45593999997E+02  0.45594000000E+02  0.51100000000E-03 0.  1.
         11   -1    0    0    0    0 -0.00000000000E+00 -0.00000000000E+00 -0.45593999997E+02  0.45594000000E+02  0.51100000000E-03 0. -1.
    9900012    2    1    2    0    0  0.18032647466E+02 -0.40956821007E+02 -0.51454719153E+01  0.46142318266E+02  0.10000004604E+02 0.  0.
         12    1    1    2    0    0 -0.18032647466E+02  0.40956821007E+02  0.51454719153E+01  0.45045681734E+02  0.00000000000E+00 0. -1.
         11    1    3    3    0    0  0.68391272524E+01 -0.86390409803E+01 -0.19826165233E+01  0.11195421349E+02  0.51100000000E-03 0. -1.
        -11    1    3    3    0    0  0.11115534932E+02 -0.25535927153E+02 -0.11574751371E+01  0.27874333020E+02  0.51100000000E-03 0.  1.
         12    1    3    3    0    0  0.77985281599E-01 -0.67818528741E+01 -0.20053802549E+01  0.70725638970E+01  0.00000000000E+00 0. -1.
</event>
<event>
 7    1  0.2328810E-008  0.4614232E+02  0.7816164E-02  0.1320468E+00
        -11   -1    0    0    0    0  0.00000000000E+00  0.00000000000E+00  0.45593999997E+02  0.45594000000E+02  0.51100000000E-03 0.  1.
         11   -1    0    0    0    0 -0.00000000000E+00 -0.00000000000E+00 -0.45593999997E+02  0.45594000000E+02  0.51100000000E-03 0. -1.
    9900012    2    1    2    0    0  0.25436744339E+02 -0.13941934803E+02  0.34463141019E+02  0.46142316549E+02  0.99999889509E+01 0.  0.
         12    1    1    2    0    0 -0.25436744339E+02  0.13941934803E+02 -0.34463141019E+02  0.45045683451E+02  0.00000000000E+00 0. -1.
         11    1    3    3    0    0  0.74652171927E+01 -0.13004069448E+01  0.71234274629E+01  0.10400180048E+02  0.51100000000E-03 0. -1.
        -11    1    3    3    0    0  0.12099923575E+02 -0.43515635678E+01  0.14892595079E+02  0.19675712045E+02  0.51100000000E-03 0.  1.
        -12    1    3    3    0    0  0.58716035710E+01 -0.82899642903E+01  0.12447118477E+02  0.16066424457E+02  0.00000000000E+00 0.  1.
</event>
<event>
 7    1  0.2328810E-008  0.4614231E+02  0.7816164E-02  0.1320468E+00
        -11   -1    0    0    0    0  0.00000000000E+00  0.00000000000E+00  0.45593999997E+02  0.45594000000E+02  0.51100000000E-03 0. -1.
         11   -1    0    0    0    0 -0.00000000000E+00 -0.00000000000E+00 -0.45593999997E+02  0.45594000000E+02  0.51100000000E-03 0.  1.
    9900012    2    1    2    0    0  0.15337698628E+02  0.39455494284E+02 -0.15399116001E+02  0.46142314280E+02  0.99999682559E+01 0.  0.
         12    1    1    2    0    0 -0.15337698628E+02 -0.39455494284E+02  0.15399116001E+02  0.45045685720E+02  0.00000000000E+00 0. -1.
         11    1    3    3    0    0  0.12399196276E+01  0.89594503120E+01 -0.60576725604E+00  0.90651036843E+01  0.51100000000E-03 0. -1.
        -11    1    3    3    0    0  0.11352347355E+02  0.24922386207E+02 -0.14164433173E+02  0.30832325441E+02  0.51100000000E-03 0.  1.
        -12    1    3    3    0    0  0.27454316455E+01  0.55736577651E+01 -0.62891557141E+00  0.62448851549E+01  0.00000000000E+00 0.  1.
</event>
<event>
 7    1  0.2328810E-008  0.4614232E+02  0.7816164E-02  0.1320468E+00
        -11   -1    0    0    0    0  0.00000000000E+00  0.00000000000E+00  0.45593999997E+02  0.45594000000E+02  0.51100000000E-03 0. -1.
         11   -1    0    0    0    0 -0.00000000000E+00 -0.00000000000E+00 -0.45593999997E+02  0.45594000000E+02  0.51100000000E-03 0.  1.
    9900012    2    1    2    0    0 -0.44311567292E+02  0.72078375687E+01 -0.36939895170E+01  0.46142317889E+02  0.10000001164E+02 0.  0.
         12    1    1    2    0    0  0.44311567292E+02 -0.72078375687E+01  0.36939895170E+01  0.45045682111E+02  0.00000000000E+00 0. -1.
         11    1    3    3    0    0 -0.38672914138E+01 -0.12580512975E+01  0.97361714804E+00  0.41816942210E+01  0.51100000000E-03 0. -1.
        -11    1    3    3    0    0 -0.27240440798E+02  0.30111316226E+01 -0.26866393151E+01  0.27537729747E+02  0.51100000000E-03 0.  1.
        -12    1    3    3    0    0 -0.13203835080E+02  0.54547572436E+01 -0.19809673500E+01  0.14422893921E+02  0.00000000000E+00 0.  1.
</event>
<event>
 7    1  0.2328810E-008  0.4614232E+02  0.7816164E-02  0.1320468E+00
        -11   -1    0    0    0    0  0.00000000000E+00  0.00000000000E+00  0.45593999997E+02  0.45594000000E+02  0.51100000000E-03 0.  1.
         11   -1    0    0    0    0 -0.00000000000E+00 -0.00000000000E+00 -0.45593999997E+02  0.45594000000E+02  0.51100000000E-03 0. -1.
    9900012    2    1    2    0    0  0.27269764750E+02 -0.34300037080E+02  0.10439396250E+02  0.46142316441E+02  0.99999879595E+01 0.  0.
         12    1    1    2    0    0 -0.27269764750E+02  0.34300037080E+02 -0.10439396250E+02  0.45045683559E+02  0.00000000000E+00 0. -1.
         11    1    3    3    0    0  0.37990959133E+01 -0.51890882919E+01  0.49847193190E+00  0.64504450690E+01  0.51100000000E-03 0. -1.
        -11    1    3    3    0    0  0.21277216991E+01 -0.54677468762E+01 -0.11225727707E+01  0.59735772714E+01  0.51100000000E-03 0.  1.
        -12    1    3    3    0    0  0.21342947138E+02 -0.23643201912E+02  0.11063497089E+02  0.33718294100E+02  0.00000000000E+00 0.  1.
</event>
<event>
 7    1  0.2328810E-008  0.4614232E+02  0.7816164E-02  0.1320468E+00
        -11   -1    0    0    0    0  0.00000000000E+00  0.00000000000E+00  0.45593999997E+02  0.45594000000E+02  0.51100000000E-03 0.  1.
         11   -1    0    0    0    0 -0.00000000000E+00 -0.00000000000E+00 -0.45593999997E+02  0.45594000000E+02  0.51100000000E-03 0. -1.
    9900012    2    1    2    0    0 -0.20701844035E+02 -0.39171721329E+02 -0.81316062358E+01  0.46142321869E+02  0.10000037455E+02 0.  0.
         12    1    1    2    0    0  0.20701844035E+02  0.39171721329E+02  0.81316062358E+01  0.45045678131E+02  0.00000000000E+00 0. -1.
         11    1    3    3    0    0  0.53112858680E+00 -0.49067457623E+01 -0.10849370378E+01  0.50532504578E+01  0.51100000000E-03 0. -1.
        -11    1    3    3    0    0 -0.60260128477E+01 -0.12971900111E+02 -0.20267786924E+01  0.14446136351E+02  0.51100000000E-03 0.  1.
        -12    1    3    3    0    0 -0.15206959774E+02 -0.21293075456E+02 -0.50198905055E+01  0.26642935060E+02  0.00000000000E+00 0.  1.
</event>
<event>
 7    1  0.2328810E-008  0.4614232E+02  0.7816164E-02  0.1320468E+00
        -11   -1    0    0    0    0  0.00000000000E+00  0.00000000000E+00  0.45593999997E+02  0.45594000000E+02  0.51100000000E-03 0.  1.
         11   -1    0    0    0    0 -0.00000000000E+00 -0.00000000000E+00 -0.45593999997E+02  0.45594000000E+02  0.51100000000E-03 0. -1.
    9900012    2    1    2    0    0 -0.27631286229E+02 -0.62507050020E+01  0.35022196104E+02  0.46142317503E+02  0.99999976450E+01 0.  0.
         12    1    1    2    0    0  0.27631286229E+02  0.62507050020E+01 -0.35022196104E+02  0.45045682497E+02  0.00000000000E+00 0. -1.
         11    1    3    3    0    0 -0.13327233854E+01 -0.18991439567E+01  0.21757321196E+01  0.31806775862E+01  0.51100000000E-03 0. -1.
        -11    1    3    3    0    0 -0.11453039089E+02 -0.33947616708E+01  0.94290402661E+01  0.15218518712E+02  0.51100000000E-03 0.  1.
         12    1    3    3    0    0 -0.14845523755E+02 -0.95679937447E+00  0.23417423718E+02  0.27743121205E+02  0.00000000000E+00 0. -1.
</event>
<event>
 7    1  0.2328810E-008  0.4614232E+02  0.7816164E-02  0.1320468E+00
        -11   -1    0    0    0    0  0.00000000000E+00  0.00000000000E+00  0.45593999997E+02  0.45594000000E+02  0.51100000000E-03 0.  1.
         11   -1    0    0    0    0 -0.00000000000E+00 -0.00000000000E+00 -0.45593999997E+02  0.45594000000E+02  0.51100000000E-03 0. -1.
    9900012    2    1    2    0    0  0.11195985083E+02  0.29342177317E+02  0.32292413639E+02  0.46142318405E+02  0.10000005870E+02 0.  0.
         12    1    1    2    0    0 -0.11195985083E+02 -0.29342177317E+02 -0.32292413639E+02  0.45045681595E+02  0.00000000000E+00 0. -1.
         11    1    3    3    0    0  0.10694501608E+01  0.64820965094E+01  0.52989378871E+01  0.84403816144E+01  0.51100000000E-03 0. -1.
        -11    1    3    3    0    0  0.83853076986E+01  0.22957094796E+02  0.26045222275E+02  0.35716875427E+02  0.51100000000E-03 0.  1.
        -12    1    3    3    0    0  0.17412272238E+01 -0.97013987648E-01  0.94825347711E+00  0.19850613632E+01  0.00000000000E+00 0.  1.
</event>
<event>
 7    1  0.2328810E-008  0.4614232E+02  0.7816164E-02  0.1320468E+00
        -11   -1    0    0    0    0  0.00000000000E+00  0.00000000000E+00  0.45593999997E+02  0.45594000000E+02  0.51100000000E-03 0.  1.
         11   -1    0    0    0    0 -0.00000000000E+00 -0.00000000000E+00 -0.45593999997E+02  0.45594000000E+02  0.51100000000E-03 0. -1.
    9900012    2    1    2    0    0  0.45500502832E+01 -0.17395927345E+02  0.41301236620E+02  0.46142318830E+02  0.10000009747E+02 0.  0.
         12    1    1    2    0    0 -0.45500502832E+01  0.17395927345E+02 -0.41301236620E+02  0.45045681170E+02  0.00000000000E+00 0. -1.
         11    1    3    3    0    0 -0.13975967201E+01 -0.20272819415E+01  0.14660197598E+01  0.28657220486E+01  0.51100000000E-03 0. -1.
        -11    1    3    3    0    0  0.37019305555E+01 -0.48230340315E+01  0.12798088364E+02  0.14168874802E+02  0.51100000000E-03 0.  1.
        -12    1    3    3    0    0  0.22457164478E+01 -0.10545611372E+02  0.27037128495E+02  0.29107721980E+02  0.00000000000E+00 0.  1.
</event>
<event>
 7    1  0.2328810E-008  0.4614232E+02  0.7816164E-02  0.1320468E+00
        -11   -1    0    0    0    0  0.00000000000E+00  0.00000000000E+00  0.45593999997E+02  0.45594000000E+02  0.51100000000E-03 0.  1.
         11   -1    0    0    0    0 -0.00000000000E+00 -0.00000000000E+00 -0.45593999997E+02  0.45594000000E+02  0.51100000000E-03 0. -1.
    9900012    2    1    2    0    0 -0.28215127551E+02 -0.20023377846E+02  0.28845876128E+02  0.46142315937E+02  0.99999833699E+01 0.  0.
         12    1    1    2    0    0  0.28215127551E+02  0.20023377846E+02 -0.28845876128E+02  0.45045684063E+02  0.00000000000E+00 0. -1.
         11    1    3    3    0    0 -0.73244963718E+01 -0.39333466904E+01  0.95893807969E+01  0.12691559700E+02  0.51100000000E-03 0. -1.
        -11    1    3    3    0    0 -0.12211885746E+02 -0.77760854217E+01  0.14602080230E+02  0.20562548608E+02  0.51100000000E-03 0.  1.
         12    1    3    3    0    0 -0.86787454333E+01 -0.83139457344E+01  0.46544151009E+01  0.12888207630E+02  0.00000000000E+00 0. -1.
</event>
<event>
 7    1  0.2328810E-008  0.4614232E+02  0.7816164E-02  0.1320468E+00
        -11   -1    0    0    0    0  0.00000000000E+00  0.00000000000E+00  0.45593999997E+02  0.45594000000E+02  0.51100000000E-03 0.  1.
         11   -1    0    0    0    0 -0.00000000000E+00 -0.00000000000E+00 -0.45593999997E+02  0.45594000000E+02  0.51100000000E-03 0. -1.
    9900012    2    1    2    0    0 -0.38595701577E+02  0.79992092428E+01  0.21805913481E+02  0.46142318836E+02  0.10000009803E+02 0.  0.
         12    1    1    2    0    0  0.38595701577E+02 -0.79992092428E+01 -0.21805913481E+02  0.45045681164E+02  0.00000000000E+00 0. -1.
         11    1    3    3    0    0 -0.16986633572E+02  0.29601964307E+01  0.76127103733E+01  0.18848390979E+02  0.51100000000E-03 0. -1.
        -11    1    3    3    0    0 -0.20340021177E+02  0.65106917072E+01  0.12746199167E+02  0.24871090878E+02  0.51100000000E-03 0.  1.
         12    1    3    3    0    0 -0.12690468290E+01 -0.14716788952E+01  0.14470039409E+01  0.24228369796E+01  0.00000000000E+00 0. -1.
</event>
<event>
 7    1  0.2328810E-008  0.4614232E+02  0.7816164E-02  0.1320468E+00
        -11   -1    0    0    0    0  0.00000000000E+00  0.00000000000E+00  0.45593999997E+02  0.45594000000E+02  0.51100000000E-03 0. -1.
         11   -1    0    0    0    0 -0.00000000000E+00 -0.00000000000E+00 -0.45593999997E+02  0.45594000000E+02  0.51100000000E-03 0.  1.
    9900012    2    1    2    0    0  0.25466507721E+02  0.19022745386E+02 -0.31917169107E+02  0.46142317173E+02  0.99999946389E+01 0.  0.
         12    1    1    2    0    0 -0.25466507721E+02 -0.19022745386E+02  0.31917169107E+02  0.45045682827E+02  0.00000000000E+00 0. -1.
         11    1    3    3    0    0  0.17278165320E+01 -0.99981996648E+00 -0.22573542526E+01  0.30134097658E+01  0.51100000000E-03 0. -1.
        -11    1    3    3    0    0  0.16448883525E+02  0.12574943534E+02 -0.17461853851E+02  0.27085260093E+02  0.51100000000E-03 0.  1.
         12    1    3    3    0    0  0.72898076647E+01  0.74476218190E+01 -0.12197961002E+02  0.16043647315E+02  0.00000000000E+00 0. -1.
</event>
<event>
 7    1  0.2328810E-008  0.4614232E+02  0.7816164E-02  0.1320468E+00
        -11   -1    0    0    0    0  0.00000000000E+00  0.00000000000E+00  0.45593999997E+02  0.45594000000E+02  0.51100000000E-03 0.  1.
         11   -1    0    0    0    0 -0.00000000000E+00 -0.00000000000E+00 -0.45593999997E+02  0.45594000000E+02  0.51100000000E-03 0. -1.
    9900012    2    1    2    0    0 -0.38615118105E+02  0.22030682899E+02  0.72549708496E+01  0.46142323878E+02  0.10000055775E+02 0.  0.
         12    1    1    2    0    0  0.38615118105E+02 -0.22030682899E+02 -0.72549708496E+01  0.45045676122E+02  0.00000000000E+00 0. -1.
         11    1    3    3    0    0 -0.32918357874E+02  0.21429918419E+02  0.55534461410E+01  0.39669893532E+02  0.51100000000E-03 0. -1.
        -11    1    3    3    0    0 -0.42664555212E+01  0.12509214144E+01  0.45966298423E+00  0.44697580941E+01  0.51100000000E-03 0.  1.
         12    1    3    3    0    0 -0.14303047101E+01 -0.65015693431E+00  0.12418617244E+01  0.20026722511E+01  0.00000000000E+00 0. -1.
</event>
<event>
 7    1  0.2328810E-008  0.4614232E+02  0.7816164E-02  0.1320468E+00
        -11   -1    0    0    0    0  0.00000000000E+00  0.00000000000E+00  0.45593999997E+02  0.45594000000E+02  0.51100000000E-03 0.  1.
         11   -1    0    0    0    0 -0.00000000000E+00 -0.00000000000E+00 -0.45593999997E+02  0.45594000000E+02  0.51100000000E-03 0. -1.
    9900012    2    1    2    0    0 -0.10728863518E+02 -0.11132797674E+02  0.42309170353E+02  0.46142316606E+02  0.99999894701E+01 0.  0.
         12    1    1    2    0    0  0.10728863518E+02  0.11132797674E+02 -0.42309170353E+02  0.45045683394E+02  0.00000000000E+00 0. -1.
         11    1    3    3    0    0 -0.21861357256E+01 -0.49033215258E+01  0.10825406590E+02  0.12083508575E+02  0.51100000000E-03 0. -1.
        -11    1    3    3    0    0 -0.15244855218E+01 -0.13850688730E+01  0.17913007355E+02  0.18031037260E+02  0.51100000000E-03 0.  1.
        -12    1    3    3    0    0 -0.70182422701E+01 -0.48444072753E+01  0.13570756408E+02  0.16027770772E+02  0.00000000000E+00 0.  1.
</event>
<event>
 7    1  0.2328810E-008  0.4614232E+02  0.7816164E-02  0.1320468E+00
        -11   -1    0    0    0    0  0.00000000000E+00  0.00000000000E+00  0.45593999997E+02  0.45594000000E+02  0.51100000000E-03 0. -1.
         11   -1    0    0    0    0 -0.00000000000E+00 -0.00000000000E+00 -0.45593999997E+02  0.45594000000E+02  0.51100000000E-03 0.  1.
    9900012    2    1    2    0    0  0.39307784804E+02  0.21846365566E+02 -0.25976571367E+01  0.46142318107E+02  0.10000003150E+02 0.  0.
         12    1    1    2    0    0 -0.39307784804E+02 -0.21846365566E+02  0.25976571367E+01  0.45045681893E+02  0.00000000000E+00 0. -1.
         11    1    3    3    0    0  0.62170955612E+01  0.20232346171E+01 -0.19561369706E+01  0.68243847812E+01  0.51100000000E-03 0. -1.
        -11    1    3    3    0    0  0.24681135236E+02  0.17844953617E+02 -0.22139935012E+01  0.30536905109E+02  0.51100000000E-03 0.  1.
        -12    1    3    3    0    0  0.84095540071E+01  0.19781773315E+01  0.15724733352E+01  0.87810282167E+01  0.00000000000E+00 0.  1.
</event>
<event>
 7    1  0.2328810E-008  0.4614232E+02  0.7816164E-02  0.1320468E+00
        -11   -1    0    0    0    0  0.00000000000E+00  0.00000000000E+00  0.45593999997E+02  0.45594000000E+02  0.51100000000E-03 0.  1.
         11   -1    0    0    0    0 -0.00000000000E+00 -0.00000000000E+00 -0.45593999997E+02  0.45594000000E+02  0.51100000000E-03 0. -1.
    9900012    2    1    2    0    0 -0.13149228675E+02  0.36904145877E+02  0.22232753676E+02  0.46142317258E+02  0.99999954143E+01 0.  0.
         12    1    1    2    0    0  0.13149228675E+02 -0.36904145877E+02 -0.22232753676E+02  0.45045682742E+02  0.00000000000E+00 0. -1.
         11    1    3    3    0    0 -0.82260139117E+01  0.13076762796E+02  0.63773632534E+01  0.16713461414E+02  0.51100000000E-03 0. -1.
        -11    1    3    3    0    0  0.21297818312E+00 -0.24532610974E-01  0.63935473563E+00  0.67434137837E+00  0.51100000000E-03 0.  1.
        -12    1    3    3    0    0 -0.51361929459E+01  0.23851915692E+02  0.15216035687E+02  0.28754514466E+02  0.00000000000E+00 0.  1.
</event>
<event>
 7    1  0.2328810E-008  0.4614232E+02  0.7816164E-02  0.1320468E+00
        -11   -1    0    0    0    0  0.00000000000E+00  0.00000000000E+00  0.45593999997E+02  0.45594000000E+02  0.51100000000E-03 0.  1.
         11   -1    0    0    0    0 -0.00000000000E+00 -0.00000000000E+00 -0.45593999997E+02  0.45594000000E+02  0.51100000000E-03 0. -1.
    9900012    2    1    2    0    0  0.29107618409E+02 -0.25427943715E+02  0.23136112610E+02  0.46142317879E+02  0.10000001078E+02 0.  0.
         12    1    1    2    0    0 -0.29107618409E+02  0.25427943715E+02 -0.23136112610E+02  0.45045682121E+02  0.00000000000E+00 0. -1.
         11    1    3    3    0    0  0.46504653352E+01 -0.83931149934E+01  0.51800807510E+01  0.10904331432E+02  0.51100000000E-03 0. -1.
        -11    1    3    3    0    0  0.16662021461E+01 -0.95334880556E+00 -0.23950890419E+00  0.19345460224E+01  0.51100000000E-03 0.  1.
        -12    1    3    3    0    0  0.22790950928E+02 -0.16081479916E+02  0.18195540763E+02  0.33303440425E+02  0.00000000000E+00 0.  1.
</event>
<event>
 7    1  0.2328810E-008  0.4614232E+02  0.7816164E-02  0.1320468E+00
        -11   -1    0    0    0    0  0.00000000000E+00  0.00000000000E+00  0.45593999997E+02  0.45594000000E+02  0.51100000000E-03 0.  1.
         11   -1    0    0    0    0 -0.00000000000E+00 -0.00000000000E+00 -0.45593999997E+02  0.45594000000E+02  0.51100000000E-03 0. -1.
    9900012    2    1    2    0    0 -0.14078088464E+02 -0.48591027046E+01  0.42512469541E+02  0.46142317406E+02  0.99999967651E+01 0.  0.
         12    1    1    2    0    0  0.14078088464E+02  0.48591027046E+01 -0.42512469541E+02  0.45045682594E+02  0.00000000000E+00 0. -1.
         11    1    3    3    0    0 -0.84424545987E+01  0.84864054364E+00  0.14299178186E+02  0.16627138283E+02  0.51100000000E-03 0. -1.
        -11    1    3    3    0    0 -0.37788665975E+01 -0.23406542314E+01  0.10734234414E+02  0.11618187626E+02  0.51100000000E-03 0.  1.
         12    1    3    3    0    0 -0.18567672675E+01 -0.33670890168E+01  0.17479056940E+02  0.17896991497E+02  0.00000000000E+00 0. -1.
</event>
<event>
 7    1  0.2328810E-008  0.4614232E+02  0.7816164E-02  0.1320468E+00
        -11   -1    0    0    0    0  0.00000000000E+00  0.00000000000E+00  0.45593999997E+02  0.45594000000E+02  0.51100000000E-03 0. -1.
         11   -1    0    0    0    0 -0.00000000000E+00 -0.00000000000E+00 -0.45593999997E+02  0.45594000000E+02  0.51100000000E-03 0.  1.
    9900012    2    1    2    0    0 -0.89775942812E+01  0.21949202030E+02 -0.38298157429E+02  0.46142317285E+02  0.99999956546E+01 0.  0.
         12    1    1    2    0    0  0.89775942812E+01 -0.21949202030E+02  0.38298157429E+02  0.45045682715E+02  0.00000000000E+00 0. -1.
         11    1    3    3    0    0 -0.53603629870E+01  0.11601572151E+02 -0.12748583732E+02  0.18051491771E+02  0.51100000000E-03 0. -1.
        -11    1    3    3    0    0 -0.13414574150E+01  0.31415944339E+01 -0.13003110917E+02  0.13444330306E+02  0.51100000000E-03 0.  1.
         12    1    3    3    0    0 -0.22757738792E+01  0.72060354451E+01 -0.12546462780E+02  0.14646495207E+02  0.00000000000E+00 0. -1.
</event>
<event>
 7    1  0.2328810E-008  0.4614232E+02  0.7816164E-02  0.1320468E+00
        -11   -1    0    0    0    0  0.00000000000E+00  0.00000000000E+00  0.45593999997E+02  0.45594000000E+02  0.51100000000E-03 0.  1.
         11   -1    0    0    0    0 -0.00000000000E+00 -0.00000000000E+00 -0.45593999997E+02  0.45594000000E+02  0.51100000000E-03 0. -1.
    9900012    2    1    2    0    0 -0.32120799396E+02 -0.14992182902E+02  0.27795721084E+02  0.46142318602E+02  0.10000007667E+02 0.  0.
         12    1    1    2    0    0  0.32120799396E+02  0.14992182902E+02 -0.27795721084E+02  0.45045681398E+02  0.00000000000E+00 0. -1.
         11    1    3    3    0    0 -0.20729459485E+01 -0.64727679484E+00 -0.17056175681E+00  0.21783396724E+01  0.51100000000E-03 0. -1.
        -11    1    3    3    0    0 -0.87403361948E+01 -0.39414072459E+01  0.44563000281E+01  0.10572926656E+02  0.51100000000E-03 0.  1.
        -12    1    3    3    0    0 -0.21307517253E+02 -0.10403498861E+02  0.23509982813E+02  0.33391052273E+02  0.00000000000E+00 0.  1.
</event>
<event>
 7    1  0.2328810E-008  0.4614232E+02  0.7816164E-02  0.1320468E+00
        -11   -1    0    0    0    0  0.00000000000E+00  0.00000000000E+00  0.45593999997E+02  0.45594000000E+02  0.51100000000E-03 0.  1.
         11   -1    0    0    0    0 -0.00000000000E+00 -0.00000000000E+00 -0.45593999997E+02  0.45594000000E+02  0.51100000000E-03 0. -1.
    9900012    2    1    2    0    0 -0.34952553529E+02 -0.11136316404E+02  0.26142205370E+02  0.46142318266E+02  0.10000004606E+02 0.  0.
         12    1    1    2    0    0  0.34952553529E+02  0.11136316404E+02 -0.26142205370E+02  0.45045681734E+02  0.00000000000E+00 0. -1.
         11    1    3    3    0    0 -0.57373928084E+01 -0.24364797198E+01  0.20950419761E+01  0.65759646293E+01  0.51100000000E-03 0. -1.
        -11    1    3    3    0    0 -0.56487825553E+01 -0.47518537618E+01  0.73416998155E+01  0.10411023724E+02  0.51100000000E-03 0.  1.
         12    1    3    3    0    0 -0.23566378165E+02 -0.39479829227E+01  0.16705463579E+02  0.29155329913E+02  0.00000000000E+00 0. -1.
</event>
<event>
 7    1  0.2328810E-008  0.4614232E+02  0.7816164E-02  0.1320468E+00
        -11   -1    0    0    0    0  0.00000000000E+00  0.00000000000E+00  0.45593999997E+02  0.45594000000E+02  0.51100000000E-03 0.  1.
         11   -1    0    0    0    0 -0.00000000000E+00 -0.00000000000E+00 -0.45593999997E+02  0.45594000000E+02  0.51100000000E-03 0. -1.
    9900012    2    1    2    0    0 -0.35514701107E+02  0.10705271318E+02  0.25558104681E+02  0.46142317148E+02  0.99999944079E+01 0.  0.
         12    1    1    2    0    0  0.35514701107E+02 -0.10705271318E+02 -0.25558104681E+02  0.45045682852E+02  0.00000000000E+00 0. -1.
         11    1    3    3    0    0 -0.11046689249E+02  0.52693737774E+01  0.10096987531E+02  0.15866467812E+02  0.51100000000E-03 0.  1.
        -11    1    3    3    0    0 -0.26418311886E+01  0.57737769649E+00  0.47878097581E+01  0.54987052634E+01  0.51100000000E-03 0. -1.
         12    1    3    3    0    0 -0.21826180670E+02  0.48585198444E+01  0.10673307392E+02  0.24777144073E+02  0.00000000000E+00 0. -1.
</event>
<event>
 7    1  0.2328810E-008  0.4614232E+02  0.7816164E-02  0.1320468E+00
        -11   -1    0    0    0    0  0.00000000000E+00  0.00000000000E+00  0.45593999997E+02  0.45594000000E+02  0.51100000000E-03 0.  1.
         11   -1    0    0    0    0 -0.00000000000E+00 -0.00000000000E+00 -0.45593999997E+02  0.45594000000E+02  0.51100000000E-03 0. -1.
    9900012    2    1    2    0    0 -0.27448131141E+02  0.29071348508E+02  0.20750181597E+02  0.46142320478E+02  0.10000024778E+02 0.  0.
         12    1    1    2    0    0  0.27448131141E+02 -0.29071348508E+02 -0.20750181597E+02  0.45045679522E+02  0.00000000000E+00 0. -1.
         11    1    3    3    0    0 -0.80388753403E+01  0.12791642789E+02  0.46298011843E+01  0.15801414533E+02  0.51100000000E-03 0. -1.
        -11    1    3    3    0    0 -0.87651577418E+01  0.72607197201E+01  0.47106872629E+01  0.12318141737E+02  0.51100000000E-03 0.  1.
         12    1    3    3    0    0 -0.10644098059E+02  0.90189859998E+01  0.11409693150E+02  0.18022764209E+02  0.00000000000E+00 0. -1.
</event>
<event>
 7    1  0.2328810E-008  0.4614232E+02  0.7816164E-02  0.1320468E+00
        -11   -1    0    0    0    0  0.00000000000E+00  0.00000000000E+00  0.45593999997E+02  0.45594000000E+02  0.51100000000E-03 0. -1.
         11   -1    0    0    0    0 -0.00000000000E+00 -0.00000000000E+00 -0.45593999997E+02  0.45594000000E+02  0.51100000000E-03 0.  1.
    9900012    2    1    2    0    0  0.11824187390E+02 -0.43452745252E+02 -0.10772696335E+01  0.46142323324E+02  0.10000050723E+02 0.  0.
         12    1    1    2    0    0 -0.11824187390E+02  0.43452745252E+02  0.10772696335E+01  0.45045676676E+02  0.00000000000E+00 0. -1.
         11    1    3    3    0    0 -0.70392562327E+00  0.84898971017E-01  0.35252669593E+00  0.79182981178E+00  0.51100000000E-03 0. -1.
        -11    1    3    3    0    0  0.47853136929E+01 -0.14147751006E+02 -0.42404099108E+00  0.14941147770E+02  0.51100000000E-03 0.  1.
         12    1    3    3    0    0  0.77427993202E+01 -0.29389893217E+02 -0.10057553384E+01  0.30409345742E+02  0.00000000000E+00 0. -1.
</event>
<event>
 7    1  0.2328810E-008  0.4614232E+02  0.7816164E-02  0.1320468E+00
        -11   -1    0    0    0    0  0.00000000000E+00  0.00000000000E+00  0.45593999997E+02  0.45594000000E+02  0.51100000000E-03 0.  1.
         11   -1    0    0    0    0 -0.00000000000E+00 -0.00000000000E+00 -0.45593999997E+02  0.45594000000E+02  0.51100000000E-03 0. -1.
    9900012    2    1    2    0    0  0.43768559391E+02 -0.10462545371E+02  0.19904947499E+01  0.46142315233E+02  0.99999769425E+01 0.  0.
         12    1    1    2    0    0 -0.43768559391E+02  0.10462545371E+02 -0.19904947499E+01  0.45045684767E+02  0.00000000000E+00 0. -1.
         11    1    3    3    0    0  0.20689343372E+02 -0.29755799815E+01  0.15561668917E+01  0.20960073021E+02  0.51100000000E-03 0. -1.
        -11    1    3    3    0    0  0.11359399106E+02 -0.50757278733E+01  0.33133628660E+01  0.12875454758E+02  0.51100000000E-03 0.  1.
         12    1    3    3    0    0  0.11719816914E+02 -0.24112375159E+01 -0.28790350079E+01  0.12306787454E+02  0.00000000000E+00 0. -1.
</event>
<event>
 7    1  0.2328810E-008  0.4614232E+02  0.7816164E-02  0.1320468E+00
        -11   -1    0    0    0    0  0.00000000000E+00  0.00000000000E+00  0.45593999997E+02  0.45594000000E+02  0.51100000000E-03 0.  1.
         11   -1    0    0    0    0 -0.00000000000E+00 -0.00000000000E+00 -0.45593999997E+02  0.45594000000E+02  0.51100000000E-03 0. -1.
    9900012    2    1    2    0    0  0.10959052469E+02 -0.28524069581E+02  0.33096678693E+02  0.46142317443E+02  0.99999971031E+01 0.  0.
         12    1    1    2    0    0 -0.10959052469E+02  0.28524069581E+02 -0.33096678693E+02  0.45045682557E+02  0.00000000000E+00 0. -1.
         11    1    3    3    0    0 -0.14214520494E+01 -0.69242534326E+00  0.12344855065E+01  0.20059744543E+01  0.51100000000E-03 0. -1.
        -11    1    3    3    0    0  0.23712635739E+01 -0.77177491440E+01  0.86179941620E+01  0.11809164510E+02  0.51100000000E-03 0.  1.
         12    1    3    3    0    0  0.10009240945E+02 -0.20113895094E+02  0.23244199024E+02  0.32327178479E+02  0.00000000000E+00 0. -1.
</event>
<event>
 7    1  0.2328810E-008  0.4614231E+02  0.7816164E-02  0.1320468E+00
        -11   -1    0    0    0    0  0.00000000000E+00  0.00000000000E+00  0.45593999997E+02  0.45594000000E+02  0.51100000000E-03 0.  1.
         11   -1    0    0    0    0 -0.00000000000E+00 -0.00000000000E+00 -0.45593999997E+02  0.45594000000E+02  0.51100000000E-03 0. -1.
    9900012    2    1    2    0    0 -0.14738172112E+02  0.16086469579E+02  0.39409716112E+02  0.46142312695E+02  0.99999538066E+01 0.  0.
         12    1    1    2    0    0  0.14738172112E+02 -0.16086469579E+02 -0.39409716112E+02  0.45045687305E+02  0.00000000000E+00 0. -1.
         11    1    3    3    0    0 -0.10943130214E+01  0.25622360304E+00  0.10122969106E+01  0.15125861363E+01  0.51100000000E-03 0. -1.
        -11    1    3    3    0    0 -0.78287170277E+01  0.98218607743E+01  0.13849011977E+02  0.18696333661E+02  0.51100000000E-03 0.  1.
        -12    1    3    3    0    0 -0.58151420631E+01  0.60083852019E+01  0.24548407224E+02  0.25933392898E+02  0.00000000000E+00 0.  1.
</event>
<event>
 7    1  0.2328810E-008  0.4614232E+02  0.7816164E-02  0.1320468E+00
        -11   -1    0    0    0    0  0.00000000000E+00  0.00000000000E+00  0.45593999997E+02  0.45594000000E+02  0.51100000000E-03 0. -1.
         11   -1    0    0    0    0 -0.00000000000E+00 -0.00000000000E+00 -0.45593999997E+02  0.45594000000E+02  0.51100000000E-03 0.  1.
    9900012    2    1    2    0    0  0.69763929175E+01 -0.21769173142E+02 -0.38814257015E+02  0.46142317575E+02  0.99999983063E+01 0.  0.
         12    1    1    2    0    0 -0.69763929175E+01  0.21769173142E+02  0.38814257015E+02  0.45045682425E+02  0.00000000000E+00 0. -1.
         11    1    3    3    0    0  0.14651291708E+01 -0.92098588477E+01 -0.10055936313E+02  0.13714589271E+02  0.51100000000E-03 0. -1.
        -11    1    3    3    0    0 -0.10683727116E+01 -0.20144647297E+01 -0.25457162832E+01  0.34176249141E+01  0.51100000000E-03 0.  1.
        -12    1    3    3    0    0  0.65796364583E+01 -0.10544849565E+02 -0.26212604419E+02  0.29010103390E+02  0.00000000000E+00 0.  1.
</event>
<event>
 7    1  0.2328810E-008  0.4614232E+02  0.7816164E-02  0.1320468E+00
        -11   -1    0    0    0    0  0.00000000000E+00  0.00000000000E+00  0.45593999997E+02  0.45594000000E+02  0.51100000000E-03 0.  1.
         11   -1    0    0    0    0 -0.00000000000E+00 -0.00000000000E+00 -0.45593999997E+02  0.45594000000E+02  0.51100000000E-03 0. -1.
    9900012    2    1    2    0    0 -0.24070160301E+02  0.37572072931E+02  0.61708953678E+01  0.46142320619E+02  0.10000026063E+02 0.  0.
         12    1    1    2    0    0  0.24070160301E+02 -0.37572072931E+02 -0.61708953678E+01  0.45045679381E+02  0.00000000000E+00 0. -1.
         11    1    3    3    0    0 -0.62515432173E+01  0.11586183826E+02  0.48587362576E+01  0.14033131031E+02  0.51100000000E-03 0. -1.
        -11    1    3    3    0    0 -0.52466411685E+01  0.93019542388E+01  0.31598625142E+01  0.11137249552E+02  0.51100000000E-03 0.  1.
        -12    1    3    3    0    0 -0.12571975915E+02  0.16683934866E+02 -0.18477034041E+01  0.20971940036E+02  0.00000000000E+00 0.  1.
</event>
<event>
 7    1  0.2328810E-008  0.4614232E+02  0.7816164E-02  0.1320468E+00
        -11   -1    0    0    0    0  0.00000000000E+00  0.00000000000E+00  0.45593999997E+02  0.45594000000E+02  0.51100000000E-03 0.  1.
         11   -1    0    0    0    0 -0.00000000000E+00 -0.00000000000E+00 -0.45593999997E+02  0.45594000000E+02  0.51100000000E-03 0. -1.
    9900012    2    1    2    0    0 -0.28803399879E+01  0.38400119725E+01  0.44789189578E+02  0.46142317039E+02  0.99999934149E+01 0.  0.
         12    1    1    2    0    0  0.28803399879E+01 -0.38400119725E+01 -0.44789189578E+02  0.45045682961E+02  0.00000000000E+00 0. -1.
         11    1    3    3    0    0  0.86071334331E+00 -0.32231807004E+00  0.11694734031E+01  0.14874087197E+01  0.51100000000E-03 0. -1.
        -11    1    3    3    0    0 -0.60511044224E+01  0.24426304431E+01  0.33682916078E+02  0.34309199116E+02  0.51100000000E-03 0.  1.
        -12    1    3    3    0    0  0.23100510911E+01  0.17196995995E+01  0.99368000967E+01  0.10345709203E+02  0.00000000000E+00 0.  1.
</event>
<event>
 7    1  0.2328810E-008  0.4614232E+02  0.7816164E-02  0.1320468E+00
        -11   -1    0    0    0    0  0.00000000000E+00  0.00000000000E+00  0.45593999997E+02  0.45594000000E+02  0.51100000000E-03 0. -1.
         11   -1    0    0    0    0 -0.00000000000E+00 -0.00000000000E+00 -0.45593999997E+02  0.45594000000E+02  0.51100000000E-03 0.  1.
    9900012    2    1    2    0    0 -0.25199050420E+02 -0.28334217465E+02 -0.24316528212E+02  0.46142316902E+02  0.99999921668E+01 0.  0.
         12    1    1    2    0    0  0.25199050420E+02  0.28334217465E+02  0.24316528212E+02  0.45045683098E+02  0.00000000000E+00 0. -1.
         11    1    3    3    0    0 -0.59396093161E+01 -0.26733102757E+01 -0.48052407424E+01  0.80941883788E+01  0.51100000000E-03 0. -1.
        -11    1    3    3    0    0 -0.53394668794E+01 -0.35740069714E+01 -0.25381461938E+01  0.69083730899E+01  0.51100000000E-03 0.  1.
         12    1    3    3    0    0 -0.13919974225E+02 -0.22086900218E+02 -0.16973141276E+02  0.31139755433E+02  0.00000000000E+00 0. -1.
</event>
<event>
 7    1  0.2328810E-008  0.4614232E+02  0.7816164E-02  0.1320468E+00
        -11   -1    0    0    0    0  0.00000000000E+00  0.00000000000E+00  0.45593999997E+02  0.45594000000E+02  0.51100000000E-03 0.  1.
         11   -1    0    0    0    0 -0.00000000000E+00 -0.00000000000E+00 -0.45593999997E+02  0.45594000000E+02  0.51100000000E-03 0. -1.
    9900012    2    1    2    0    0  0.54459701667E+01  0.24168806584E+02  0.37620789287E+02  0.46142316640E+02  0.99999897777E+01 0.  0.
         12    1    1    2    0    0 -0.54459701667E+01 -0.24168806584E+02 -0.37620789287E+02  0.45045683360E+02  0.00000000000E+00 0. -1.
         11    1    3    3    0    0  0.37933123020E-01  0.50446545513E+01  0.11237028936E+02  0.12317499667E+02  0.51100000000E-03 0. -1.
        -11    1    3    3    0    0  0.15570023486E+01  0.90622481001E+01  0.17856335022E+02  0.20084752865E+02  0.51100000000E-03 0.  1.
         12    1    3    3    0    0  0.38510346951E+01  0.10061903933E+02  0.85274253287E+01  0.13740064109E+02  0.00000000000E+00 0. -1.
</event>
<event>
 7    1  0.2328810E-008  0.4614231E+02  0.7816164E-02  0.1320468E+00
        -11   -1    0    0    0    0  0.00000000000E+00  0.00000000000E+00  0.45593999997E+02  0.45594000000E+02  0.51100000000E-03 0. -1.
         11   -1    0    0    0    0 -0.00000000000E+00 -0.00000000000E+00 -0.45593999997E+02  0.45594000000E+02  0.51100000000E-03 0.  1.
    9900012    2    1    2    0    0 -0.20126632040E+02  0.32587972170E+02 -0.23707736907E+02  0.46142311675E+02  0.99999445003E+01 0.  0.
         12    1    1    2    0    0  0.20126632040E+02 -0.32587972170E+02  0.23707736907E+02  0.45045688325E+02  0.00000000000E+00 0. -1.
         11    1    3    3    0    0 -0.77329733398E+01  0.18619035461E+02 -0.84604584762E+01  0.21864279455E+02  0.51100000000E-03 0. -1.
        -11    1    3    3    0    0 -0.48277512239E+01  0.74087458254E+01 -0.79007360959E+01  0.11858259894E+02  0.51100000000E-03 0.  1.
        -12    1    3    3    0    0 -0.75659074764E+01  0.65601908837E+01 -0.73465423346E+01  0.12419772327E+02  0.00000000000E+00 0.  1.
</event>
<event>
 7    1  0.2328810E-008  0.4614232E+02  0.7816164E-02  0.1320468E+00
        -11   -1    0    0    0    0  0.00000000000E+00  0.00000000000E+00  0.45593999997E+02  0.45594000000E+02  0.51100000000E-03 0.  1.
         11   -1    0    0    0    0 -0.00000000000E+00 -0.00000000000E+00 -0.45593999997E+02  0.45594000000E+02  0.51100000000E-03 0. -1.
    9900012    2    1    2    0    0 -0.31158450031E+02  0.11501433438E+02  0.30429944758E+02  0.46142317439E+02  0.99999970594E+01 0.  0.
         12    1    1    2    0    0  0.31158450031E+02 -0.11501433438E+02 -0.30429944758E+02  0.45045682561E+02  0.00000000000E+00 0. -1.
         11    1    3    3    0    0 -0.13328580521E+02  0.18717909717E+01  0.71906440028E+01  0.15259751688E+02  0.51100000000E-03 0. -1.
        -11    1    3    3    0    0 -0.53938714781E+01  0.34653905626E+01  0.63790037500E+01  0.90440295431E+01  0.51100000000E-03 0.  1.
         12    1    3    3    0    0 -0.12435998031E+02  0.61642519032E+01  0.16860297006E+02  0.21838536207E+02  0.00000000000E+00 0. -1.
</event>
<event>
 7    1  0.2328810E-008  0.4614232E+02  0.7816164E-02  0.1320468E+00
        -11   -1    0    0    0    0  0.00000000000E+00  0.00000000000E+00  0.45593999997E+02  0.45594000000E+02  0.51100000000E-03 0.  1.
         11   -1    0    0    0    0 -0.00000000000E+00 -0.00000000000E+00 -0.45593999997E+02  0.45594000000E+02  0.51100000000E-03 0. -1.
    9900012    2    1    2    0    0 -0.29428961340E+02 -0.33918950534E+02 -0.35432252809E+01  0.46142318562E+02  0.10000007301E+02 0.  0.
         12    1    1    2    0    0  0.29428961340E+02  0.33918950534E+02  0.35432252809E+01  0.45045681438E+02  0.00000000000E+00 0. -1.
         11    1    3    3    0    0 -0.10363750123E+02 -0.14683893111E+02 -0.11721516271E+01  0.18011051419E+02  0.51100000000E-03 0. -1.
        -11    1    3    3    0    0 -0.10055147707E+02 -0.11524843850E+02 -0.47923067604E+01  0.16027920187E+02  0.51100000000E-03 0.  1.
         12    1    3    3    0    0 -0.90100635098E+01 -0.77102135734E+01  0.24212331066E+01  0.12103346957E+02  0.00000000000E+00 0. -1.
</event>
<event>
 7    1  0.2328810E-008  0.4614232E+02  0.7816164E-02  0.1320468E+00
        -11   -1    0    0    0    0  0.00000000000E+00  0.00000000000E+00  0.45593999997E+02  0.45594000000E+02  0.51100000000E-03 0.  1.
         11   -1    0    0    0    0 -0.00000000000E+00 -0.00000000000E+00 -0.45593999997E+02  0.45594000000E+02  0.51100000000E-03 0. -1.
    9900012    2    1    2    0    0  0.24523307835E+02  0.32821456565E+02  0.18720919688E+02  0.46142317941E+02  0.10000001641E+02 0.  0.
         12    1    1    2    0    0 -0.24523307835E+02 -0.32821456565E+02 -0.18720919688E+02  0.45045682059E+02  0.00000000000E+00 0. -1.
         11    1    3    3    0    0  0.20976601887E+01  0.35358466666E+01  0.14715162354E+01  0.43666635099E+01  0.51100000000E-03 0. -1.
        -11    1    3    3    0    0  0.14161596803E+02  0.24820852809E+02  0.11806090543E+02  0.30919400582E+02  0.51100000000E-03 0.  1.
         12    1    3    3    0    0  0.82640508434E+01  0.44647570888E+01  0.54433129095E+01  0.10856253849E+02  0.00000000000E+00 0. -1.
</event>
<event>
 7    1  0.2328810E-008  0.4614233E+02  0.7816164E-02  0.1320468E+00
        -11   -1    0    0    0    0  0.00000000000E+00  0.00000000000E+00  0.45593999997E+02  0.45594000000E+02  0.51100000000E-03 0. -1.
         11   -1    0    0    0    0 -0.00000000000E+00 -0.00000000000E+00 -0.45593999997E+02  0.45594000000E+02  0.51100000000E-03 0.  1.
    9900012    2    1    2    0    0  0.33924914387E+02 -0.17205041188E+02 -0.24128810947E+02  0.46142325666E+02  0.10000072086E+02 0.  0.
         12    1    1    2    0    0 -0.33924914387E+02  0.17205041188E+02  0.24128810947E+02  0.45045674334E+02  0.00000000000E+00 0. -1.
         11    1    3    3    0    0  0.82971691451E+01 -0.69136637613E+01 -0.87161068729E+01  0.13878482688E+02  0.51100000000E-03 0. -1.
        -11    1    3    3    0    0  0.67757672065E+01 -0.61534044515E+00 -0.60226275064E+01  0.90863473102E+01  0.51100000000E-03 0.  1.
        -12    1    3    3    0    0  0.18851978036E+02 -0.96760369812E+01 -0.93900765678E+01  0.23177495669E+02  0.00000000000E+00 0.  1.
</event>
<event>
 7    1  0.2328810E-008  0.4614232E+02  0.7816164E-02  0.1320468E+00
        -11   -1    0    0    0    0  0.00000000000E+00  0.00000000000E+00  0.45593999997E+02  0.45594000000E+02  0.51100000000E-03 0.  1.
         11   -1    0    0    0    0 -0.00000000000E+00 -0.00000000000E+00 -0.45593999997E+02  0.45594000000E+02  0.51100000000E-03 0. -1.
    9900012    2    1    2    0    0  0.84289549997E+01  0.41871634412E+02  0.14311963814E+02  0.46142319198E+02  0.10000013102E+02 0.  0.
         12    1    1    2    0    0 -0.84289549997E+01 -0.41871634412E+02 -0.14311963814E+02  0.45045680802E+02  0.00000000000E+00 0. -1.
         11    1    3    3    0    0 -0.35460541937E+00  0.85792643896E+00  0.11845158968E+01  0.15049454970E+01  0.51100000000E-03 0. -1.
        -11    1    3    3    0    0  0.88164337868E+00  0.10198059644E+02  0.65485292771E+01  0.12151582263E+02  0.51100000000E-03 0.  1.
        -12    1    3    3    0    0  0.79019170404E+01  0.30815648329E+02  0.65789186402E+01  0.32485791438E+02  0.00000000000E+00 0.  1.
</event>
<event>
 7    1  0.2328810E-008  0.4614232E+02  0.7816164E-02  0.1320468E+00
        -11   -1    0    0    0    0  0.00000000000E+00  0.00000000000E+00  0.45593999997E+02  0.45594000000E+02  0.51100000000E-03 0.  1.
         11   -1    0    0    0    0 -0.00000000000E+00 -0.00000000000E+00 -0.45593999997E+02  0.45594000000E+02  0.51100000000E-03 0. -1.
    9900012    2    1    2    0    0 -0.44245885898E+02 -0.69066853036E+01  0.48695852102E+01  0.46142316734E+02  0.99999906315E+01 0.  0.
         12    1    1    2    0    0  0.44245885898E+02  0.69066853036E+01 -0.48695852102E+01  0.45045683266E+02  0.00000000000E+00 0. -1.
         11    1    3    3    0    0 -0.10955956029E+01  0.10842552233E+01 -0.16516229959E+00  0.15502315829E+01  0.51100000000E-03 0. -1.
        -11    1    3    3    0    0 -0.22325991334E+02 -0.58288970197E+01  0.66583777133E-01  0.23074452608E+02  0.51100000000E-03 0.  1.
         12    1    3    3    0    0 -0.20824298961E+02 -0.21620435072E+01  0.49681637326E+01  0.21517632542E+02  0.00000000000E+00 0. -1.
</event>
<event>
 7    1  0.2328810E-008  0.4614232E+02  0.7816164E-02  0.1320468E+00
        -11   -1    0    0    0    0  0.00000000000E+00  0.00000000000E+00  0.45593999997E+02  0.45594000000E+02  0.51100000000E-03 0.  1.
         11   -1    0    0    0    0 -0.00000000000E+00 -0.00000000000E+00 -0.45593999997E+02  0.45594000000E+02  0.51100000000E-03 0. -1.
    9900012    2    1    2    0    0  0.31278237826E+02  0.12292727843E+02  0.29994562733E+02  0.46142321929E+02  0.10000038008E+02 0.  0.
         12    1    1    2    0    0 -0.31278237826E+02 -0.12292727843E+02 -0.29994562733E+02  0.45045678071E+02  0.00000000000E+00 0. -1.
         11    1    3    3    0    0  0.17106941279E+01  0.98148195485E+00  0.53775117813E+01  0.57277756980E+01  0.51100000000E-03 0. -1.
        -11    1    3    3    0    0  0.53371986302E+01  0.41748737858E+01  0.57456451191E+01  0.88841262058E+01  0.51100000000E-03 0.  1.
        -12    1    3    3    0    0  0.24230345068E+02  0.71363721021E+01  0.18871405833E+02  0.31530420025E+02  0.00000000000E+00 0.  1.
</event>
<event>
 7    1  0.2328810E-008  0.4614232E+02  0.7816164E-02  0.1320468E+00
        -11   -1    0    0    0    0  0.00000000000E+00  0.00000000000E+00  0.45593999997E+02  0.45594000000E+02  0.51100000000E-03 0. -1.
         11   -1    0    0    0    0 -0.00000000000E+00 -0.00000000000E+00 -0.45593999997E+02  0.45594000000E+02  0.51100000000E-03 0.  1.
    9900012    2    1    2    0    0  0.15790891021E+02  0.41466924875E+02  0.77624396635E+01  0.46142316884E+02  0.99999920061E+01 0.  0.
         12    1    1    2    0    0 -0.15790891021E+02 -0.41466924875E+02 -0.77624396635E+01  0.45045683116E+02  0.00000000000E+00 0. -1.
         11    1    3    3    0    0 -0.45762570182E+00  0.99719043638E+00  0.16602620647E+01  0.19900453346E+01  0.51100000000E-03 0. -1.
        -11    1    3    3    0    0  0.31476710333E+01  0.10059720661E+02  0.25927371987E+01  0.10854865230E+02  0.51100000000E-03 0.  1.
         12    1    3    3    0    0  0.13100845690E+02  0.30410013777E+02  0.35094404001E+01  0.33297406320E+02  0.00000000000E+00 0. -1.
</event>
<event>
 7    1  0.2328810E-008  0.4614232E+02  0.7816164E-02  0.1320468E+00
        -11   -1    0    0    0    0  0.00000000000E+00  0.00000000000E+00  0.45593999997E+02  0.45594000000E+02  0.51100000000E-03 0.  1.
         11   -1    0    0    0    0 -0.00000000000E+00 -0.00000000000E+00 -0.45593999997E+02  0.45594000000E+02  0.51100000000E-03 0. -1.
    9900012    2    1    2    0    0  0.38849838309E+02 -0.13726010706E+02  0.18204397181E+02  0.46142318928E+02  0.10000010640E+02 0.  0.
         12    1    1    2    0    0 -0.38849838309E+02  0.13726010706E+02 -0.18204397181E+02  0.45045681072E+02  0.00000000000E+00 0. -1.
         11    1    3    3    0    0  0.80638377850E+01 -0.17110228497E+01  0.63395258070E+01  0.10399166636E+02  0.51100000000E-03 0. -1.
        -11    1    3    3    0    0  0.92826094164E+01 -0.21861357125E+01  0.60531193403E+00  0.95557537499E+01  0.51100000000E-03 0.  1.
        -12    1    3    3    0    0  0.21503391108E+02 -0.98288521442E+01  0.11259559440E+02  0.26187398541E+02  0.00000000000E+00 0.  1.
</event>
<event>
 7    1  0.2328810E-008  0.4614232E+02  0.7816164E-02  0.1320468E+00
        -11   -1    0    0    0    0  0.00000000000E+00  0.00000000000E+00  0.45593999997E+02  0.45594000000E+02  0.51100000000E-03 0.  1.
         11   -1    0    0    0    0 -0.00000000000E+00 -0.00000000000E+00 -0.45593999997E+02  0.45594000000E+02  0.51100000000E-03 0. -1.
    9900012    2    1    2    0    0  0.13623914474E+02  0.40835860709E+02  0.13264037091E+02  0.46142320458E+02  0.10000024590E+02 0.  0.
         12    1    1    2    0    0 -0.13623914474E+02 -0.40835860709E+02 -0.13264037091E+02  0.45045679542E+02  0.00000000000E+00 0. -1.
         11    1    3    3    0    0  0.68758477544E+01  0.14651443060E+02  0.26119450681E+01  0.16394033164E+02  0.51100000000E-03 0. -1.
        -11    1    3    3    0    0  0.68400029111E+01  0.25050055553E+02  0.85159134984E+01  0.27327855862E+02  0.51100000000E-03 0.  1.
        -12    1    3    3    0    0 -0.91936191501E-01  0.11343620965E+01  0.21361785242E+01  0.24204314319E+01  0.00000000000E+00 0.  1.
</event>
<event>
 7    1  0.2328810E-008  0.4614232E+02  0.7816164E-02  0.1320468E+00
        -11   -1    0    0    0    0  0.00000000000E+00  0.00000000000E+00  0.45593999997E+02  0.45594000000E+02  0.51100000000E-03 0.  1.
         11   -1    0    0    0    0 -0.00000000000E+00 -0.00000000000E+00 -0.45593999997E+02  0.45594000000E+02  0.51100000000E-03 0. -1.
    9900012    2    1    2    0    0 -0.23661644205E+02  0.20340032884E+02  0.32488815453E+02  0.46142317923E+02  0.10000001481E+02 0.  0.
         12    1    1    2    0    0  0.23661644205E+02 -0.20340032884E+02 -0.32488815453E+02  0.45045682077E+02  0.00000000000E+00 0. -1.
         11    1    3    3    0    0 -0.90723717674E+01  0.55832290519E+01  0.99466904624E+01  0.14574533528E+02  0.51100000000E-03 0. -1.
        -11    1    3    3    0    0 -0.14245993200E+02  0.10904994838E+02  0.16384018236E+02  0.24296157896E+02  0.51100000000E-03 0.  1.
         12    1    3    3    0    0 -0.34327923789E+00  0.38518089938E+01  0.61581067545E+01  0.72716265003E+01  0.00000000000E+00 0. -1.
</event>
<event>
 7    1  0.2328810E-008  0.4614232E+02  0.7816164E-02  0.1320468E+00
        -11   -1    0    0    0    0  0.00000000000E+00  0.00000000000E+00  0.45593999997E+02  0.45594000000E+02  0.51100000000E-03 0.  1.
         11   -1    0    0    0    0 -0.00000000000E+00 -0.00000000000E+00 -0.45593999997E+02  0.45594000000E+02  0.51100000000E-03 0. -1.
    9900012    2    1    2    0    0 -0.35114942470E+02  0.22663205219E+00  0.28213525996E+02  0.46142316568E+02  0.99999891169E+01 0.  0.
         12    1    1    2    0    0  0.35114942470E+02 -0.22663205219E+00 -0.28213525996E+02  0.45045683432E+02  0.00000000000E+00 0. -1.
         11    1    3    3    0    0 -0.68411577475E+01  0.58590741700E+00  0.37140608741E+01  0.78063419901E+01  0.51100000000E-03 0. -1.
        -11    1    3    3    0    0 -0.27315325979E+02 -0.22065145633E+01  0.22707702363E+02  0.35589822797E+02  0.51100000000E-03 0.  1.
         12    1    3    3    0    0 -0.95845874428E+00  0.18472391985E+01  0.17917627587E+01  0.27461517811E+01  0.00000000000E+00 0. -1.
</event>
<event>
 7    1  0.2328810E-008  0.4614232E+02  0.7816164E-02  0.1320468E+00
        -11   -1    0    0    0    0  0.00000000000E+00  0.00000000000E+00  0.45593999997E+02  0.45594000000E+02  0.51100000000E-03 0.  1.
         11   -1    0    0    0    0 -0.00000000000E+00 -0.00000000000E+00 -0.45593999997E+02  0.45594000000E+02  0.51100000000E-03 0. -1.
    9900012    2    1    2    0    0  0.17032993776E+02 -0.41564701608E+02  0.33713690094E+01  0.46142318456E+02  0.10000006337E+02 0.  0.
         12    1    1    2    0    0 -0.17032993776E+02  0.41564701608E+02 -0.33713690094E+01  0.45045681544E+02  0.00000000000E+00 0. -1.
         11    1    3    3    0    0  0.23824951603E+01 -0.12139954839E+02  0.26841070171E+01  0.12659352962E+02  0.51100000000E-03 0. -1.
        -11    1    3    3    0    0  0.81917841500E+01 -0.18145884464E+02  0.34218736211E+01  0.20201179913E+02  0.51100000000E-03 0.  1.
         12    1    3    3    0    0  0.64587144658E+01 -0.11278862305E+02 -0.27346116288E+01  0.13281785581E+02  0.00000000000E+00 0. -1.
</event>
<event>
 7    1  0.2328810E-008  0.4614232E+02  0.7816164E-02  0.1320468E+00
        -11   -1    0    0    0    0  0.00000000000E+00  0.00000000000E+00  0.45593999997E+02  0.45594000000E+02  0.51100000000E-03 0. -1.
         11   -1    0    0    0    0 -0.00000000000E+00 -0.00000000000E+00 -0.45593999997E+02  0.45594000000E+02  0.51100000000E-03 0.  1.
    9900012    2    1    2    0    0  0.72167934488E+01 -0.20156445212E+02 -0.39632676662E+02  0.46142318180E+02  0.10000003816E+02 0.  0.
         12    1    1    2    0    0 -0.72167934488E+01  0.20156445212E+02  0.39632676662E+02  0.45045681820E+02  0.00000000000E+00 0. -1.
         11    1    3    3    0    0  0.51031317974E+01 -0.44985842172E+01 -0.11350970832E+02  0.13233433160E+02  0.51100000000E-03 0. -1.
        -11    1    3    3    0    0  0.30493489749E+01 -0.82964174379E+01 -0.11072212280E+02  0.14167672939E+02  0.51100000000E-03 0.  1.
         12    1    3    3    0    0 -0.93568732354E+00 -0.73614435567E+01 -0.17209493551E+02  0.18741212081E+02  0.00000000000E+00 0. -1.
</event>
<event>
 7    1  0.2328810E-008  0.4614232E+02  0.7816164E-02  0.1320468E+00
        -11   -1    0    0    0    0  0.00000000000E+00  0.00000000000E+00  0.45593999997E+02  0.45594000000E+02  0.51100000000E-03 0.  1.
         11   -1    0    0    0    0 -0.00000000000E+00 -0.00000000000E+00 -0.45593999997E+02  0.45594000000E+02  0.51100000000E-03 0. -1.
    9900012    2    1    2    0    0  0.34442786032E+02 -0.28834717838E+02  0.33715018507E+01  0.46142317774E+02  0.10000000120E+02 0.  0.
         12    1    1    2    0    0 -0.34442786032E+02  0.28834717838E+02 -0.33715018507E+01  0.45045682226E+02  0.00000000000E+00 0. -1.
         11    1    3    3    0    0  0.17034329302E+02 -0.12176245261E+02 -0.12400398790E+01  0.20975390880E+02  0.51100000000E-03 0. -1.
        -11    1    3    3    0    0  0.16731624317E+02 -0.15140131831E+02  0.28487388748E+01  0.22743925730E+02  0.51100000000E-03 0.  1.
         12    1    3    3    0    0  0.67683241253E+00 -0.15183407464E+01  0.17628028549E+01  0.24230011642E+01  0.00000000000E+00 0. -1.
</event>
<event>
 7    1  0.2328810E-008  0.4614232E+02  0.7816164E-02  0.1320468E+00
        -11   -1    0    0    0    0  0.00000000000E+00  0.00000000000E+00  0.45593999997E+02  0.45594000000E+02  0.51100000000E-03 0.  1.
         11   -1    0    0    0    0 -0.00000000000E+00 -0.00000000000E+00 -0.45593999997E+02  0.45594000000E+02  0.51100000000E-03 0. -1.
    9900012    2    1    2    0    0  0.13285115386E+02  0.27883006894E+02  0.32789588581E+02  0.46142317815E+02  0.10000000487E+02 0.  0.
         12    1    1    2    0    0 -0.13285115386E+02 -0.27883006894E+02 -0.32789588581E+02  0.45045682185E+02  0.00000000000E+00 0. -1.
         11    1    3    3    0    0  0.42671421134E+01  0.22909248767E+01  0.44447396981E+01  0.65736253203E+01  0.51100000000E-03 0. -1.
        -11    1    3    3    0    0  0.64009933442E+01  0.13173068689E+02  0.12406188107E+02  0.19194164689E+02  0.51100000000E-03 0.  1.
         12    1    3    3    0    0  0.26169799279E+01  0.12419013328E+02  0.15938660775E+02  0.20374527806E+02  0.00000000000E+00 0. -1.
</event>
<event>
 7    1  0.2328810E-008  0.4614232E+02  0.7816164E-02  0.1320468E+00
        -11   -1    0    0    0    0  0.00000000000E+00  0.00000000000E+00  0.45593999997E+02  0.45594000000E+02  0.51100000000E-03 0.  1.
         11   -1    0    0    0    0 -0.00000000000E+00 -0.00000000000E+00 -0.45593999997E+02  0.45594000000E+02  0.51100000000E-03 0. -1.
    9900012    2    1    2    0    0 -0.26970834799E+01  0.44760894488E+02  0.42780471291E+01  0.46142316279E+02  0.99999864845E+01 0.  0.
         12    1    1    2    0    0  0.26970834799E+01 -0.44760894488E+02 -0.42780471291E+01  0.45045683721E+02  0.00000000000E+00 0. -1.
         11    1    3    3    0    0 -0.11135148113E+01  0.44199715472E+01  0.17880192128E+01  0.48962308646E+01  0.51100000000E-03 0. -1.
        -11    1    3    3    0    0  0.16610444773E+01  0.29507355224E+02 -0.46369287547E+00  0.29557707834E+02  0.51100000000E-03 0.  1.
        -12    1    3    3    0    0 -0.32446131458E+01  0.10833567717E+02  0.29537207917E+01  0.11688377580E+02  0.00000000000E+00 0.  1.
</event>
<event>
 7    1  0.2328810E-008  0.4614232E+02  0.7816164E-02  0.1320468E+00
        -11   -1    0    0    0    0  0.00000000000E+00  0.00000000000E+00  0.45593999997E+02  0.45594000000E+02  0.51100000000E-03 0.  1.
         11   -1    0    0    0    0 -0.00000000000E+00 -0.00000000000E+00 -0.45593999997E+02  0.45594000000E+02  0.51100000000E-03 0. -1.
    9900012    2    1    2    0    0 -0.69627434181E+01 -0.41902482426E+02  0.14993853603E+02  0.46142317907E+02  0.10000001331E+02 0.  0.
         12    1    1    2    0    0  0.69627434181E+01  0.41902482426E+02 -0.14993853603E+02  0.45045682093E+02  0.00000000000E+00 0. -1.
         11    1    3    3    0    0 -0.10313928151E+01 -0.20114054608E+01  0.17921276024E+01  0.28846567684E+01  0.51100000000E-03 0. -1.
        -11    1    3    3    0    0 -0.33776040452E+00 -0.28152595868E+02  0.98698450807E+01  0.29834486394E+02  0.51100000000E-03 0.  1.
        -12    1    3    3    0    0 -0.55935901985E+01 -0.11738481097E+02  0.33318809197E+01  0.13423174745E+02  0.00000000000E+00 0.  1.
</event>
<event>
 7    1  0.2328810E-008  0.4614232E+02  0.7816164E-02  0.1320468E+00
        -11   -1    0    0    0    0  0.00000000000E+00  0.00000000000E+00  0.45593999997E+02  0.45594000000E+02  0.51100000000E-03 0.  1.
         11   -1    0    0    0    0 -0.00000000000E+00 -0.00000000000E+00 -0.45593999997E+02  0.45594000000E+02  0.51100000000E-03 0. -1.
    9900012    2    1    2    0    0 -0.10174840623E+02 -0.25122489441E+02  0.35978417334E+02  0.46142319060E+02  0.10000011848E+02 0.  0.
         12    1    1    2    0    0  0.10174840623E+02  0.25122489441E+02 -0.35978417334E+02  0.45045680940E+02  0.00000000000E+00 0. -1.
         11    1    3    3    0    0 -0.29602121214E+00 -0.23670484298E+01  0.85642582501E+01  0.88902793242E+01  0.51100000000E-03 0. -1.
        -11    1    3    3    0    0 -0.65748765184E+01 -0.13955711906E+02  0.20123889081E+02  0.25356691584E+02  0.51100000000E-03 0.  1.
         12    1    3    3    0    0 -0.33039428921E+01 -0.87997291048E+01  0.72902700029E+01  0.11895348152E+02  0.00000000000E+00 0. -1.
</event>
<event>
 7    1  0.2328810E-008  0.4614232E+02  0.7816164E-02  0.1320468E+00
        -11   -1    0    0    0    0  0.00000000000E+00  0.00000000000E+00  0.45593999997E+02  0.45594000000E+02  0.51100000000E-03 0.  1.
         11   -1    0    0    0    0 -0.00000000000E+00 -0.00000000000E+00 -0.45593999997E+02  0.45594000000E+02  0.51100000000E-03 0. -1.
    9900012    2    1    2    0    0  0.94949795826E+01  0.58723966373E+01  0.43640276951E+02  0.46142318166E+02  0.10000003690E+02 0.  0.
         12    1    1    2    0    0 -0.94949795826E+01 -0.58723966373E+01 -0.43640276951E+02  0.45045681834E+02  0.00000000000E+00 0. -1.
         11    1    3    3    0    0 -0.28535387703E+00 -0.89666861465E+00  0.11266652562E+02  0.11305879075E+02  0.51100000000E-03 0. -1.
        -11    1    3    3    0    0  0.10184308821E+02  0.58762804990E+01  0.30949535630E+02  0.33107772119E+02  0.51100000000E-03 0.  1.
        -12    1    3    3    0    0 -0.40397536186E+00  0.89278475291E+00  0.14240887586E+01  0.17286669720E+01  0.00000000000E+00 0.  1.
</event>
<event>
 7    1  0.2328810E-008  0.4614232E+02  0.7816164E-02  0.1320468E+00
        -11   -1    0    0    0    0  0.00000000000E+00  0.00000000000E+00  0.45593999997E+02  0.45594000000E+02  0.51100000000E-03 0. -1.
         11   -1    0    0    0    0 -0.00000000000E+00 -0.00000000000E+00 -0.45593999997E+02  0.45594000000E+02  0.51100000000E-03 0.  1.
    9900012    2    1    2    0    0  0.10297430574E+02 -0.43842085056E+02  0.97365467255E+00  0.46142317611E+02  0.99999986332E+01 0.  0.
         12    1    1    2    0    0 -0.10297430574E+02  0.43842085056E+02 -0.97365467255E+00  0.45045682389E+02  0.00000000000E+00 0. -1.
         11    1    3    3    0    0  0.10682466933E+01 -0.50291381447E+01  0.19830527039E+01  0.55105244545E+01  0.51100000000E-03 0. -1.
        -11    1    3    3    0    0  0.72434540201E+01 -0.28324477497E+02  0.26290367655E+01  0.29353968832E+02  0.51100000000E-03 0.  1.
        -12    1    3    3    0    0  0.19857298603E+01 -0.10488469414E+02 -0.36384347969E+01  0.11277824325E+02  0.00000000000E+00 0.  1.
</event>
<event>
 7    1  0.2328810E-008  0.4614232E+02  0.7816164E-02  0.1320468E+00
        -11   -1    0    0    0    0  0.00000000000E+00  0.00000000000E+00  0.45593999997E+02  0.45594000000E+02  0.51100000000E-03 0.  1.
         11   -1    0    0    0    0 -0.00000000000E+00 -0.00000000000E+00 -0.45593999997E+02  0.45594000000E+02  0.51100000000E-03 0. -1.
    9900012    2    1    2    0    0 -0.38071881204E+02  0.18094681506E+02 -0.15881684425E+02  0.46142317216E+02  0.99999950328E+01 0.  0.
         12    1    1    2    0    0  0.38071881204E+02 -0.18094681506E+02  0.15881684425E+02  0.45045682784E+02  0.00000000000E+00 0. -1.
         11    1    3    3    0    0 -0.72599246043E+01  0.63037523235E+01 -0.34730110548E+01  0.10222798280E+02  0.51100000000E-03 0. -1.
        -11    1    3    3    0    0 -0.17990090349E+02  0.41561416064E+01 -0.93102788488E+01  0.20678446661E+02  0.51100000000E-03 0.  1.
         12    1    3    3    0    0 -0.12821866251E+02  0.76347875765E+01 -0.30983945217E+01  0.15241072276E+02  0.00000000000E+00 0. -1.
</event>
<event>
 7    1  0.2328810E-008  0.4614232E+02  0.7816164E-02  0.1320468E+00
        -11   -1    0    0    0    0  0.00000000000E+00  0.00000000000E+00  0.45593999997E+02  0.45594000000E+02  0.51100000000E-03 0.  1.
         11   -1    0    0    0    0 -0.00000000000E+00 -0.00000000000E+00 -0.45593999997E+02  0.45594000000E+02  0.51100000000E-03 0. -1.
    9900012    2    1    2    0    0 -0.33300015155E+02 -0.17196167037E+02  0.24990285378E+02  0.46142317261E+02  0.99999954433E+01 0.  0.
         12    1    1    2    0    0  0.33300015155E+02  0.17196167037E+02 -0.24990285378E+02  0.45045682739E+02  0.00000000000E+00 0. -1.
         11    1    3    3    0    0 -0.17504042190E+02 -0.91588520425E+01  0.10887966341E+02  0.22557124706E+02  0.51100000000E-03 0. -1.
        -11    1    3    3    0    0 -0.15187321716E+02 -0.79435517680E+01  0.14806851253E+02  0.22649450322E+02  0.51100000000E-03 0.  1.
         12    1    3    3    0    0 -0.60865124952E+00 -0.93763226806E-01 -0.70453221485E+00  0.93574223374E+00  0.00000000000E+00 0. -1.
</event>
<event>
 7    1  0.2328810E-008  0.4614232E+02  0.7816164E-02  0.1320468E+00
        -11   -1    0    0    0    0  0.00000000000E+00  0.00000000000E+00  0.45593999997E+02  0.45594000000E+02  0.51100000000E-03 0.  1.
         11   -1    0    0    0    0 -0.00000000000E+00 -0.00000000000E+00 -0.45593999997E+02  0.45594000000E+02  0.51100000000E-03 0. -1.
    9900012    2    1    2    0    0  0.16094069121E+01 -0.36815446869E+01  0.44866128290E+02  0.46142318413E+02  0.10000005947E+02 0.  0.
         12    1    1    2    0    0 -0.16094069121E+01  0.36815446869E+01 -0.44866128290E+02  0.45045681587E+02  0.00000000000E+00 0. -1.
         11    1    3    3    0    0  0.71690985472E+00 -0.37045210468E+00  0.22617019439E+02  0.22631410983E+02  0.51100000000E-03 0. -1.
        -11    1    3    3    0    0  0.62586204035E+00 -0.16448834304E+01  0.21648314301E+02  0.21719734278E+02  0.51100000000E-03 0.  1.
         12    1    3    3    0    0  0.26663501705E+00 -0.16662091519E+01  0.60079454993E+00  0.17911731523E+01  0.00000000000E+00 0. -1.
</event>
<event>
 7    1  0.2328810E-008  0.4614232E+02  0.7816164E-02  0.1320468E+00
        -11   -1    0    0    0    0  0.00000000000E+00  0.00000000000E+00  0.45593999997E+02  0.45594000000E+02  0.51100000000E-03 0. -1.
         11   -1    0    0    0    0 -0.00000000000E+00 -0.00000000000E+00 -0.45593999997E+02  0.45594000000E+02  0.51100000000E-03 0.  1.
    9900012    2    1    2    0    0  0.21291430564E+02  0.36658454990E+02  0.15229758814E+02  0.46142324389E+02  0.10000060436E+02 0.  0.
         12    1    1    2    0    0 -0.21291430564E+02 -0.36658454990E+02 -0.15229758814E+02  0.45045675611E+02  0.00000000000E+00 0. -1.
         11    1    3    3    0    0  0.18948317297E+02  0.25457098326E+02  0.12332717595E+02  0.34047004378E+02  0.51100000000E-03 0. -1.
        -11    1    3    3    0    0 -0.19960433097E+00  0.20139937696E+00 -0.24662375800E+00  0.37580199189E+00  0.51100000000E-03 0.  1.
         12    1    3    3    0    0  0.25427175978E+01  0.10999957288E+02  0.31436649769E+01  0.11719518019E+02  0.00000000000E+00 0. -1.
</event>
<event>
 7    1  0.2328810E-008  0.4614232E+02  0.7816164E-02  0.1320468E+00
        -11   -1    0    0    0    0  0.00000000000E+00  0.00000000000E+00  0.45593999997E+02  0.45594000000E+02  0.51100000000E-03 0. -1.
         11   -1    0    0    0    0 -0.00000000000E+00 -0.00000000000E+00 -0.45593999997E+02  0.45594000000E+02  0.51100000000E-03 0.  1.
    9900012    2    1    2    0    0  0.15778304515E+02  0.39066137197E+02 -0.15937237092E+02  0.46142317688E+02  0.99999993343E+01 0.  0.
         12    1    1    2    0    0 -0.15778304515E+02 -0.39066137197E+02  0.15937237092E+02  0.45045682312E+02  0.00000000000E+00 0. -1.
         11    1    3    3    0    0  0.51843062537E+01  0.91718091350E+01 -0.33576156279E+01  0.11057698545E+02  0.51100000000E-03 0. -1.
        -11    1    3    3    0    0  0.20648609721E+01  0.63822894689E+01 -0.65096799591E+01  0.93473634320E+01  0.51100000000E-03 0.  1.
        -12    1    3    3    0    0  0.85291372888E+01  0.23512038593E+02 -0.60699415047E+01  0.25737255711E+02  0.00000000000E+00 0.  1.
</event>
<event>
 7    1  0.2328810E-008  0.4614232E+02  0.7816164E-02  0.1320468E+00
        -11   -1    0    0    0    0  0.00000000000E+00  0.00000000000E+00  0.45593999997E+02  0.45594000000E+02  0.51100000000E-03 0. -1.
         11   -1    0    0    0    0 -0.00000000000E+00 -0.00000000000E+00 -0.45593999997E+02  0.45594000000E+02  0.51100000000E-03 0.  1.
    9900012    2    1    2    0    0  0.33050793093E+02 -0.15094711128E+02 -0.26625331013E+02  0.46142317858E+02  0.10000000882E+02 0.  0.
         12    1    1    2    0    0 -0.33050793093E+02  0.15094711128E+02  0.26625331013E+02  0.45045682142E+02  0.00000000000E+00 0. -1.
         11    1    3    3    0    0  0.10959267258E+02 -0.66752727340E+01 -0.12135940323E+02  0.17661988922E+02  0.51100000000E-03 0. -1.
        -11    1    3    3    0    0  0.22343193681E+02 -0.75134770037E+01 -0.14053161420E+02  0.27443796871E+02  0.51100000000E-03 0.  1.
         12    1    3    3    0    0 -0.25166784591E+00 -0.90596139026E+00 -0.43622927064E+00  0.10365320651E+01  0.00000000000E+00 0. -1.
</event>
<event>
 7    1  0.2328810E-008  0.4614231E+02  0.7816164E-02  0.1320468E+00
        -11   -1    0    0    0    0  0.00000000000E+00  0.00000000000E+00  0.45593999997E+02  0.45594000000E+02  0.51100000000E-03 0. -1.
         11   -1    0    0    0    0 -0.00000000000E+00 -0.00000000000E+00 -0.45593999997E+02  0.45594000000E+02  0.51100000000E-03 0.  1.
    9900012    2    1    2    0    0  0.14415764325E+02  0.23914303915E+02 -0.35346935389E+02  0.46142311703E+02  0.99999447528E+01 0.  0.
         12    1    1    2    0    0 -0.14415764325E+02 -0.23914303915E+02  0.35346935389E+02  0.45045688297E+02  0.00000000000E+00 0. -1.
         11    1    3    3    0    0  0.32596387267E+01  0.56211503750E+01 -0.30620509837E+01  0.71832257834E+01  0.51100000000E-03 0. -1.
        -11    1    3    3    0    0  0.10771427819E+01  0.36175071321E+01 -0.80167911669E+01  0.88608992376E+01  0.51100000000E-03 0.  1.
         12    1    3    3    0    0  0.10078982816E+02  0.14675646408E+02 -0.24268093238E+02  0.30098186682E+02  0.00000000000E+00 0. -1.
</event>
<event>
 7    1  0.2328810E-008  0.4614232E+02  0.7816164E-02  0.1320468E+00
        -11   -1    0    0    0    0  0.00000000000E+00  0.00000000000E+00  0.45593999997E+02  0.45594000000E+02  0.51100000000E-03 0. -1.
         11   -1    0    0    0    0 -0.00000000000E+00 -0.00000000000E+00 -0.45593999997E+02  0.45594000000E+02  0.51100000000E-03 0.  1.
    9900012    2    1    2    0    0  0.63750726226E+01  0.32328819595E+02 -0.30713505054E+02  0.46142317410E+02  0.99999967947E+01 0.  0.
         12    1    1    2    0    0 -0.63750726226E+01 -0.32328819595E+02  0.30713505054E+02  0.45045682590E+02  0.00000000000E+00 0. -1.
         11    1    3    3    0    0  0.24300851676E+01  0.18574331759E+01 -0.12178133395E+01  0.32921788402E+01  0.51100000000E-03 0. -1.
        -11    1    3    3    0    0  0.30569409846E+01  0.12090928764E+02 -0.95153185518E+01  0.15686833140E+02  0.51100000000E-03 0.  1.
         12    1    3    3    0    0  0.88804647038E+00  0.18380457655E+02 -0.19980373162E+02  0.27163305429E+02  0.00000000000E+00 0. -1.
</event>
<event>
 7    1  0.2328810E-008  0.4614232E+02  0.7816164E-02  0.1320468E+00
        -11   -1    0    0    0    0  0.00000000000E+00  0.00000000000E+00  0.45593999997E+02  0.45594000000E+02  0.51100000000E-03 0.  1.
         11   -1    0    0    0    0 -0.00000000000E+00 -0.00000000000E+00 -0.45593999997E+02  0.45594000000E+02  0.51100000000E-03 0. -1.
    9900012    2    1    2    0    0 -0.17010993451E+02  0.24328338974E+01  0.41639174733E+02  0.46142318172E+02  0.10000003744E+02 0.  0.
         12    1    1    2    0    0  0.17010993451E+02 -0.24328338974E+01 -0.41639174733E+02  0.45045681828E+02  0.00000000000E+00 0. -1.
         11    1    3    3    0    0 -0.97681720844E+01  0.35524634033E+01  0.17268573633E+02  0.20155416584E+02  0.51100000000E-03 0.  1.
        -11    1    3    3    0    0 -0.79609055415E+01 -0.47609116013E+00  0.20465203371E+02  0.21964226121E+02  0.51100000000E-03 0. -1.
         12    1    3    3    0    0  0.71808417538E+00 -0.64353834575E+00  0.39053977292E+01  0.40226754665E+01  0.00000000000E+00 0. -1.
</event>
<event>
 7    1  0.2328810E-008  0.4614232E+02  0.7816164E-02  0.1320468E+00
        -11   -1    0    0    0    0  0.00000000000E+00  0.00000000000E+00  0.45593999997E+02  0.45594000000E+02  0.51100000000E-03 0.  1.
         11   -1    0    0    0    0 -0.00000000000E+00 -0.00000000000E+00 -0.45593999997E+02  0.45594000000E+02  0.51100000000E-03 0. -1.
    9900012    2    1    2    0    0  0.11116668995E+02  0.38176668765E+02  0.21167772058E+02  0.46142323832E+02  0.10000055357E+02 0.  0.
         12    1    1    2    0    0 -0.11116668995E+02 -0.38176668765E+02 -0.21167772058E+02  0.45045676168E+02  0.00000000000E+00 0. -1.
         11    1    3    3    0    0  0.11290386225E+01  0.53194368250E+00 -0.43358001855E+00  0.13212434242E+01  0.51100000000E-03 0. -1.
        -11    1    3    3    0    0  0.30386893385E+01  0.20666924677E+02  0.10512364087E+02  0.23385149293E+02  0.51100000000E-03 0.  1.
         12    1    3    3    0    0  0.69489410344E+01  0.16977800406E+02  0.11088987989E+02  0.21435931115E+02  0.00000000000E+00 0. -1.
</event>
<event>
 7    1  0.2328810E-008  0.4614232E+02  0.7816164E-02  0.1320468E+00
        -11   -1    0    0    0    0  0.00000000000E+00  0.00000000000E+00  0.45593999997E+02  0.45594000000E+02  0.51100000000E-03 0. -1.
         11   -1    0    0    0    0 -0.00000000000E+00 -0.00000000000E+00 -0.45593999997E+02  0.45594000000E+02  0.51100000000E-03 0.  1.
    9900012    2    1    2    0    0 -0.99226454092E+01  0.32754995176E+01 -0.43816956368E+02  0.46142318138E+02  0.10000003441E+02 0.  0.
         12    1    1    2    0    0  0.99226454092E+01 -0.32754995176E+01  0.43816956368E+02  0.45045681862E+02  0.00000000000E+00 0. -1.
         11    1    3    3    0    0  0.83507833398E+00  0.24414193697E+01 -0.35402407789E+01  0.43807749767E+01  0.51100000000E-03 0. -1.
        -11    1    3    3    0    0 -0.32503091440E+01  0.12773142206E+01 -0.11520181735E+02  0.12037883062E+02  0.51100000000E-03 0.  1.
         12    1    3    3    0    0 -0.75074145992E+01 -0.44323407265E+00 -0.28756533854E+02  0.29723660100E+02  0.00000000000E+00 0. -1.
</event>
<event>
 7    1  0.2328810E-008  0.4614232E+02  0.7816164E-02  0.1320468E+00
        -11   -1    0    0    0    0  0.00000000000E+00  0.00000000000E+00  0.45593999997E+02  0.45594000000E+02  0.51100000000E-03 0.  1.
         11   -1    0    0    0    0 -0.00000000000E+00 -0.00000000000E+00 -0.45593999997E+02  0.45594000000E+02  0.51100000000E-03 0. -1.
    9900012    2    1    2    0    0  0.26252686693E+02  0.10919101599E+02  0.34938276774E+02  0.46142317385E+02  0.99999965720E+01 0.  0.
         12    1    1    2    0    0 -0.26252686693E+02 -0.10919101599E+02 -0.34938276774E+02  0.45045682615E+02  0.00000000000E+00 0. -1.
         11    1    3    3    0    0  0.39698644650E+01  0.12503163547E+01  0.88922817973E+01  0.98181358048E+01  0.51100000000E-03 0. -1.
        -11    1    3    3    0    0  0.11907644753E+02  0.23443925512E+01  0.16267308944E+02  0.20295652749E+02  0.51100000000E-03 0.  1.
         12    1    3    3    0    0  0.10375177476E+02  0.73243926930E+01  0.97786860327E+01  0.16028528831E+02  0.00000000000E+00 0. -1.
</event>
<event>
 7    1  0.2328810E-008  0.4614232E+02  0.7816164E-02  0.1320468E+00
        -11   -1    0    0    0    0  0.00000000000E+00  0.00000000000E+00  0.45593999997E+02  0.45594000000E+02  0.51100000000E-03 0.  1.
         11   -1    0    0    0    0 -0.00000000000E+00 -0.00000000000E+00 -0.45593999997E+02  0.45594000000E+02  0.51100000000E-03 0. -1.
    9900012    2    1    2    0    0 -0.64690394462E+01 -0.40350674292E+02  0.18949616131E+02  0.46142319423E+02  0.10000015151E+02 0.  0.
         12    1    1    2    0    0  0.64690394462E+01  0.40350674292E+02 -0.18949616131E+02  0.45045680577E+02  0.00000000000E+00 0. -1.
         11    1    3    3    0    0 -0.20457953264E+01 -0.16228672295E+02  0.11682798312E+02  0.20100817387E+02  0.51100000000E-03 0.  1.
        -11    1    3    3    0    0  0.22334737724E+00 -0.17506926647E+01  0.18552750528E+01  0.25606355929E+01  0.51100000000E-03 0. -1.
        -12    1    3    3    0    0 -0.46465914971E+01 -0.22371309332E+02  0.54115427662E+01  0.23480866442E+02  0.00000000000E+00 0.  1.
</event>
<event>
 7    1  0.2328810E-008  0.4614232E+02  0.7816164E-02  0.1320468E+00
        -11   -1    0    0    0    0  0.00000000000E+00  0.00000000000E+00  0.45593999997E+02  0.45594000000E+02  0.51100000000E-03 0. -1.
         11   -1    0    0    0    0 -0.00000000000E+00 -0.00000000000E+00 -0.45593999997E+02  0.45594000000E+02  0.51100000000E-03 0.  1.
    9900012    2    1    2    0    0  0.44287485586E+02  0.24614396967E+00  0.82262637376E+01  0.46142318947E+02  0.10000010818E+02 0.  0.
         12    1    1    2    0    0 -0.44287485586E+02 -0.24614396967E+00 -0.82262637376E+01  0.45045681053E+02  0.00000000000E+00 0. -1.
         11    1    3    3    0    0  0.37890056482E+01 -0.81026351434E+00 -0.80352578148E+00  0.39571131785E+01  0.51100000000E-03 0. -1.
        -11    1    3    3    0    0  0.23192232325E+02 -0.30953116981E+01  0.56390119955E+01  0.24067801131E+02  0.51100000000E-03 0.  1.
        -12    1    3    3    0    0  0.17306247613E+02  0.41517191821E+01  0.33907775237E+01  0.18117404638E+02  0.00000000000E+00 0.  1.
</event>
<event>
 7    1  0.2328810E-008  0.4614232E+02  0.7816164E-02  0.1320468E+00
        -11   -1    0    0    0    0  0.00000000000E+00  0.00000000000E+00  0.45593999997E+02  0.45594000000E+02  0.51100000000E-03 0.  1.
         11   -1    0    0    0    0 -0.00000000000E+00 -0.00000000000E+00 -0.45593999997E+02  0.45594000000E+02  0.51100000000E-03 0. -1.
    9900012    2    1    2    0    0 -0.23092064755E+01 -0.26971682022E+02 -0.36004300529E+02  0.46142315165E+02  0.99999763287E+01 0.  0.
         12    1    1    2    0    0  0.23092064755E+01  0.26971682022E+02  0.36004300529E+02  0.45045684835E+02  0.00000000000E+00 0. -1.
         11    1    3    3    0    0  0.78784164997E+00 -0.54044794502E+01 -0.74097803389E+01  0.92051038845E+01  0.51100000000E-03 0. -1.
        -11    1    3    3    0    0 -0.50513963503E+01 -0.15489218339E+02 -0.24250468369E+02  0.29215025350E+02  0.51100000000E-03 0.  1.
        -12    1    3    3    0    0  0.19543482249E+01 -0.60779842332E+01 -0.43440518214E+01  0.77221859308E+01  0.00000000000E+00 0.  1.
</event>
<event>
 7    1  0.2328810E-008  0.4614231E+02  0.7816164E-02  0.1320468E+00
        -11   -1    0    0    0    0  0.00000000000E+00  0.00000000000E+00  0.45593999997E+02  0.45594000000E+02  0.51100000000E-03 0.  1.
         11   -1    0    0    0    0 -0.00000000000E+00 -0.00000000000E+00 -0.45593999997E+02  0.45594000000E+02  0.51100000000E-03 0. -1.
    9900012    2    1    2    0    0  0.39914041255E+02  0.48467540604E+01  0.20309901095E+02  0.46142314338E+02  0.99999687881E+01 0.  0.
         12    1    1    2    0    0 -0.39914041255E+02 -0.48467540604E+01 -0.20309901095E+02  0.45045685662E+02  0.00000000000E+00 0. -1.
         11    1    3    3    0    0  0.60781690950E+01  0.35691732939E+01  0.53989395859E+01  0.88787209925E+01  0.51100000000E-03 0.  1.
        -11    1    3    3    0    0  0.16371783268E+02 -0.15661146904E+01  0.76251397258E+01  0.18128175824E+02  0.51100000000E-03 0. -1.
         12    1    3    3    0    0  0.17464088892E+02  0.28436954570E+01  0.72858217836E+01  0.19135417522E+02  0.00000000000E+00 0. -1.
</event>
<event>
 7    1  0.2328810E-008  0.4614232E+02  0.7816164E-02  0.1320468E+00
        -11   -1    0    0    0    0  0.00000000000E+00  0.00000000000E+00  0.45593999997E+02  0.45594000000E+02  0.51100000000E-03 0.  1.
         11   -1    0    0    0    0 -0.00000000000E+00 -0.00000000000E+00 -0.45593999997E+02  0.45594000000E+02  0.51100000000E-03 0. -1.
    9900012    2    1    2    0    0 -0.13965958485E+02 -0.17173121020E+02  0.39231994650E+02  0.46142317786E+02  0.10000000226E+02 0.  0.
         12    1    1    2    0    0  0.13965958485E+02  0.17173121020E+02 -0.39231994650E+02  0.45045682214E+02  0.00000000000E+00 0. -1.
         11    1    3    3    0    0 -0.31036999450E+01 -0.73149421323E+01  0.12478580559E+02  0.14793792779E+02  0.51100000000E-03 0. -1.
        -11    1    3    3    0    0 -0.10179225533E+02 -0.93935329684E+01  0.27114072401E+02  0.30447134783E+02  0.51100000000E-03 0.  1.
        -12    1    3    3    0    0 -0.68303300678E+00 -0.46464591911E+00 -0.36065831074E+00  0.90139022382E+00  0.00000000000E+00 0.  1.
</event>
<event>
 7    1  0.2328810E-008  0.4614232E+02  0.7816164E-02  0.1320468E+00
        -11   -1    0    0    0    0  0.00000000000E+00  0.00000000000E+00  0.45593999997E+02  0.45594000000E+02  0.51100000000E-03 0.  1.
         11   -1    0    0    0    0 -0.00000000000E+00 -0.00000000000E+00 -0.45593999997E+02  0.45594000000E+02  0.51100000000E-03 0. -1.
    9900012    2    1    2    0    0  0.39078210477E+02 -0.21448122777E+02  0.64795775790E+01  0.46142318405E+02  0.10000005874E+02 0.  0.
         12    1    1    2    0    0 -0.39078210477E+02  0.21448122777E+02 -0.64795775790E+01  0.45045681595E+02  0.00000000000E+00 0. -1.
         11    1    3    3    0    0  0.13921764922E+01 -0.81368198330E+00 -0.49114494506E+00  0.16856622952E+01  0.51100000000E-03 0. -1.
        -11    1    3    3    0    0  0.18105328205E+02 -0.60986618505E+01  0.41278933182E-01  0.19104928422E+02  0.51100000000E-03 0.  1.
        -12    1    3    3    0    0  0.19580705779E+02 -0.14535778943E+02  0.69294435909E+01  0.25351727688E+02  0.00000000000E+00 0.  1.
</event>
<event>
 7    1  0.2328810E-008  0.4614232E+02  0.7816164E-02  0.1320468E+00
        -11   -1    0    0    0    0  0.00000000000E+00  0.00000000000E+00  0.45593999997E+02  0.45594000000E+02  0.51100000000E-03 0. -1.
         11   -1    0    0    0    0 -0.00000000000E+00 -0.00000000000E+00 -0.45593999997E+02  0.45594000000E+02  0.51100000000E-03 0.  1.
    9900012    2    1    2    0    0 -0.34221117143E+02 -0.12832005876E+01 -0.29264005337E+02  0.46142317959E+02  0.10000001801E+02 0.  0.
         12    1    1    2    0    0  0.34221117143E+02  0.12832005876E+01  0.29264005337E+02  0.45045682041E+02  0.00000000000E+00 0. -1.
         11    1    3    3    0    0 -0.12372027234E+02 -0.12095318301E+01 -0.12158641902E+02  0.17388576660E+02  0.51100000000E-03 0. -1.
        -11    1    3    3    0    0 -0.15038742075E+02 -0.16220775997E+01 -0.15354323450E+02  0.21553425431E+02  0.51100000000E-03 0.  1.
         12    1    3    3    0    0 -0.68103478336E+01  0.15484088422E+01 -0.17510399851E+01  0.72003158671E+01  0.00000000000E+00 0. -1.
</event>
<event>
 7    1  0.2328810E-008  0.4614232E+02  0.7816164E-02  0.1320468E+00
        -11   -1    0    0    0    0  0.00000000000E+00  0.00000000000E+00  0.45593999997E+02  0.45594000000E+02  0.51100000000E-03 0.  1.
         11   -1    0    0    0    0 -0.00000000000E+00 -0.00000000000E+00 -0.45593999997E+02  0.45594000000E+02  0.51100000000E-03 0. -1.
    9900012    2    1    2    0    0 -0.41239906707E+02  0.72535090823E+01  0.16606329724E+02  0.46142317786E+02  0.10000000227E+02 0.  0.
         12    1    1    2    0    0  0.41239906707E+02 -0.72535090823E+01 -0.16606329724E+02  0.45045682214E+02  0.00000000000E+00 0. -1.
         11    1    3    3    0    0 -0.20312530621E+02  0.30005563764E+01  0.77582533672E+01  0.21949777547E+02  0.51100000000E-03 0. -1.
        -11    1    3    3    0    0 -0.21478412217E+02  0.43697248709E+01  0.88264340558E+01  0.23628851543E+02  0.51100000000E-03 0.  1.
         12    1    3    3    0    0  0.55103613144E+00 -0.11677216501E+00  0.21642300996E-01  0.56368869589E+00  0.00000000000E+00 0. -1.
</event>
<event>
 7    1  0.2328810E-008  0.4614232E+02  0.7816164E-02  0.1320468E+00
        -11   -1    0    0    0    0  0.00000000000E+00  0.00000000000E+00  0.45593999997E+02  0.45594000000E+02  0.51100000000E-03 0.  1.
         11   -1    0    0    0    0 -0.00000000000E+00 -0.00000000000E+00 -0.45593999997E+02  0.45594000000E+02  0.51100000000E-03 0. -1.
    9900012    2    1    2    0    0 -0.40103317984E+02 -0.19877037196E+02  0.50735600469E+01  0.46142315051E+02  0.99999752869E+01 0.  0.
         12    1    1    2    0    0  0.40103317984E+02  0.19877037196E+02 -0.50735600469E+01  0.45045684949E+02  0.00000000000E+00 0. -1.
         11    1    3    3    0    0 -0.17528022058E+02 -0.82291328137E+01  0.53189719277E+01  0.20080877639E+02  0.51100000000E-03 0. -1.
        -11    1    3    3    0    0 -0.42699981832E+01 -0.26384281350E+01  0.22621704991E+01  0.55055974368E+01  0.51100000000E-03 0.  1.
         12    1    3    3    0    0 -0.18305297743E+02 -0.90094762471E+01 -0.25075823799E+01  0.20555839975E+02  0.00000000000E+00 0. -1.
</event>
<event>
 7    1  0.2328810E-008  0.4614232E+02  0.7816164E-02  0.1320468E+00
        -11   -1    0    0    0    0  0.00000000000E+00  0.00000000000E+00  0.45593999997E+02  0.45594000000E+02  0.51100000000E-03 0.  1.
         11   -1    0    0    0    0 -0.00000000000E+00 -0.00000000000E+00 -0.45593999997E+02  0.45594000000E+02  0.51100000000E-03 0. -1.
    9900012    2    1    2    0    0 -0.16868466633E+01 -0.16967415407E+02  0.41693822967E+02  0.46142317512E+02  0.99999977254E+01 0.  0.
         12    1    1    2    0    0  0.16868466633E+01  0.16967415407E+02 -0.41693822967E+02  0.45045682488E+02  0.00000000000E+00 0. -1.
         11    1    3    3    0    0  0.17253559092E+01 -0.46396960912E+01  0.92443336292E+01  0.10486245150E+02  0.51100000000E-03 0. -1.
        -11    1    3    3    0    0  0.30033981978E+00 -0.10482360038E+02  0.25370899748E+02  0.27452734477E+02  0.51100000000E-03 0.  1.
         12    1    3    3    0    0 -0.37125423922E+01 -0.18453592775E+01  0.70785895896E+01  0.82033378850E+01  0.00000000000E+00 0. -1.
</event>
<event>
 7    1  0.2328810E-008  0.4614232E+02  0.7816164E-02  0.1320468E+00
        -11   -1    0    0    0    0  0.00000000000E+00  0.00000000000E+00  0.45593999997E+02  0.45594000000E+02  0.51100000000E-03 0.  1.
         11   -1    0    0    0    0 -0.00000000000E+00 -0.00000000000E+00 -0.45593999997E+02  0.45594000000E+02  0.51100000000E-03 0. -1.
    9900012    2    1    2    0    0 -0.17883166183E+02 -0.20327473526E+02  0.36001382107E+02  0.46142319560E+02  0.10000016402E+02 0.  0.
         12    1    1    2    0    0  0.17883166183E+02  0.20327473526E+02 -0.36001382107E+02  0.45045680440E+02  0.00000000000E+00 0. -1.
         11    1    3    3    0    0 -0.39196254799E+01 -0.21406600661E+01  0.63482617913E+01  0.77618501308E+01  0.51100000000E-03 0. -1.
        -11    1    3    3    0    0 -0.44160561177E+01 -0.24638157039E+01  0.11376441981E+02  0.12449713727E+02  0.51100000000E-03 0.  1.
        -12    1    3    3    0    0 -0.95474845852E+01 -0.15722997756E+02  0.18276678335E+02  0.25930755702E+02  0.00000000000E+00 0.  1.
</event>
<event>
 7    1  0.2328810E-008  0.4614232E+02  0.7816164E-02  0.1320468E+00
        -11   -1    0    0    0    0  0.00000000000E+00  0.00000000000E+00  0.45593999997E+02  0.45594000000E+02  0.51100000000E-03 0.  1.
         11   -1    0    0    0    0 -0.00000000000E+00 -0.00000000000E+00 -0.45593999997E+02  0.45594000000E+02  0.51100000000E-03 0. -1.
    9900012    2    1    2    0    0  0.70060779876E+01 -0.80821408128E+00  0.44490168874E+02  0.46142318018E+02  0.10000002344E+02 0.  0.
         12    1    1    2    0    0 -0.70060779876E+01  0.80821408128E+00 -0.44490168874E+02  0.45045681982E+02  0.00000000000E+00 0. -1.
         11    1    3    3    0    0 -0.14321987501E+01  0.37197863294E+00  0.13628333008E+02  0.13708428875E+02  0.51100000000E-03 0. -1.
        -11    1    3    3    0    0 -0.36362905501E-01 -0.13115401503E+01  0.67352606057E+01  0.68618653086E+01  0.51100000000E-03 0.  1.
        -12    1    3    3    0    0  0.84746396433E+01  0.13134743611E+00  0.24126575260E+02  0.25572023835E+02  0.00000000000E+00 0.  1.
</event>
<event>
 7    1  0.2328810E-008  0.4614232E+02  0.7816164E-02  0.1320468E+00
        -11   -1    0    0    0    0  0.00000000000E+00  0.00000000000E+00  0.45593999997E+02  0.45594000000E+02  0.51100000000E-03 0. -1.
         11   -1    0    0    0    0 -0.00000000000E+00 -0.00000000000E+00 -0.45593999997E+02  0.45594000000E+02  0.51100000000E-03 0.  1.
    9900012    2    1    2    0    0 -0.27722558999E+02  0.24666385370E+02 -0.25537087032E+02  0.46142315870E+02  0.99999827508E+01 0.  0.
         12    1    1    2    0    0  0.27722558999E+02 -0.24666385370E+02  0.25537087032E+02  0.45045684130E+02  0.00000000000E+00 0. -1.
         11    1    3    3    0    0 -0.19578265010E+02  0.16832583350E+02 -0.16326454343E+02  0.30548280389E+02  0.51100000000E-03 0. -1.
        -11    1    3    3    0    0 -0.44571794525E+01  0.11040614729E+01 -0.51940584349E+01  0.69327947968E+01  0.51100000000E-03 0.  1.
         12    1    3    3    0    0 -0.36871145361E+01  0.67297405480E+01 -0.40165742546E+01  0.86612406841E+01  0.00000000000E+00 0. -1.
</event>
<event>
 7    1  0.2328810E-008  0.4614232E+02  0.7816164E-02  0.1320468E+00
        -11   -1    0    0    0    0  0.00000000000E+00  0.00000000000E+00  0.45593999997E+02  0.45594000000E+02  0.51100000000E-03 0.  1.
         11   -1    0    0    0    0 -0.00000000000E+00 -0.00000000000E+00 -0.45593999997E+02  0.45594000000E+02  0.51100000000E-03 0. -1.
    9900012    2    1    2    0    0 -0.32425749204E+02 -0.15212875616E+02  0.27317626506E+02  0.46142317478E+02  0.99999974178E+01 0.  0.
         12    1    1    2    0    0  0.32425749204E+02  0.15212875616E+02 -0.27317626506E+02  0.45045682522E+02  0.00000000000E+00 0. -1.
         11    1    3    3    0    0  0.27179832229E+00 -0.97798466968E-01  0.33362268501E+00  0.44129720735E+00  0.51100000000E-03 0. -1.
        -11    1    3    3    0    0 -0.30210928327E+02 -0.14650382159E+02  0.27130531566E+02  0.43167112842E+02  0.51100000000E-03 0.  1.
        -12    1    3    3    0    0 -0.24866191994E+01 -0.46469499013E+00 -0.14652774526E+00  0.25339074286E+01  0.00000000000E+00 0.  1.
</event>
<event>
 7    1  0.2328810E-008  0.4614232E+02  0.7816164E-02  0.1320468E+00
        -11   -1    0    0    0    0  0.00000000000E+00  0.00000000000E+00  0.45593999997E+02  0.45594000000E+02  0.51100000000E-03 0. -1.
         11   -1    0    0    0    0 -0.00000000000E+00 -0.00000000000E+00 -0.45593999997E+02  0.45594000000E+02  0.51100000000E-03 0.  1.
    9900012    2    1    2    0    0 -0.20638225185E+02  0.39469495374E+02  0.67332099767E+01  0.46142317405E+02  0.99999967521E+01 0.  0.
         12    1    1    2    0    0  0.20638225185E+02 -0.39469495374E+02 -0.67332099767E+01  0.45045682595E+02  0.00000000000E+00 0. -1.
         11    1    3    3    0    0 -0.11013396903E+02  0.21119272557E+02  0.46176554651E+01  0.24261931641E+02  0.51100000000E-03 0.  1.
        -11    1    3    3    0    0 -0.66078679363E+01  0.15791724362E+02 -0.52116218168E+00  0.17126414899E+02  0.51100000000E-03 0. -1.
         12    1    3    3    0    0 -0.30169603454E+01  0.25584984543E+01  0.26367166933E+01  0.47539708652E+01  0.00000000000E+00 0. -1.
</event>
<event>
 7    1  0.2328810E-008  0.4614232E+02  0.7816164E-02  0.1320468E+00
        -11   -1    0    0    0    0  0.00000000000E+00  0.00000000000E+00  0.45593999997E+02  0.45594000000E+02  0.51100000000E-03 0.  1.
         11   -1    0    0    0    0 -0.00000000000E+00 -0.00000000000E+00 -0.45593999997E+02  0.45594000000E+02  0.51100000000E-03 0. -1.
    9900012    2    1    2    0    0  0.16557126243E+02  0.40051969350E+02  0.12280662689E+02  0.46142319249E+02  0.10000013571E+02 0.  0.
         12    1    1    2    0    0 -0.16557126243E+02 -0.40051969350E+02 -0.12280662689E+02  0.45045680751E+02  0.00000000000E+00 0. -1.
         11    1    3    3    0    0  0.39514377990E+01  0.13813906897E+02  0.62012316642E+01  0.15649062555E+02  0.51100000000E-03 0. -1.
        -11    1    3    3    0    0 -0.44792420035E+00  0.26044883409E+01 -0.53399151922E+00  0.26961347910E+01  0.51100000000E-03 0.  1.
        -12    1    3    3    0    0  0.13053612644E+02  0.23633574111E+02  0.66134225442E+01  0.27797121903E+02  0.00000000000E+00 0.  1.
</event>
<event>
 7    1  0.2328810E-008  0.4614232E+02  0.7816164E-02  0.1320468E+00
        -11   -1    0    0    0    0  0.00000000000E+00  0.00000000000E+00  0.45593999997E+02  0.45594000000E+02  0.51100000000E-03 0. -1.
         11   -1    0    0    0    0 -0.00000000000E+00 -0.00000000000E+00 -0.45593999997E+02  0.45594000000E+02  0.51100000000E-03 0.  1.
    9900012    2    1    2    0    0 -0.18820982224E+02 -0.17148447573E+02 -0.37159317219E+02  0.46142317829E+02  0.10000000621E+02 0.  0.
         12    1    1    2    0    0  0.18820982224E+02  0.17148447573E+02  0.37159317219E+02  0.45045682171E+02  0.00000000000E+00 0. -1.
         11    1    3    3    0    0  0.57510271147E+00 -0.15197188277E+01 -0.32772462498E+01  0.36579545770E+01  0.51100000000E-03 0. -1.
        -11    1    3    3    0    0 -0.20995345447E+01 -0.43925067615E+01 -0.83067829559E+01  0.96283334119E+01  0.51100000000E-03 0.  1.
        -12    1    3    3    0    0 -0.17296550391E+02 -0.11236221984E+02 -0.25575288013E+02  0.32856029840E+02  0.00000000000E+00 0.  1.
</event>
<event>
 7    1  0.2328810E-008  0.4614232E+02  0.7816164E-02  0.1320468E+00
        -11   -1    0    0    0    0  0.00000000000E+00  0.00000000000E+00  0.45593999997E+02  0.45594000000E+02  0.51100000000E-03 0. -1.
         11   -1    0    0    0    0 -0.00000000000E+00 -0.00000000000E+00 -0.45593999997E+02  0.45594000000E+02  0.51100000000E-03 0.  1.
    9900012    2    1    2    0    0 -0.41853933501E+01 -0.14790048225E+01 -0.44826425808E+02  0.46142318481E+02  0.10000006565E+02 0.  0.
         12    1    1    2    0    0  0.41853933501E+01  0.14790048225E+01  0.44826425808E+02  0.45045681519E+02  0.00000000000E+00 0. -1.
         11    1    3    3    0    0  0.27350759948E+01  0.48824097953E+00 -0.15640625912E+02  0.15885471322E+02  0.51100000000E-03 0. -1.
        -11    1    3    3    0    0 -0.27866894714E+01  0.42135121313E-01 -0.17117788831E+02  0.17343186221E+02  0.51100000000E-03 0.  1.
        -12    1    3    3    0    0 -0.41337798736E+01 -0.20093809233E+01 -0.12068011066E+02  0.12913660938E+02  0.00000000000E+00 0.  1.
</event>
<event>
 7    1  0.2328810E-008  0.4614232E+02  0.7816164E-02  0.1320468E+00
        -11   -1    0    0    0    0  0.00000000000E+00  0.00000000000E+00  0.45593999997E+02  0.45594000000E+02  0.51100000000E-03 0.  1.
         11   -1    0    0    0    0 -0.00000000000E+00 -0.00000000000E+00 -0.45593999997E+02  0.45594000000E+02  0.51100000000E-03 0. -1.
    9900012    2    1    2    0    0 -0.33324792286E+02 -0.12803068154E+02  0.27470951183E+02  0.46142317699E+02  0.99999994331E+01 0.  0.
         12    1    1    2    0    0  0.33324792286E+02  0.12803068154E+02 -0.27470951183E+02  0.45045682301E+02  0.00000000000E+00 0. -1.
         11    1    3    3    0    0 -0.12731063672E+02 -0.12694367885E+01  0.11439390590E+02  0.17162491349E+02  0.51100000000E-03 0. -1.
        -11    1    3    3    0    0 -0.13183581898E+02 -0.46135746522E+01  0.10057592012E+02  0.17211829074E+02  0.51100000000E-03 0.  1.
         12    1    3    3    0    0 -0.74101467158E+01 -0.69200567137E+01  0.59739685810E+01  0.11767997276E+02  0.00000000000E+00 0. -1.
</event>
<event>
 7    1  0.2328810E-008  0.4614232E+02  0.7816164E-02  0.1320468E+00
        -11   -1    0    0    0    0  0.00000000000E+00  0.00000000000E+00  0.45593999997E+02  0.45594000000E+02  0.51100000000E-03 0.  1.
         11   -1    0    0    0    0 -0.00000000000E+00 -0.00000000000E+00 -0.45593999997E+02  0.45594000000E+02  0.51100000000E-03 0. -1.
    9900012    2    1    2    0    0 -0.11520833345E+02  0.40393996571E+02  0.16269877660E+02  0.46142317865E+02  0.10000000945E+02 0.  0.
         12    1    1    2    0    0  0.11520833345E+02 -0.40393996571E+02 -0.16269877660E+02  0.45045682135E+02  0.00000000000E+00 0. -1.
         11    1    3    3    0    0 -0.69720911173E+01  0.23183157657E+02  0.87316479497E+01  0.25735394492E+02  0.51100000000E-03 0. -1.
        -11    1    3    3    0    0 -0.56907884456E+01  0.13664750789E+02  0.76853166659E+01  0.16678566478E+02  0.51100000000E-03 0.  1.
         12    1    3    3    0    0  0.11420462181E+01  0.35460881252E+01 -0.14708695550E+00  0.37283568939E+01  0.00000000000E+00 0. -1.
</event>
<event>
 7    1  0.2328810E-008  0.4614232E+02  0.7816164E-02  0.1320468E+00
        -11   -1    0    0    0    0  0.00000000000E+00  0.00000000000E+00  0.45593999997E+02  0.45594000000E+02  0.51100000000E-03 0.  1.
         11   -1    0    0    0    0 -0.00000000000E+00 -0.00000000000E+00 -0.45593999997E+02  0.45594000000E+02  0.51100000000E-03 0. -1.
    9900012    2    1    2    0    0  0.37676663307E+02  0.14992646521E+02  0.19616395975E+02  0.46142318757E+02  0.10000009078E+02 0.  0.
         12    1    1    2    0    0 -0.37676663307E+02 -0.14992646521E+02 -0.19616395975E+02  0.45045681243E+02  0.00000000000E+00 0. -1.
         11    1    3    3    0    0  0.62428399121E+01  0.19729271687E+01  0.49986174468E+01  0.82372124181E+01  0.51100000000E-03 0. -1.
        -11    1    3    3    0    0  0.28923590758E+02  0.11676393859E+02  0.15623514870E+02  0.34885620147E+02  0.51100000000E-03 0.  1.
         12    1    3    3    0    0  0.25102326372E+01  0.13433254926E+01 -0.10057363420E+01  0.30194861916E+01  0.00000000000E+00 0. -1.
</event>
<event>
 7    1  0.2328810E-008  0.4614232E+02  0.7816164E-02  0.1320468E+00
        -11   -1    0    0    0    0  0.00000000000E+00  0.00000000000E+00  0.45593999997E+02  0.45594000000E+02  0.51100000000E-03 0. -1.
         11   -1    0    0    0    0 -0.00000000000E+00 -0.00000000000E+00 -0.45593999997E+02  0.45594000000E+02  0.51100000000E-03 0.  1.
    9900012    2    1    2    0    0  0.43136159996E+01 -0.53321421479E+01 -0.44520494492E+02  0.46142318157E+02  0.10000003608E+02 0.  0.
         12    1    1    2    0    0 -0.43136159996E+01  0.53321421479E+01  0.44520494492E+02  0.45045681843E+02  0.00000000000E+00 0. -1.
         11    1    3    3    0    0 -0.13603305189E+01 -0.25584062423E+01 -0.40892541152E+01  0.50117802327E+01  0.51100000000E-03 0. -1.
        -11    1    3    3    0    0  0.54343786588E+01 -0.88738389740E+00 -0.26164132413E+02  0.26737272613E+02  0.51100000000E-03 0.  1.
         12    1    3    3    0    0  0.23956785975E+00 -0.18863520082E+01 -0.14267107965E+02  0.14393265312E+02  0.00000000000E+00 0. -1.
</event>
<event>
 7    1  0.2328810E-008  0.4614232E+02  0.7816164E-02  0.1320468E+00
        -11   -1    0    0    0    0  0.00000000000E+00  0.00000000000E+00  0.45593999997E+02  0.45594000000E+02  0.51100000000E-03 0.  1.
         11   -1    0    0    0    0 -0.00000000000E+00 -0.00000000000E+00 -0.45593999997E+02  0.45594000000E+02  0.51100000000E-03 0. -1.
    9900012    2    1    2    0    0  0.21297110295E+02 -0.11700569143E+02  0.37929451688E+02  0.46142317293E+02  0.99999957326E+01 0.  0.
         12    1    1    2    0    0 -0.21297110295E+02  0.11700569143E+02 -0.37929451688E+02  0.45045682707E+02  0.00000000000E+00 0. -1.
         11    1    3    3    0    0  0.35192434696E+01 -0.28645297646E+01  0.13878747389E+02  0.14601720265E+02  0.51100000000E-03 0. -1.
        -11    1    3    3    0    0  0.15090997212E+01 -0.91086352338E+00  0.48291814207E+01  0.51408217030E+01  0.51100000000E-03 0.  1.
         12    1    3    3    0    0  0.16268767105E+02 -0.79251758546E+01  0.19221522878E+02  0.26399775325E+02  0.00000000000E+00 0. -1.
</event>
<event>
 7    1  0.2328810E-008  0.4614232E+02  0.7816164E-02  0.1320468E+00
        -11   -1    0    0    0    0  0.00000000000E+00  0.00000000000E+00  0.45593999997E+02  0.45594000000E+02  0.51100000000E-03 0.  1.
         11   -1    0    0    0    0 -0.00000000000E+00 -0.00000000000E+00 -0.45593999997E+02  0.45594000000E+02  0.51100000000E-03 0. -1.
    9900012    2    1    2    0    0  0.15227906432E+02 -0.48812719018E+01  0.42111726818E+02  0.46142317795E+02  0.10000000310E+02 0.  0.
         12    1    1    2    0    0 -0.15227906432E+02  0.48812719018E+01 -0.42111726818E+02  0.45045682205E+02  0.00000000000E+00 0. -1.
         11    1    3    3    0    0  0.72359769970E+01 -0.28792851802E+01  0.15960880820E+02  0.17759486565E+02  0.51100000000E-03 0. -1.
        -11    1    3    3    0    0  0.78670621398E+01  0.77147170505E+00  0.22106439121E+02  0.23477233358E+02  0.51100000000E-03 0.  1.
         12    1    3    3    0    0  0.12486729548E+00 -0.27734584267E+01  0.40444068780E+01  0.49055978719E+01  0.00000000000E+00 0. -1.
</event>
<event>
 7    1  0.2328810E-008  0.4614232E+02  0.7816164E-02  0.1320468E+00
        -11   -1    0    0    0    0  0.00000000000E+00  0.00000000000E+00  0.45593999997E+02  0.45594000000E+02  0.51100000000E-03 0. -1.
         11   -1    0    0    0    0 -0.00000000000E+00 -0.00000000000E+00 -0.45593999997E+02  0.45594000000E+02  0.51100000000E-03 0.  1.
    9900012    2    1    2    0    0 -0.31377129165E+02  0.18462391112E+02 -0.26527898474E+02  0.46142317436E+02  0.99999970375E+01 0.  0.
         12    1    1    2    0    0  0.31377129165E+02 -0.18462391112E+02  0.26527898474E+02  0.45045682564E+02  0.00000000000E+00 0. -1.
         11    1    3    3    0    0 -0.14872785105E+01  0.13107269742E+01 -0.36820091496E+01  0.41817692676E+01  0.51100000000E-03 0. -1.
        -11    1    3    3    0    0 -0.24929051915E+02  0.10934246800E+02 -0.17075819556E+02  0.32134078425E+02  0.51100000000E-03 0.  1.
        -12    1    3    3    0    0 -0.49607987389E+01  0.62174173383E+01 -0.57700697690E+01  0.98264697438E+01  0.00000000000E+00 0.  1.
</event>
<event>
 7    1  0.2328810E-008  0.4614232E+02  0.7816164E-02  0.1320468E+00
        -11   -1    0    0    0    0  0.00000000000E+00  0.00000000000E+00  0.45593999997E+02  0.45594000000E+02  0.51100000000E-03 0.  1.
         11   -1    0    0    0    0 -0.00000000000E+00 -0.00000000000E+00 -0.45593999997E+02  0.45594000000E+02  0.51100000000E-03 0. -1.
    9900012    2    1    2    0    0 -0.35833673570E+02 -0.26091302840E+02  0.80190531101E+01  0.46142318096E+02  0.10000003056E+02 0.  0.
         12    1    1    2    0    0  0.35833673570E+02  0.26091302840E+02 -0.80190531101E+01  0.45045681904E+02  0.00000000000E+00 0. -1.
         11    1    3    3    0    0 -0.36405100470E+01 -0.64791746593E+01  0.16212703511E+01  0.76066770328E+01  0.51100000000E-03 0. -1.
        -11    1    3    3    0    0 -0.17456497463E+01  0.45523545201E-01  0.50508371364E+00  0.18178215668E+01  0.51100000000E-03 0.  1.
        -12    1    3    3    0    0 -0.30447513776E+02 -0.19657651726E+02  0.58926990453E+01  0.36717819497E+02  0.00000000000E+00 0.  1.
</event>
<event>
 7    1  0.2328810E-008  0.4614232E+02  0.7816164E-02  0.1320468E+00
        -11   -1    0    0    0    0  0.00000000000E+00  0.00000000000E+00  0.45593999997E+02  0.45594000000E+02  0.51100000000E-03 0. -1.
         11   -1    0    0    0    0 -0.00000000000E+00 -0.00000000000E+00 -0.45593999997E+02  0.45594000000E+02  0.51100000000E-03 0.  1.
    9900012    2    1    2    0    0 -0.37815302997E+02 -0.23252194814E+02 -0.76453764327E+01  0.46142317796E+02  0.10000000321E+02 0.  0.
         12    1    1    2    0    0  0.37815302997E+02  0.23252194814E+02  0.76453764327E+01  0.45045682204E+02  0.00000000000E+00 0. -1.
         11    1    3    3    0    0 -0.11043770719E+02 -0.36821309643E+01 -0.17968331048E+01  0.11779285615E+02  0.51100000000E-03 0. -1.
        -11    1    3    3    0    0 -0.25862753461E+02 -0.19109615957E+02 -0.69110064406E+01  0.32891054238E+02  0.51100000000E-03 0.  1.
         12    1    3    3    0    0 -0.90877881630E+00 -0.46044789312E+00  0.10624631127E+01  0.14719779431E+01  0.00000000000E+00 0. -1.
</event>
<event>
 7    1  0.2328810E-008  0.4614232E+02  0.7816164E-02  0.1320468E+00
        -11   -1    0    0    0    0  0.00000000000E+00  0.00000000000E+00  0.45593999997E+02  0.45594000000E+02  0.51100000000E-03 0.  1.
         11   -1    0    0    0    0 -0.00000000000E+00 -0.00000000000E+00 -0.45593999997E+02  0.45594000000E+02  0.51100000000E-03 0. -1.
    9900012    2    1    2    0    0 -0.16494492262E+02 -0.29813063045E+02  0.29465682784E+02  0.46142318020E+02  0.10000002363E+02 0.  0.
         12    1    1    2    0    0  0.16494492262E+02  0.29813063045E+02 -0.29465682784E+02  0.45045681980E+02  0.00000000000E+00 0. -1.
         11    1    3    3    0    0 -0.62728000638E+01 -0.65759379804E+01  0.51123673507E+01  0.10427237465E+02  0.51100000000E-03 0. -1.
        -11    1    3    3    0    0 -0.99083450140E+01 -0.16341844643E+02  0.19296493590E+02  0.27158531852E+02  0.51100000000E-03 0.  1.
         12    1    3    3    0    0 -0.31334718421E+00 -0.68952804215E+01  0.50568218433E+01  0.85565487028E+01  0.00000000000E+00 0. -1.
</event>
<event>
 7    1  0.2328810E-008  0.4614232E+02  0.7816164E-02  0.1320468E+00
        -11   -1    0    0    0    0  0.00000000000E+00  0.00000000000E+00  0.45593999997E+02  0.45594000000E+02  0.51100000000E-03 0.  1.
         11   -1    0    0    0    0 -0.00000000000E+00 -0.00000000000E+00 -0.45593999997E+02  0.45594000000E+02  0.51100000000E-03 0. -1.
    9900012    2    1    2    0    0 -0.40800450780E+02 -0.16516779677E+01  0.19018640235E+02  0.46142317628E+02  0.99999987888E+01 0.  0.
         12    1    1    2    0    0  0.40800450780E+02  0.16516779677E+01 -0.19018640235E+02  0.45045682372E+02  0.00000000000E+00 0. -1.
         11    1    3    3    0    0  0.24913387302E+00 -0.29575611364E+00  0.25184505111E+00  0.46148191333E+00  0.51100000000E-03 0. -1.
        -11    1    3    3    0    0 -0.24448737101E+02  0.64674644516E+00  0.14466685828E+02  0.28415559574E+02  0.51100000000E-03 0.  1.
        -12    1    3    3    0    0 -0.16600847552E+02 -0.20026682992E+01  0.43001093567E+01  0.17265276141E+02  0.00000000000E+00 0.  1.
</event>
<event>
 7    1  0.2328810E-008  0.4614232E+02  0.7816164E-02  0.1320468E+00
        -11   -1    0    0    0    0  0.00000000000E+00  0.00000000000E+00  0.45593999997E+02  0.45594000000E+02  0.51100000000E-03 0.  1.
         11   -1    0    0    0    0 -0.00000000000E+00 -0.00000000000E+00 -0.45593999997E+02  0.45594000000E+02  0.51100000000E-03 0. -1.
    9900012    2    1    2    0    0  0.25096192856E+02  0.34639406662E+02 -0.14121126201E+02  0.46142316578E+02  0.99999892151E+01 0.  0.
         12    1    1    2    0    0 -0.25096192856E+02 -0.34639406662E+02  0.14121126201E+02  0.45045683422E+02  0.00000000000E+00 0. -1.
         11    1    3    3    0    0  0.13926023908E+01  0.31058160455E+01 -0.23392403030E+00  0.34117672020E+01  0.51100000000E-03 0. -1.
        -11    1    3    3    0    0  0.21862004721E+02  0.30518129942E+02 -0.14908522570E+02  0.40392667045E+02  0.51100000000E-03 0.  1.
         12    1    3    3    0    0  0.18415857442E+01  0.10154606750E+01  0.10213203999E+01  0.23378823313E+01  0.00000000000E+00 0. -1.
</event>
<event>
 7    1  0.2328810E-008  0.4614232E+02  0.7816164E-02  0.1320468E+00
        -11   -1    0    0    0    0  0.00000000000E+00  0.00000000000E+00  0.45593999997E+02  0.45594000000E+02  0.51100000000E-03 0. -1.
         11   -1    0    0    0    0 -0.00000000000E+00 -0.00000000000E+00 -0.45593999997E+02  0.45594000000E+02  0.51100000000E-03 0.  1.
    9900012    2    1    2    0    0  0.23448456186E+01  0.14624612295E+02 -0.42540988461E+02  0.46142320018E+02  0.10000020584E+02 0.  0.
         12    1    1    2    0    0 -0.23448456186E+01 -0.14624612295E+02  0.42540988461E+02  0.45045679982E+02  0.00000000000E+00 0. -1.
         11    1    3    3    0    0  0.46395432976E+00  0.86021116869E+01 -0.14735657470E+02  0.17069012286E+02  0.51100000000E-03 0. -1.
        -11    1    3    3    0    0  0.34329781885E+01  0.39217508870E+01 -0.12442791801E+02  0.13490312722E+02  0.51100000000E-03 0.  1.
         12    1    3    3    0    0 -0.15520868997E+01  0.21007497216E+01 -0.15362539190E+02  0.15582995011E+02  0.00000000000E+00 0. -1.
</event>
<event>
 7    1  0.2328810E-008  0.4614232E+02  0.7816164E-02  0.1320468E+00
        -11   -1    0    0    0    0  0.00000000000E+00  0.00000000000E+00  0.45593999997E+02  0.45594000000E+02  0.51100000000E-03 0.  1.
         11   -1    0    0    0    0 -0.00000000000E+00 -0.00000000000E+00 -0.45593999997E+02  0.45594000000E+02  0.51100000000E-03 0. -1.
    9900012    2    1    2    0    0  0.42383352035E+02  0.15191097076E+02 -0.14126325153E+01  0.46142317735E+02  0.99999997656E+01 0.  0.
         12    1    1    2    0    0 -0.42383352035E+02 -0.15191097076E+02  0.14126325153E+01  0.45045682265E+02  0.00000000000E+00 0. -1.
         11    1    3    3    0    0  0.25072348140E+01  0.23422702492E+01 -0.63565441228E+00  0.34894860833E+01  0.51100000000E-03 0. -1.
        -11    1    3    3    0    0  0.31155364074E+02  0.11668096668E+02  0.22547219368E+01  0.33344939072E+02  0.51100000000E-03 0.  1.
         12    1    3    3    0    0  0.87207531462E+01  0.11807301588E+01 -0.30317000398E+01  0.93078925798E+01  0.00000000000E+00 0. -1.
</event>
<event>
 7    1  0.2328810E-008  0.4614232E+02  0.7816164E-02  0.1320468E+00
        -11   -1    0    0    0    0  0.00000000000E+00  0.00000000000E+00  0.45593999997E+02  0.45594000000E+02  0.51100000000E-03 0. -1.
         11   -1    0    0    0    0 -0.00000000000E+00 -0.00000000000E+00 -0.45593999997E+02  0.45594000000E+02  0.51100000000E-03 0.  1.
    9900012    2    1    2    0    0 -0.25954766525E+02  0.79805259871E+01 -0.35941268712E+02  0.46142317665E+02  0.99999991258E+01 0.  0.
         12    1    1    2    0    0  0.25954766525E+02 -0.79805259871E+01  0.35941268712E+02  0.45045682335E+02  0.00000000000E+00 0. -1.
         11    1    3    3    0    0 -0.43250955169E+01 -0.13803804841E+00 -0.32078969915E+01  0.53866602921E+01  0.51100000000E-03 0. -1.
        -11    1    3    3    0    0 -0.18748616150E+02  0.43424472340E+01 -0.28524223049E+02  0.34409282996E+02  0.51100000000E-03 0.  1.
        -12    1    3    3    0    0 -0.28810548581E+01  0.37761168015E+01 -0.42091486719E+01  0.63463743772E+01  0.00000000000E+00 0.  1.
</event>
<event>
 7    1  0.2328810E-008  0.4614232E+02  0.7816164E-02  0.1320468E+00
        -11   -1    0    0    0    0  0.00000000000E+00  0.00000000000E+00  0.45593999997E+02  0.45594000000E+02  0.51100000000E-03 0.  1.
         11   -1    0    0    0    0 -0.00000000000E+00 -0.00000000000E+00 -0.45593999997E+02  0.45594000000E+02  0.51100000000E-03 0. -1.
    9900012    2    1    2    0    0 -0.11979804225E+02  0.19491067518E+02  0.38803298200E+02  0.46142319037E+02  0.10000011631E+02 0.  0.
         12    1    1    2    0    0  0.11979804225E+02 -0.19491067518E+02 -0.38803298200E+02  0.45045680963E+02  0.00000000000E+00 0. -1.
         11    1    3    3    0    0 -0.26678084388E+01  0.13750922987E+01  0.21192440508E+01  0.36741361303E+01  0.51100000000E-03 0. -1.
        -11    1    3    3    0    0 -0.72634176699E+01  0.10665232264E+02  0.28083984842E+02  0.30906546562E+02  0.51100000000E-03 0.  1.
         12    1    3    3    0    0 -0.20485781168E+01  0.74507429547E+01  0.86000693069E+01  0.11561636344E+02  0.00000000000E+00 0. -1.
</event>
<event>
 7    1  0.2328810E-008  0.4614232E+02  0.7816164E-02  0.1320468E+00
        -11   -1    0    0    0    0  0.00000000000E+00  0.00000000000E+00  0.45593999997E+02  0.45594000000E+02  0.51100000000E-03 0.  1.
         11   -1    0    0    0    0 -0.00000000000E+00 -0.00000000000E+00 -0.45593999997E+02  0.45594000000E+02  0.51100000000E-03 0. -1.
    9900012    2    1    2    0    0 -0.36009052268E+01  0.17924197327E+02  0.41168800912E+02  0.46142317223E+02  0.99999950932E+01 0.  0.
         12    1    1    2    0    0  0.36009052268E+01 -0.17924197327E+02 -0.41168800912E+02  0.45045682777E+02  0.00000000000E+00 0. -1.
         11    1    3    3    0    0 -0.96187196542E+00  0.66292071880E+00  0.25183426162E+01  0.27760964232E+01  0.51100000000E-03 0. -1.
        -11    1    3    3    0    0 -0.25904146454E+01  0.15151181557E+02  0.38243200095E+02  0.41216633831E+02  0.51100000000E-03 0.  1.
         12    1    3    3    0    0 -0.48618615923E-01  0.21100950508E+01  0.40725820156E+00  0.21495869687E+01  0.00000000000E+00 0. -1.
</event>
<event>
 7    1  0.2328810E-008  0.4614232E+02  0.7816164E-02  0.1320468E+00
        -11   -1    0    0    0    0  0.00000000000E+00  0.00000000000E+00  0.45593999997E+02  0.45594000000E+02  0.51100000000E-03 0. -1.
         11   -1    0    0    0    0 -0.00000000000E+00 -0.00000000000E+00 -0.45593999997E+02  0.45594000000E+02  0.51100000000E-03 0.  1.
    9900012    2    1    2    0    0 -0.19674757449E+01  0.15255163829E+02 -0.42338193459E+02  0.46142316415E+02  0.99999877278E+01 0.  0.
         12    1    1    2    0    0  0.19674757449E+01 -0.15255163829E+02  0.42338193459E+02  0.45045683585E+02  0.00000000000E+00 0. -1.
         11    1    3    3    0    0  0.79603939118E+00  0.53540056520E+01 -0.21935723055E+02  0.22593693842E+02  0.51100000000E-03 0. -1.
        -11    1    3    3    0    0  0.37944119668E+00  0.79148612512E+01 -0.12265341173E+02  0.14602314837E+02  0.51100000000E-03 0.  1.
        -12    1    3    3    0    0 -0.31429563327E+01  0.19862969256E+01 -0.81371292309E+01  0.89463077360E+01  0.00000000000E+00 0.  1.
</event>
<event>
 7    1  0.2328810E-008  0.4614232E+02  0.7816164E-02  0.1320468E+00
        -11   -1    0    0    0    0  0.00000000000E+00  0.00000000000E+00  0.45593999997E+02  0.45594000000E+02  0.51100000000E-03 0. -1.
         11   -1    0    0    0    0 -0.00000000000E+00 -0.00000000000E+00 -0.45593999997E+02  0.45594000000E+02  0.51100000000E-03 0.  1.
    9900012    2    1    2    0    0  0.39922028577E+02  0.97141570262E+01  0.18465653915E+02  0.46142316667E+02  0.99999900258E+01 0.  0.
         12    1    1    2    0    0 -0.39922028577E+02 -0.97141570262E+01 -0.18465653915E+02  0.45045683333E+02  0.00000000000E+00 0. -1.
         11    1    3    3    0    0  0.15958145852E+02  0.86761429557E+01  0.81824307131E+01  0.19922099494E+02  0.51100000000E-03 0. -1.
        -11    1    3    3    0    0  0.12872929118E+02  0.60102050029E+00  0.41489807751E+01  0.13538374032E+02  0.51100000000E-03 0.  1.
         12    1    3    3    0    0  0.11090953607E+02  0.43699357019E+00  0.61342424271E+01  0.12681843141E+02  0.00000000000E+00 0. -1.
</event>
<event>
 7    1  0.2328810E-008  0.4614232E+02  0.7816164E-02  0.1320468E+00
        -11   -1    0    0    0    0  0.00000000000E+00  0.00000000000E+00  0.45593999997E+02  0.45594000000E+02  0.51100000000E-03 0. -1.
         11   -1    0    0    0    0 -0.00000000000E+00 -0.00000000000E+00 -0.45593999997E+02  0.45594000000E+02  0.51100000000E-03 0.  1.
    9900012    2    1    2    0    0 -0.13319125081E+02 -0.33731395699E+02 -0.26719045518E+02  0.46142317165E+02  0.99999945616E+01 0.  0.
         12    1    1    2    0    0  0.13319125081E+02  0.33731395699E+02  0.26719045518E+02  0.45045682835E+02  0.00000000000E+00 0. -1.
         11    1    3    3    0    0 -0.32408220796E+01 -0.33315748057E+01 -0.61923873074E+01  0.77426080401E+01  0.51100000000E-03 0. -1.
        -11    1    3    3    0    0 -0.11798547770E+01 -0.23419270656E+01 -0.20357602871E+00  0.26302325251E+01  0.51100000000E-03 0.  1.
        -12    1    3    3    0    0 -0.88984482247E+01 -0.28057893828E+02 -0.20323082181E+02  0.35769476600E+02  0.00000000000E+00 0.  1.
</event>
<event>
 7    1  0.2328810E-008  0.4614232E+02  0.7816164E-02  0.1320468E+00
        -11   -1    0    0    0    0  0.00000000000E+00  0.00000000000E+00  0.45593999997E+02  0.45594000000E+02  0.51100000000E-03 0.  1.
         11   -1    0    0    0    0 -0.00000000000E+00 -0.00000000000E+00 -0.45593999997E+02  0.45594000000E+02  0.51100000000E-03 0. -1.
    9900012    2    1    2    0    0  0.27442287338E+02  0.17786533573E+02  0.30978597626E+02  0.46142318501E+02  0.10000006744E+02 0.  0.
         12    1    1    2    0    0 -0.27442287338E+02 -0.17786533573E+02 -0.30978597626E+02  0.45045681499E+02  0.00000000000E+00 0. -1.
         11    1    3    3    0    0  0.93963528523E+01  0.90448346802E+01  0.10753368959E+02  0.16903710408E+02  0.51100000000E-03 0. -1.
        -11    1    3    3    0    0  0.13867551883E+02  0.95696750862E+01  0.16425668570E+02  0.23530623976E+02  0.51100000000E-03 0.  1.
         12    1    3    3    0    0  0.41783826026E+01 -0.82797619304E+00  0.37995600960E+01  0.57079841164E+01  0.00000000000E+00 0. -1.
</event>
<event>
 7    1  0.2328810E-008  0.4614232E+02  0.7816164E-02  0.1320468E+00
        -11   -1    0    0    0    0  0.00000000000E+00  0.00000000000E+00  0.45593999997E+02  0.45594000000E+02  0.51100000000E-03 0.  1.
         11   -1    0    0    0    0 -0.00000000000E+00 -0.00000000000E+00 -0.45593999997E+02  0.45594000000E+02  0.51100000000E-03 0. -1.
    9900012    2    1    2    0    0  0.42979002986E+02  0.12662380023E+02  0.46457686099E+01  0.46142315063E+02  0.99999753950E+01 0.  0.
         12    1    1    2    0    0 -0.42979002986E+02 -0.12662380023E+02 -0.46457686099E+01  0.45045684937E+02  0.00000000000E+00 0. -1.
         11    1    3    3    0    0  0.11009573622E+02  0.42193230273E+01 -0.13167080140E+01  0.11863689072E+02  0.51100000000E-03 0. -1.
        -11    1    3    3    0    0  0.15333945152E+02  0.59845511198E+01  0.71801277983E-01  0.16460555328E+02  0.51100000000E-03 0.  1.
         12    1    3    3    0    0  0.16635484212E+02  0.24585058755E+01  0.58906753459E+01  0.17818070662E+02  0.00000000000E+00 0. -1.
</event>
<event>
 7    1  0.2328810E-008  0.4614232E+02  0.7816164E-02  0.1320468E+00
        -11   -1    0    0    0    0  0.00000000000E+00  0.00000000000E+00  0.45593999997E+02  0.45594000000E+02  0.51100000000E-03 0.  1.
         11   -1    0    0    0    0 -0.00000000000E+00 -0.00000000000E+00 -0.45593999997E+02  0.45594000000E+02  0.51100000000E-03 0. -1.
    9900012    2    1    2    0    0  0.37195961394E+02 -0.25134709197E+02  0.37175710123E+01  0.46142317802E+02  0.10000000375E+02 0.  0.
         12    1    1    2    0    0 -0.37195961394E+02  0.25134709197E+02 -0.37175710123E+01  0.45045682198E+02  0.00000000000E+00 0. -1.
         11    1    3    3    0    0  0.13882014328E+02 -0.85517255940E+01  0.45785576292E+01  0.16935333556E+02  0.51100000000E-03 0. -1.
        -11    1    3    3    0    0  0.15045740411E+02 -0.13764921365E+02  0.30252356449E+00  0.20394579806E+02  0.51100000000E-03 0.  1.
        -12    1    3    3    0    0  0.82682066552E+01 -0.28180622372E+01 -0.11635101814E+01  0.88124044396E+01  0.00000000000E+00 0.  1.
</event>
<event>
 7    1  0.2328810E-008  0.4614232E+02  0.7816164E-02  0.1320468E+00
        -11   -1    0    0    0    0  0.00000000000E+00  0.00000000000E+00  0.45593999997E+02  0.45594000000E+02  0.51100000000E-03 0.  1.
         11   -1    0    0    0    0 -0.00000000000E+00 -0.00000000000E+00 -0.45593999997E+02  0.45594000000E+02  0.51100000000E-03 0. -1.
    9900012    2    1    2    0    0  0.36093854537E+02 -0.23751843016E+02  0.12735664020E+02  0.46142317410E+02  0.99999967951E+01 0.  0.
         12    1    1    2    0    0 -0.36093854537E+02  0.23751843016E+02 -0.12735664020E+02  0.45045682590E+02  0.00000000000E+00 0. -1.
         11    1    3    3    0    0  0.31645539315E+02 -0.23137485647E+02  0.10575408869E+02  0.40603234767E+02  0.51100000000E-03 0.  1.
        -11    1    3    3    0    0  0.19550608049E+01 -0.14411713669E+01  0.14048000527E+01  0.28058334072E+01  0.51100000000E-03 0. -1.
        -12    1    3    3    0    0  0.24932544174E+01  0.82681399729E+00  0.75545509793E+00  0.27332492351E+01  0.00000000000E+00 0.  1.
</event>
<event>
 7    1  0.2328810E-008  0.4614232E+02  0.7816164E-02  0.1320468E+00
        -11   -1    0    0    0    0  0.00000000000E+00  0.00000000000E+00  0.45593999997E+02  0.45594000000E+02  0.51100000000E-03 0.  1.
         11   -1    0    0    0    0 -0.00000000000E+00 -0.00000000000E+00 -0.45593999997E+02  0.45594000000E+02  0.51100000000E-03 0. -1.
    9900012    2    1    2    0    0 -0.28691771452E+02  0.25053818325E+02  0.24045831507E+02  0.46142316804E+02  0.99999912728E+01 0.  0.
         12    1    1    2    0    0  0.28691771452E+02 -0.25053818325E+02 -0.24045831507E+02  0.45045683196E+02  0.00000000000E+00 0. -1.
         11    1    3    3    0    0  0.66462620465E+00  0.79612120707E+00  0.96681952696E+00  0.14178424550E+01  0.51100000000E-03 0. -1.
        -11    1    3    3    0    0 -0.32976761798E+01  0.32946777339E+01  0.44376814170E+01  0.64360380808E+01  0.51100000000E-03 0.  1.
        -12    1    3    3    0    0 -0.26058721477E+02  0.20963019384E+02  0.18641330563E+02  0.38288436268E+02  0.00000000000E+00 0.  1.
</event>
<event>
 7    1  0.2328810E-008  0.4614232E+02  0.7816164E-02  0.1320468E+00
        -11   -1    0    0    0    0  0.00000000000E+00  0.00000000000E+00  0.45593999997E+02  0.45594000000E+02  0.51100000000E-03 0. -1.
         11   -1    0    0    0    0 -0.00000000000E+00 -0.00000000000E+00 -0.45593999997E+02  0.45594000000E+02  0.51100000000E-03 0.  1.
    9900012    2    1    2    0    0 -0.39037387994E+01  0.41210231974E+02 -0.17764881424E+02  0.46142318654E+02  0.10000008138E+02 0.  0.
         12    1    1    2    0    0  0.39037387994E+01 -0.41210231974E+02  0.17764881424E+02  0.45045681346E+02  0.00000000000E+00 0. -1.
         11    1    3    3    0    0 -0.22982303175E+00  0.20671993294E+01 -0.33618304277E+01  0.39532310556E+01  0.51100000000E-03 0. -1.
        -11    1    3    3    0    0  0.98423005154E+00  0.16872783754E+02 -0.62663242251E+01  0.18025713854E+02  0.51100000000E-03 0.  1.
         12    1    3    3    0    0 -0.46581458192E+01  0.22270248891E+02 -0.81367267710E+01  0.24163373743E+02  0.00000000000E+00 0. -1.
</event>
<event>
 7    1  0.2328810E-008  0.4614232E+02  0.7816164E-02  0.1320468E+00
        -11   -1    0    0    0    0  0.00000000000E+00  0.00000000000E+00  0.45593999997E+02  0.45594000000E+02  0.51100000000E-03 0.  1.
         11   -1    0    0    0    0 -0.00000000000E+00 -0.00000000000E+00 -0.45593999997E+02  0.45594000000E+02  0.51100000000E-03 0. -1.
    9900012    2    1    2    0    0  0.32536860466E+01  0.44444383671E+02  0.65744712503E+01  0.46142318908E+02  0.10000010463E+02 0.  0.
         12    1    1    2    0    0 -0.32536860466E+01 -0.44444383671E+02 -0.65744712503E+01  0.45045681092E+02  0.00000000000E+00 0. -1.
         11    1    3    3    0    0  0.10210003678E+01  0.26604390459E+01 -0.14610219902E+01  0.32023371441E+01  0.51100000000E-03 0. -1.
        -11    1    3    3    0    0  0.20575613856E+01  0.73941603478E+01  0.24827293408E+00  0.76791149109E+01  0.51100000000E-03 0.  1.
        -12    1    3    3    0    0  0.17512429333E+00  0.34389784277E+02  0.77872203064E+01  0.35260866853E+02  0.00000000000E+00 0.  1.
</event>
<event>
 7    1  0.2328810E-008  0.4614232E+02  0.7816164E-02  0.1320468E+00
        -11   -1    0    0    0    0  0.00000000000E+00  0.00000000000E+00  0.45593999997E+02  0.45594000000E+02  0.51100000000E-03 0.  1.
         11   -1    0    0    0    0 -0.00000000000E+00 -0.00000000000E+00 -0.45593999997E+02  0.45594000000E+02  0.51100000000E-03 0. -1.
    9900012    2    1    2    0    0 -0.24475284816E+02 -0.35028114255E+02  0.14251497662E+02  0.46142317180E+02  0.99999947013E+01 0.  0.
         12    1    1    2    0    0  0.24475284816E+02  0.35028114255E+02 -0.14251497662E+02  0.45045682820E+02  0.00000000000E+00 0. -1.
         11    1    3    3    0    0 -0.44103389782E+01 -0.87714017119E+01  0.20862816131E+01  0.10036989047E+02  0.51100000000E-03 0. -1.
        -11    1    3    3    0    0 -0.18426671436E+02 -0.26543957238E+02  0.11309957480E+02  0.34235055492E+02  0.51100000000E-03 0.  1.
         12    1    3    3    0    0 -0.16382744024E+01  0.28724469547E+00  0.85525856899E+00  0.18702726412E+01  0.00000000000E+00 0. -1.
</event>
<event>
 7    1  0.2328810E-008  0.4614232E+02  0.7816164E-02  0.1320468E+00
        -11   -1    0    0    0    0  0.00000000000E+00  0.00000000000E+00  0.45593999997E+02  0.45594000000E+02  0.51100000000E-03 0.  1.
         11   -1    0    0    0    0 -0.00000000000E+00 -0.00000000000E+00 -0.45593999997E+02  0.45594000000E+02  0.51100000000E-03 0. -1.
    9900012    2    1    2    0    0  0.22227009798E+02  0.57885728144E+01  0.38750044043E+02  0.46142318152E+02  0.10000003566E+02 0.  0.
         12    1    1    2    0    0 -0.22227009798E+02 -0.57885728144E+01 -0.38750044043E+02  0.45045681848E+02  0.00000000000E+00 0. -1.
         11    1    3    3    0    0  0.10299731496E+02  0.58676890717E+01  0.13538130961E+02  0.17994311159E+02  0.51100000000E-03 0. -1.
        -11    1    3    3    0    0  0.52204406038E+01 -0.12732916733E+01  0.80013839605E+01  0.96382787533E+01  0.51100000000E-03 0.  1.
         12    1    3    3    0    0  0.67068376975E+01  0.11941754160E+01  0.17210529122E+02  0.18509728239E+02  0.00000000000E+00 0. -1.
</event>
<event>
 7    1  0.2328810E-008  0.4614232E+02  0.7816164E-02  0.1320468E+00
        -11   -1    0    0    0    0  0.00000000000E+00  0.00000000000E+00  0.45593999997E+02  0.45594000000E+02  0.51100000000E-03 0.  1.
         11   -1    0    0    0    0 -0.00000000000E+00 -0.00000000000E+00 -0.45593999997E+02  0.45594000000E+02  0.51100000000E-03 0. -1.
    9900012    2    1    2    0    0  0.44207990073E+02  0.50571898650E+01 -0.70137010089E+01  0.46142316994E+02  0.99999930023E+01 0.  0.
         12    1    1    2    0    0 -0.44207990073E+02 -0.50571898650E+01  0.70137010089E+01  0.45045683006E+02  0.00000000000E+00 0. -1.
         11    1    3    3    0    0  0.13530138590E+02 -0.56587448503E+00 -0.42540072362E+01  0.14194415875E+02  0.51100000000E-03 0. -1.
        -11    1    3    3    0    0  0.16870455490E+01 -0.95623925817E+00  0.60183582634E+00  0.20304489224E+01  0.51100000000E-03 0.  1.
         12    1    3    3    0    0  0.28990805935E+02  0.65793036082E+01 -0.33615295991E+01  0.29917452197E+02  0.00000000000E+00 0. -1.
</event>
<event>
 7    1  0.2328810E-008  0.4614232E+02  0.7816164E-02  0.1320468E+00
        -11   -1    0    0    0    0  0.00000000000E+00  0.00000000000E+00  0.45593999997E+02  0.45594000000E+02  0.51100000000E-03 0.  1.
         11   -1    0    0    0    0 -0.00000000000E+00 -0.00000000000E+00 -0.45593999997E+02  0.45594000000E+02  0.51100000000E-03 0. -1.
    9900012    2    1    2    0    0 -0.23942088552E+00  0.17902331199E+02  0.41334766308E+02  0.46142315518E+02  0.99999795490E+01 0.  0.
         12    1    1    2    0    0  0.23942088552E+00 -0.17902331199E+02 -0.41334766308E+02  0.45045684482E+02  0.00000000000E+00 0. -1.
         11    1    3    3    0    0  0.24590456409E+01  0.77454001243E+01  0.12129782762E+02  0.14600334197E+02  0.51100000000E-03 0. -1.
        -11    1    3    3    0    0  0.59798310484E+00  0.68820977423E+01  0.13511227862E+02  0.15174786052E+02  0.51100000000E-03 0.  1.
         12    1    3    3    0    0 -0.32964496313E+01  0.32748333323E+01  0.15693755683E+02  0.16367195269E+02  0.00000000000E+00 0. -1.
</event>
<event>
 7    1  0.2328810E-008  0.4614232E+02  0.7816164E-02  0.1320468E+00
        -11   -1    0    0    0    0  0.00000000000E+00  0.00000000000E+00  0.45593999997E+02  0.45594000000E+02  0.51100000000E-03 0.  1.
         11   -1    0    0    0    0 -0.00000000000E+00 -0.00000000000E+00 -0.45593999997E+02  0.45594000000E+02  0.51100000000E-03 0. -1.
    9900012    2    1    2    0    0 -0.38016392535E+02 -0.19429743936E+02  0.14364967965E+02  0.46142319236E+02  0.10000013453E+02 0.  0.
         12    1    1    2    0    0  0.38016392535E+02  0.19429743936E+02 -0.14364967965E+02  0.45045680764E+02  0.00000000000E+00 0. -1.
         11    1    3    3    0    0 -0.14094853786E+01 -0.16770407825E+01  0.30845950822E+01  0.37833638340E+01  0.51100000000E-03 0. -1.
        -11    1    3    3    0    0 -0.29347890616E+02 -0.13188111744E+02  0.78157874670E+01  0.33110595116E+02  0.51100000000E-03 0.  1.
        -12    1    3    3    0    0 -0.72590165410E+01 -0.45645914102E+01  0.34645854155E+01  0.92483602863E+01  0.00000000000E+00 0.  1.
</event>
<event>
 7    1  0.2328810E-008  0.4614232E+02  0.7816164E-02  0.1320468E+00
        -11   -1    0    0    0    0  0.00000000000E+00  0.00000000000E+00  0.45593999997E+02  0.45594000000E+02  0.51100000000E-03 0.  1.
         11   -1    0    0    0    0 -0.00000000000E+00 -0.00000000000E+00 -0.45593999997E+02  0.45594000000E+02  0.51100000000E-03 0. -1.
    9900012    2    1    2    0    0  0.72214227024E+01 -0.50432975774E+01  0.44176122446E+02  0.46142316626E+02  0.99999896462E+01 0.  0.
         12    1    1    2    0    0 -0.72214227024E+01  0.50432975774E+01 -0.44176122446E+02  0.45045683374E+02  0.00000000000E+00 0. -1.
         11    1    3    3    0    0  0.26719496705E+01 -0.68599646435E+01  0.18351007060E+02  0.19772655116E+02  0.51100000000E-03 0. -1.
        -11    1    3    3    0    0  0.14549258720E+01  0.16289853903E+01  0.89939069971E+01  0.92553101530E+01  0.51100000000E-03 0.  1.
         12    1    3    3    0    0  0.30945471599E+01  0.18768167575E+00  0.16831208389E+02  0.17114351357E+02  0.00000000000E+00 0. -1.
</event>
<event>
 7    1  0.2328810E-008  0.4614232E+02  0.7816164E-02  0.1320468E+00
        -11   -1    0    0    0    0  0.00000000000E+00  0.00000000000E+00  0.45593999997E+02  0.45594000000E+02  0.51100000000E-03 0.  1.
         11   -1    0    0    0    0 -0.00000000000E+00 -0.00000000000E+00 -0.45593999997E+02  0.45594000000E+02  0.51100000000E-03 0. -1.
    9900012    2    1    2    0    0  0.33965662628E+02  0.24270038126E+02  0.16923722165E+02  0.46142319183E+02  0.10000012963E+02 0.  0.
         12    1    1    2    0    0 -0.33965662628E+02 -0.24270038126E+02 -0.16923722165E+02  0.45045680817E+02  0.00000000000E+00 0. -1.
         11    1    3    3    0    0  0.12148818806E+02  0.92864594007E+01  0.55444170098E+01  0.16265690481E+02  0.51100000000E-03 0. -1.
        -11    1    3    3    0    0  0.15921437568E+02  0.14390581526E+02  0.72426053959E+01  0.22650305607E+02  0.51100000000E-03 0.  1.
         12    1    3    3    0    0  0.58954062535E+01  0.59299719917E+00  0.41366997596E+01  0.72263230949E+01  0.00000000000E+00 0. -1.
</event>
<event>
 7    1  0.2328810E-008  0.4614232E+02  0.7816164E-02  0.1320468E+00
        -11   -1    0    0    0    0  0.00000000000E+00  0.00000000000E+00  0.45593999997E+02  0.45594000000E+02  0.51100000000E-03 0.  1.
         11   -1    0    0    0    0 -0.00000000000E+00 -0.00000000000E+00 -0.45593999997E+02  0.45594000000E+02  0.51100000000E-03 0. -1.
    9900012    2    1    2    0    0 -0.38747535589E+00  0.25131539443E+02  0.37381401127E+02  0.46142316942E+02  0.99999925337E+01 0.  0.
         12    1    1    2    0    0  0.38747535589E+00 -0.25131539443E+02 -0.37381401127E+02  0.45045683058E+02  0.00000000000E+00 0. -1.
         11    1    3    3    0    0  0.33860124425E+01  0.69414363987E+01  0.13550145727E+02  0.15596636465E+02  0.51100000000E-03 0. -1.
        -11    1    3    3    0    0 -0.65147524021E+00  0.10099138895E+02  0.10048354976E+02  0.14261362642E+02  0.51100000000E-03 0.  1.
        -12    1    3    3    0    0 -0.31220125582E+01  0.80909641487E+01  0.13782900424E+02  0.16284317835E+02  0.00000000000E+00 0.  1.
</event>
<event>
 7    1  0.2328810E-008  0.4614232E+02  0.7816164E-02  0.1320468E+00
        -11   -1    0    0    0    0  0.00000000000E+00  0.00000000000E+00  0.45593999997E+02  0.45594000000E+02  0.51100000000E-03 0. -1.
         11   -1    0    0    0    0 -0.00000000000E+00 -0.00000000000E+00 -0.45593999997E+02  0.45594000000E+02  0.51100000000E-03 0.  1.
    9900012    2    1    2    0    0 -0.43586493997E+02 -0.10634490667E+02 -0.40297140148E+01  0.46142318234E+02  0.10000004317E+02 0.  0.
         12    1    1    2    0    0  0.43586493997E+02  0.10634490667E+02  0.40297140148E+01  0.45045681766E+02  0.00000000000E+00 0. -1.
         11    1    3    3    0    0 -0.10355358433E+02 -0.19376802512E+01 -0.14041575215E+01  0.10628250639E+02  0.51100000000E-03 0. -1.
        -11    1    3    3    0    0 -0.19979121182E+02 -0.48876967498E+01  0.26754959633E+01  0.20741580017E+02  0.51100000000E-03 0.  1.
        -12    1    3    3    0    0 -0.13252014382E+02 -0.38091136662E+01 -0.53010524567E+01  0.14772487578E+02  0.00000000000E+00 0.  1.
</event>
<event>
 7    1  0.2328810E-008  0.4614232E+02  0.7816164E-02  0.1320468E+00
        -11   -1    0    0    0    0  0.00000000000E+00  0.00000000000E+00  0.45593999997E+02  0.45594000000E+02  0.51100000000E-03 0.  1.
         11   -1    0    0    0    0 -0.00000000000E+00 -0.00000000000E+00 -0.45593999997E+02  0.45594000000E+02  0.51100000000E-03 0. -1.
    9900012    2    1    2    0    0  0.19702147792E+02  0.31617507386E+02  0.25323350706E+02  0.46142317722E+02  0.99999996408E+01 0.  0.
         12    1    1    2    0    0 -0.19702147792E+02 -0.31617507386E+02 -0.25323350706E+02  0.45045682278E+02  0.00000000000E+00 0. -1.
         11    1    3    3    0    0  0.86133005316E+00  0.34960733213E+01  0.41965846774E+01  0.55295335557E+01  0.51100000000E-03 0. -1.
        -11    1    3    3    0    0  0.17132824706E+02  0.24542514198E+02  0.21145798025E+02  0.36647148047E+02  0.51100000000E-03 0.  1.
         12    1    3    3    0    0  0.17079930329E+01  0.35789198671E+01 -0.19031996584E-01  0.39656361195E+01  0.00000000000E+00 0. -1.
</event>
<event>
 7    1  0.2328810E-008  0.4614232E+02  0.7816164E-02  0.1320468E+00
        -11   -1    0    0    0    0  0.00000000000E+00  0.00000000000E+00  0.45593999997E+02  0.45594000000E+02  0.51100000000E-03 0. -1.
         11   -1    0    0    0    0 -0.00000000000E+00 -0.00000000000E+00 -0.45593999997E+02  0.45594000000E+02  0.51100000000E-03 0.  1.
    9900012    2    1    2    0    0  0.31086794640E+02  0.31716004527E+02 -0.75378868078E+01  0.46142317835E+02  0.10000000673E+02 0.  0.
         12    1    1    2    0    0 -0.31086794640E+02 -0.31716004527E+02  0.75378868078E+01  0.45045682165E+02  0.00000000000E+00 0. -1.
         11    1    3    3    0    0  0.54437307013E+01  0.73594774630E+01  0.84888044863E+00  0.91932970557E+01  0.51100000000E-03 0. -1.
        -11    1    3    3    0    0  0.95282239274E+01  0.13518533346E+02 -0.45479815235E+01  0.17152898625E+02  0.51100000000E-03 0.  1.
         12    1    3    3    0    0  0.16114840012E+02  0.10837993718E+02 -0.38387857329E+01  0.19796122154E+02  0.00000000000E+00 0. -1.
</event>
<event>
 7    1  0.2328810E-008  0.4614232E+02  0.7816164E-02  0.1320468E+00
        -11   -1    0    0    0    0  0.00000000000E+00  0.00000000000E+00  0.45593999997E+02  0.45594000000E+02  0.51100000000E-03 0.  1.
         11   -1    0    0    0    0 -0.00000000000E+00 -0.00000000000E+00 -0.45593999997E+02  0.45594000000E+02  0.51100000000E-03 0. -1.
    9900012    2    1    2    0    0 -0.20346155946E+02  0.35948364333E+02  0.17968375586E+02  0.46142317841E+02  0.10000000725E+02 0.  0.
         12    1    1    2    0    0  0.20346155946E+02 -0.35948364333E+02 -0.17968375586E+02  0.45045682159E+02  0.00000000000E+00 0. -1.
         11    1    3    3    0    0 -0.14902749814E+01  0.39899009421E+00  0.10497432977E+00  0.15463287123E+01  0.51100000000E-03 0. -1.
        -11    1    3    3    0    0 -0.19395460442E+02  0.34797624566E+02  0.17889493873E+02  0.43670270808E+02  0.51100000000E-03 0.  1.
        -12    1    3    3    0    0  0.53957947739E+00  0.75174967325E+00 -0.26092616446E-01  0.92571832016E+00  0.00000000000E+00 0.  1.
</event>
<event>
 7    1  0.2328810E-008  0.4614232E+02  0.7816164E-02  0.1320468E+00
        -11   -1    0    0    0    0  0.00000000000E+00  0.00000000000E+00  0.45593999997E+02  0.45594000000E+02  0.51100000000E-03 0. -1.
         11   -1    0    0    0    0 -0.00000000000E+00 -0.00000000000E+00 -0.45593999997E+02  0.45594000000E+02  0.51100000000E-03 0.  1.
    9900012    2    1    2    0    0  0.26588610072E+02 -0.23337689670E+02  0.27883894580E+02  0.46142317392E+02  0.99999966354E+01 0.  0.
         12    1    1    2    0    0 -0.26588610072E+02  0.23337689670E+02 -0.27883894580E+02  0.45045682608E+02  0.00000000000E+00 0. -1.
         11    1    3    3    0    0  0.13360477388E+02 -0.12864777038E+02  0.10991061059E+02  0.21559412509E+02  0.51100000000E-03 0. -1.
        -11    1    3    3    0    0  0.90281664618E+01 -0.88687491534E+01  0.91049936179E+01  0.15590491020E+02  0.51100000000E-03 0.  1.
         12    1    3    3    0    0  0.41999662217E+01 -0.16041634789E+01  0.77878399028E+01  0.89924138629E+01  0.00000000000E+00 0. -1.
</event>
<event>
 7    1  0.2328810E-008  0.4614232E+02  0.7816164E-02  0.1320468E+00
        -11   -1    0    0    0    0  0.00000000000E+00  0.00000000000E+00  0.45593999997E+02  0.45594000000E+02  0.51100000000E-03 0.  1.
         11   -1    0    0    0    0 -0.00000000000E+00 -0.00000000000E+00 -0.45593999997E+02  0.45594000000E+02  0.51100000000E-03 0. -1.
    9900012    2    1    2    0    0  0.10232188070E+02  0.42930041853E+02  0.90237063534E+01  0.46142318270E+02  0.10000004638E+02 0.  0.
         12    1    1    2    0    0 -0.10232188070E+02 -0.42930041853E+02 -0.90237063534E+01  0.45045681730E+02  0.00000000000E+00 0. -1.
         11    1    3    3    0    0  0.44259893257E+00  0.36605095836E+01  0.24583280106E+01  0.44315461293E+01  0.51100000000E-03 0. -1.
        -11    1    3    3    0    0  0.98768819779E+01  0.38854882952E+02  0.74064526148E+01  0.40768986588E+02  0.51100000000E-03 0.  1.
         12    1    3    3    0    0 -0.87292840198E-01  0.41464931765E+00 -0.84107427197E+00  0.94178555285E+00  0.00000000000E+00 0. -1.
</event>
<event>
 7    1  0.2328810E-008  0.4614232E+02  0.7816164E-02  0.1320468E+00
        -11   -1    0    0    0    0  0.00000000000E+00  0.00000000000E+00  0.45593999997E+02  0.45594000000E+02  0.51100000000E-03 0. -1.
         11   -1    0    0    0    0 -0.00000000000E+00 -0.00000000000E+00 -0.45593999997E+02  0.45594000000E+02  0.51100000000E-03 0.  1.
    9900012    2    1    2    0    0  0.29606422599E+02  0.33598934341E+02 -0.48667078586E+01  0.46142317706E+02  0.99999994994E+01 0.  0.
         12    1    1    2    0    0 -0.29606422599E+02 -0.33598934341E+02  0.48667078586E+01  0.45045682294E+02  0.00000000000E+00 0. -1.
         11    1    3    3    0    0  0.88313487692E+00  0.11439646989E+01 -0.37206842865E+00  0.14923195435E+01  0.51100000000E-03 0. -1.
        -11    1    3    3    0    0  0.24599875259E+02  0.31680399286E+02 -0.31031279373E+01  0.40229727378E+02  0.51100000000E-03 0.  1.
         12    1    3    3    0    0  0.41234124625E+01  0.77457035602E+00 -0.13915114926E+01  0.44202707843E+01  0.00000000000E+00 0. -1.
</event>
<event>
 7    1  0.2328810E-008  0.4614233E+02  0.7816164E-02  0.1320468E+00
        -11   -1    0    0    0    0  0.00000000000E+00  0.00000000000E+00  0.45593999997E+02  0.45594000000E+02  0.51100000000E-03 0. -1.
         11   -1    0    0    0    0 -0.00000000000E+00 -0.00000000000E+00 -0.45593999997E+02  0.45594000000E+02  0.51100000000E-03 0.  1.
    9900012    2    1    2    0    0  0.36004411167E+02  0.25141789733E+02 -0.10034196301E+02  0.46142330842E+02  0.10000119284E+02 0.  0.
         12    1    1    2    0    0 -0.36004411167E+02 -0.25141789733E+02  0.10034196301E+02  0.45045669158E+02  0.00000000000E+00 0. -1.
         11    1    3    3    0    0  0.48018661762E+00  0.16897747284E+01 -0.19347501449E+01  0.26132692561E+01  0.51100000000E-03 0. -1.
        -11    1    3    3    0    0  0.23121671577E+02  0.12950101888E+02 -0.44408296305E+01  0.26870761126E+02  0.51100000000E-03 0.  1.
        -12    1    3    3    0    0  0.12402552972E+02  0.10501913117E+02 -0.36586165253E+01  0.16658300460E+02  0.00000000000E+00 0.  1.
</event>
<event>
 7    1  0.2328810E-008  0.4614232E+02  0.7816164E-02  0.1320468E+00
        -11   -1    0    0    0    0  0.00000000000E+00  0.00000000000E+00  0.45593999997E+02  0.45594000000E+02  0.51100000000E-03 0.  1.
         11   -1    0    0    0    0 -0.00000000000E+00 -0.00000000000E+00 -0.45593999997E+02  0.45594000000E+02  0.51100000000E-03 0. -1.
    9900012    2    1    2    0    0  0.20177252627E+02  0.12568266513E+02  0.38262653948E+02  0.46142317256E+02  0.99999953926E+01 0.  0.
         12    1    1    2    0    0 -0.20177252627E+02 -0.12568266513E+02 -0.38262653948E+02  0.45045682744E+02  0.00000000000E+00 0. -1.
         11    1    3    3    0    0 -0.34924190148E+00  0.13466401266E+01  0.25095699918E+01  0.28693817002E+01  0.51100000000E-03 0. -1.
        -11    1    3    3    0    0  0.15369063533E+02  0.48611336535E+01  0.25217493694E+02  0.29929261981E+02  0.51100000000E-03 0.  1.
        -12    1    3    3    0    0  0.51574309958E+01  0.63604927331E+01  0.10535590262E+02  0.13343673574E+02  0.00000000000E+00 0.  1.
</event>
<event>
 7    1  0.2328810E-008  0.4614232E+02  0.7816164E-02  0.1320468E+00
        -11   -1    0    0    0    0  0.00000000000E+00  0.00000000000E+00  0.45593999997E+02  0.45594000000E+02  0.51100000000E-03 0. -1.
         11   -1    0    0    0    0 -0.00000000000E+00 -0.00000000000E+00 -0.45593999997E+02  0.45594000000E+02  0.51100000000E-03 0.  1.
    9900012    2    1    2    0    0 -0.32296701710E+02  0.40734698639E+01 -0.31135884855E+02  0.46142318478E+02  0.10000006533E+02 0.  0.
         12    1    1    2    0    0  0.32296701710E+02 -0.40734698639E+01  0.31135884855E+02  0.45045681522E+02  0.00000000000E+00 0. -1.
         11    1    3    3    0    0 -0.39986199320E+01 -0.36544965713E+00 -0.31735460281E+00  0.40278069737E+01  0.51100000000E-03 0. -1.
        -11    1    3    3    0    0 -0.67522345822E+01  0.85394586591E+00 -0.84594360969E+01  0.10857437761E+02  0.51100000000E-03 0.  1.
         12    1    3    3    0    0 -0.21545847196E+02  0.35849736551E+01 -0.22359094156E+02  0.31257073743E+02  0.00000000000E+00 0. -1.
</event>
<event>
 7    1  0.2328810E-008  0.4614232E+02  0.7816164E-02  0.1320468E+00
        -11   -1    0    0    0    0  0.00000000000E+00  0.00000000000E+00  0.45593999997E+02  0.45594000000E+02  0.51100000000E-03 0. -1.
         11   -1    0    0    0    0 -0.00000000000E+00 -0.00000000000E+00 -0.45593999997E+02  0.45594000000E+02  0.51100000000E-03 0.  1.
    9900012    2    1    2    0    0 -0.44728949720E+02 -0.15659106484E+01 -0.50973049810E+01  0.46142317218E+02  0.99999950484E+01 0.  0.
         12    1    1    2    0    0  0.44728949720E+02  0.15659106484E+01  0.50973049810E+01  0.45045682782E+02  0.00000000000E+00 0. -1.
         11    1    3    3    0    0 -0.15441279415E+02  0.31970591406E+00  0.26722706546E+01  0.15674066242E+02  0.51100000000E-03 0.  1.
        -11    1    3    3    0    0 -0.14084020861E+01  0.33882589940E-01 -0.96147340239E+00  0.17056306255E+01  0.51100000000E-03 0. -1.
        -12    1    3    3    0    0 -0.27879268219E+02 -0.19194991524E+01 -0.68081022332E+01  0.28762620351E+02  0.00000000000E+00 0.  1.
</event>
<event>
 7    1  0.2328810E-008  0.4614232E+02  0.7816164E-02  0.1320468E+00
        -11   -1    0    0    0    0  0.00000000000E+00  0.00000000000E+00  0.45593999997E+02  0.45594000000E+02  0.51100000000E-03 0.  1.
         11   -1    0    0    0    0 -0.00000000000E+00 -0.00000000000E+00 -0.45593999997E+02  0.45594000000E+02  0.51100000000E-03 0. -1.
    9900012    2    1    2    0    0 -0.41060395419E+01  0.44858122580E+02  0.50476349362E-01  0.46142320185E+02  0.10000022101E+02 0.  0.
         12    1    1    2    0    0  0.41060395419E+01 -0.44858122580E+02 -0.50476349362E-01  0.45045679815E+02  0.00000000000E+00 0. -1.
         11    1    3    3    0    0 -0.38858772054E+01  0.20439390977E+02 -0.31582707614E+01  0.21043845172E+02  0.51100000000E-03 0.  1.
        -11    1    3    3    0    0  0.19089046643E+01  0.11768684243E+02  0.28842579792E+01  0.12266409017E+02  0.51100000000E-03 0. -1.
         12    1    3    3    0    0 -0.21290670009E+01  0.12650047361E+02  0.32448913161E+00  0.12832065996E+02  0.00000000000E+00 0. -1.
</event>
<event>
 7    1  0.2328810E-008  0.4614232E+02  0.7816164E-02  0.1320468E+00
        -11   -1    0    0    0    0  0.00000000000E+00  0.00000000000E+00  0.45593999997E+02  0.45594000000E+02  0.51100000000E-03 0.  1.
         11   -1    0    0    0    0 -0.00000000000E+00 -0.00000000000E+00 -0.45593999997E+02  0.45594000000E+02  0.51100000000E-03 0. -1.
    9900012    2    1    2    0    0 -0.80113943111E+01 -0.39385058180E+02 -0.20340801426E+02  0.46142318195E+02  0.10000003956E+02 0.  0.
         12    1    1    2    0    0  0.80113943111E+01  0.39385058180E+02  0.20340801426E+02  0.45045681805E+02  0.00000000000E+00 0. -1.
         11    1    3    3    0    0 -0.74904536752E+01 -0.23190582164E+02 -0.97122695903E+01  0.26234293934E+02  0.51100000000E-03 0. -1.
        -11    1    3    3    0    0 -0.37694783459E+00 -0.70878008161E+00  0.39913311781E+00  0.89653018964E+00  0.51100000000E-03 0.  1.
         12    1    3    3    0    0 -0.14399280135E+00 -0.15485695935E+02 -0.11027664953E+02  0.19011494072E+02  0.00000000000E+00 0. -1.
</event>
<event>
 7    1  0.2328810E-008  0.4614232E+02  0.7816164E-02  0.1320468E+00
        -11   -1    0    0    0    0  0.00000000000E+00  0.00000000000E+00  0.45593999997E+02  0.45594000000E+02  0.51100000000E-03 0.  1.
         11   -1    0    0    0    0 -0.00000000000E+00 -0.00000000000E+00 -0.45593999997E+02  0.45594000000E+02  0.51100000000E-03 0. -1.
    9900012    2    1    2    0    0 -0.15871091570E+02 -0.19842707091E+02  0.37195280922E+02  0.46142317685E+02  0.99999993100E+01 0.  0.
         12    1    1    2    0    0  0.15871091570E+02  0.19842707091E+02 -0.37195280922E+02  0.45045682315E+02  0.00000000000E+00 0. -1.
         11    1    3    3    0    0 -0.74974913724E+01 -0.65447082387E+01  0.20166426563E+02  0.22488449110E+02  0.51100000000E-03 0. -1.
        -11    1    3    3    0    0 -0.83601377564E+01 -0.99033986868E+01  0.12620377360E+02  0.18089862737E+02  0.51100000000E-03 0.  1.
        -12    1    3    3    0    0 -0.13462441002E-01 -0.33946001655E+01  0.44084769991E+01  0.55640058387E+01  0.00000000000E+00 0.  1.
</event>
<event>
 7    1  0.2328810E-008  0.4614232E+02  0.7816164E-02  0.1320468E+00
        -11   -1    0    0    0    0  0.00000000000E+00  0.00000000000E+00  0.45593999997E+02  0.45594000000E+02  0.51100000000E-03 0.  1.
         11   -1    0    0    0    0 -0.00000000000E+00 -0.00000000000E+00 -0.45593999997E+02  0.45594000000E+02  0.51100000000E-03 0. -1.
    9900012    2    1    2    0    0 -0.22471054244E-01  0.23257405635E+02  0.38577273865E+02  0.46142317846E+02  0.10000000777E+02 0.  0.
         12    1    1    2    0    0  0.22471054244E-01 -0.23257405635E+02 -0.38577273865E+02  0.45045682154E+02  0.00000000000E+00 0. -1.
         11    1    3    3    0    0 -0.65077861762E+00  0.20339247594E+02  0.32152315244E+02  0.38051016824E+02  0.51100000000E-03 0. -1.
        -11    1    3    3    0    0  0.21961764051E+01  0.22731174914E+01  0.47694292849E+01  0.57216876791E+01  0.51100000000E-03 0.  1.
         12    1    3    3    0    0 -0.15678688418E+01  0.64504055019E+00  0.16555293357E+01  0.23696133435E+01  0.00000000000E+00 0. -1.
</event>
<event>
 7    1  0.2328810E-008  0.4614232E+02  0.7816164E-02  0.1320468E+00
        -11   -1    0    0    0    0  0.00000000000E+00  0.00000000000E+00  0.45593999997E+02  0.45594000000E+02  0.51100000000E-03 0.  1.
         11   -1    0    0    0    0 -0.00000000000E+00 -0.00000000000E+00 -0.45593999997E+02  0.45594000000E+02  0.51100000000E-03 0. -1.
    9900012    2    1    2    0    0  0.22582853004E+01  0.38551079540E+02 -0.23191107035E+02  0.46142322830E+02  0.10000046222E+02 0.  0.
         12    1    1    2    0    0 -0.22582853004E+01 -0.38551079540E+02  0.23191107035E+02  0.45045677170E+02  0.00000000000E+00 0. -1.
         11    1    3    3    0    0 -0.40743344318E-01  0.65095031907E+01 -0.17721088667E+01  0.67465296195E+01  0.51100000000E-03 0.  1.
        -11    1    3    3    0    0  0.17089695540E+01  0.47454747465E+01 -0.63729330353E+00  0.50839207824E+01  0.51100000000E-03 0. -1.
        -12    1    3    3    0    0  0.59005909069E+00  0.27296101603E+02 -0.20781704865E+02  0.34311872428E+02  0.00000000000E+00 0.  1.
</event>
<event>
 7    1  0.2328810E-008  0.4614232E+02  0.7816164E-02  0.1320468E+00
        -11   -1    0    0    0    0  0.00000000000E+00  0.00000000000E+00  0.45593999997E+02  0.45594000000E+02  0.51100000000E-03 0. -1.
         11   -1    0    0    0    0 -0.00000000000E+00 -0.00000000000E+00 -0.45593999997E+02  0.45594000000E+02  0.51100000000E-03 0.  1.
    9900012    2    1    2    0    0 -0.37928644866E+02  0.11806167757E+02 -0.21240194194E+02  0.46142317100E+02  0.99999939734E+01 0.  0.
         12    1    1    2    0    0  0.37928644866E+02 -0.11806167757E+02  0.21240194194E+02  0.45045682900E+02  0.00000000000E+00 0. -1.
         11    1    3    3    0    0 -0.68719314480E+01  0.32821456820E-01 -0.41725864156E+01  0.80395893384E+01  0.51100000000E-03 0. -1.
        -11    1    3    3    0    0 -0.13491263758E+02  0.22168082752E+01 -0.98187620893E+01  0.16832603065E+02  0.51100000000E-03 0.  1.
         12    1    3    3    0    0 -0.17565449660E+02  0.95565380246E+01 -0.72488456894E+01  0.21270124697E+02  0.00000000000E+00 0. -1.
</event>
<event>
 7    1  0.2328810E-008  0.4614232E+02  0.7816164E-02  0.1320468E+00
        -11   -1    0    0    0    0  0.00000000000E+00  0.00000000000E+00  0.45593999997E+02  0.45594000000E+02  0.51100000000E-03 0.  1.
         11   -1    0    0    0    0 -0.00000000000E+00 -0.00000000000E+00 -0.45593999997E+02  0.45594000000E+02  0.51100000000E-03 0. -1.
    9900012    2    1    2    0    0 -0.15474792145E+02 -0.30574798120E+02 -0.29237410658E+02  0.46142315923E+02  0.99999832342E+01 0.  0.
         12    1    1    2    0    0  0.15474792145E+02  0.30574798120E+02  0.29237410658E+02  0.45045684077E+02  0.00000000000E+00 0. -1.
         11    1    3    3    0    0  0.67927835972E+00 -0.81533386737E+00 -0.11009006015E+01  0.15291078447E+01  0.51100000000E-03 0. -1.
        -11    1    3    3    0    0 -0.68037543925E+01 -0.61345197968E+01 -0.63878681786E+01  0.11168181011E+02  0.51100000000E-03 0.  1.
        -12    1    3    3    0    0 -0.93503161118E+01 -0.23624944456E+02 -0.21748641878E+02  0.33445027067E+02  0.00000000000E+00 0.  1.
</event>
<event>
 7    1  0.2328810E-008  0.4614232E+02  0.7816164E-02  0.1320468E+00
        -11   -1    0    0    0    0  0.00000000000E+00  0.00000000000E+00  0.45593999997E+02  0.45594000000E+02  0.51100000000E-03 0.  1.
         11   -1    0    0    0    0 -0.00000000000E+00 -0.00000000000E+00 -0.45593999997E+02  0.45594000000E+02  0.51100000000E-03 0. -1.
    9900012    2    1    2    0    0 -0.17234894283E+02 -0.14958314461E+02  0.38837105826E+02  0.46142317172E+02  0.99999946320E+01 0.  0.
         12    1    1    2    0    0  0.17234894283E+02  0.14958314461E+02 -0.38837105826E+02  0.45045682828E+02  0.00000000000E+00 0. -1.
         11    1    3    3    0    0 -0.39972231523E+01 -0.19808969498E+01  0.28737459612E+01  0.53066149064E+01  0.51100000000E-03 0. -1.
        -11    1    3    3    0    0 -0.93943433636E+01 -0.12154524149E+02  0.27375564365E+02  0.31391203690E+02  0.51100000000E-03 0.  1.
        -12    1    3    3    0    0 -0.38433277672E+01 -0.82289336208E+00  0.85877954996E+01  0.94444985761E+01  0.00000000000E+00 0.  1.
</event>
<event>
 7    1  0.2328810E-008  0.4614232E+02  0.7816164E-02  0.1320468E+00
        -11   -1    0    0    0    0  0.00000000000E+00  0.00000000000E+00  0.45593999997E+02  0.45594000000E+02  0.51100000000E-03 0.  1.
         11   -1    0    0    0    0 -0.00000000000E+00 -0.00000000000E+00 -0.45593999997E+02  0.45594000000E+02  0.51100000000E-03 0. -1.
    9900012    2    1    2    0    0 -0.42176983915E+02  0.48015464191E+01  0.15071846256E+02  0.46142319078E+02  0.10000012008E+02 0.  0.
         12    1    1    2    0    0  0.42176983915E+02 -0.48015464191E+01 -0.15071846256E+02  0.45045680922E+02  0.00000000000E+00 0. -1.
         11    1    3    3    0    0 -0.50202762165E+01 -0.65943571507E-01 -0.78438400373E+00  0.50816119855E+01  0.51100000000E-03 0. -1.
        -11    1    3    3    0    0 -0.14153808673E+02 -0.78575112470E+00  0.64505996777E+01  0.15574271773E+02  0.51100000000E-03 0.  1.
        -12    1    3    3    0    0 -0.23002899025E+02  0.56532411153E+01  0.94056305817E+01  0.25486435320E+02  0.00000000000E+00 0.  1.
</event>
<event>
 7    1  0.2328810E-008  0.4614232E+02  0.7816164E-02  0.1320468E+00
        -11   -1    0    0    0    0  0.00000000000E+00  0.00000000000E+00  0.45593999997E+02  0.45594000000E+02  0.51100000000E-03 0.  1.
         11   -1    0    0    0    0 -0.00000000000E+00 -0.00000000000E+00 -0.45593999997E+02  0.45594000000E+02  0.51100000000E-03 0. -1.
    9900012    2    1    2    0    0  0.10776247041E+01 -0.44116991572E+02  0.90356626025E+01  0.46142318531E+02  0.10000007017E+02 0.  0.
         12    1    1    2    0    0 -0.10776247041E+01  0.44116991572E+02 -0.90356626025E+01  0.45045681469E+02  0.00000000000E+00 0. -1.
         11    1    3    3    0    0  0.55911939203E+00 -0.98444709913E+01  0.50197883663E+00  0.98731052160E+01  0.51100000000E-03 0. -1.
        -11    1    3    3    0    0 -0.27907167977E+01 -0.28033280981E+02  0.72668023312E+01  0.29093974620E+02  0.51100000000E-03 0.  1.
         12    1    3    3    0    0  0.33092221097E+01 -0.62392396002E+01  0.12668814346E+01  0.71752386950E+01  0.00000000000E+00 0. -1.
</event>
<event>
 7    1  0.2328810E-008  0.4614232E+02  0.7816164E-02  0.1320468E+00
        -11   -1    0    0    0    0  0.00000000000E+00  0.00000000000E+00  0.45593999997E+02  0.45594000000E+02  0.51100000000E-03 0. -1.
         11   -1    0    0    0    0 -0.00000000000E+00 -0.00000000000E+00 -0.45593999997E+02  0.45594000000E+02  0.51100000000E-03 0.  1.
    9900012    2    1    2    0    0  0.44997463653E+02  0.21171762255E+00 -0.20729072046E+01  0.46142317590E+02  0.99999984369E+01 0.  0.
         12    1    1    2    0    0 -0.44997463653E+02 -0.21171762255E+00  0.20729072046E+01  0.45045682410E+02  0.00000000000E+00 0. -1.
         11    1    3    3    0    0  0.14307580696E+02 -0.39560250660E+01  0.13949939488E+01  0.14909829243E+02  0.51100000000E-03 0. -1.
        -11    1    3    3    0    0  0.16735056759E+02  0.15956808625E+01 -0.11051696606E+01  0.16847246730E+02  0.51100000000E-03 0.  1.
         12    1    3    3    0    0  0.13954826198E+02  0.25720618261E+01 -0.23627314928E+01  0.14385241616E+02  0.00000000000E+00 0. -1.
</event>
<event>
 7    1  0.2328810E-008  0.4614232E+02  0.7816164E-02  0.1320468E+00
        -11   -1    0    0    0    0  0.00000000000E+00  0.00000000000E+00  0.45593999997E+02  0.45594000000E+02  0.51100000000E-03 0.  1.
         11   -1    0    0    0    0 -0.00000000000E+00 -0.00000000000E+00 -0.45593999997E+02  0.45594000000E+02  0.51100000000E-03 0. -1.
    9900012    2    1    2    0    0  0.14796848704E+02  0.13686770873E+02  0.40284476661E+02  0.46142317761E+02  0.10000000002E+02 0.  0.
         12    1    1    2    0    0 -0.14796848704E+02 -0.13686770873E+02 -0.40284476661E+02  0.45045682239E+02  0.00000000000E+00 0. -1.
         11    1    3    3    0    0  0.18422601329E+01  0.23428044131E+01  0.84975103881E+00  0.30991502069E+01  0.51100000000E-03 0. -1.
        -11    1    3    3    0    0  0.50712801719E+01  0.50975138955E+01  0.16041015941E+02  0.17578871499E+02  0.51100000000E-03 0.  1.
         12    1    3    3    0    0  0.78833083991E+01  0.62464525648E+01  0.23393709681E+02  0.25464296056E+02  0.00000000000E+00 0. -1.
</event>
<event>
 7    1  0.2328810E-008  0.4614232E+02  0.7816164E-02  0.1320468E+00
        -11   -1    0    0    0    0  0.00000000000E+00  0.00000000000E+00  0.45593999997E+02  0.45594000000E+02  0.51100000000E-03 0.  1.
         11   -1    0    0    0    0 -0.00000000000E+00 -0.00000000000E+00 -0.45593999997E+02  0.45594000000E+02  0.51100000000E-03 0. -1.
    9900012    2    1    2    0    0 -0.26004568228E+02 -0.27854568248E+02  0.24020806665E+02  0.46142315480E+02  0.99999792027E+01 0.  0.
         12    1    1    2    0    0  0.26004568228E+02  0.27854568248E+02 -0.24020806665E+02  0.45045684520E+02  0.00000000000E+00 0. -1.
         11    1    3    3    0    0 -0.32515502968E+01 -0.16367023327E+01 -0.35976031241E+00  0.36579778023E+01  0.51100000000E-03 0. -1.
        -11    1    3    3    0    0 -0.30139849745E+01 -0.25253496532E+01  0.32538055367E+01  0.51037973147E+01  0.51100000000E-03 0.  1.
         12    1    3    3    0    0 -0.19739032956E+02 -0.23692516262E+02  0.21126761441E+02  0.37380540363E+02  0.00000000000E+00 0. -1.
</event>
<event>
 7    1  0.2328810E-008  0.4614232E+02  0.7816164E-02  0.1320468E+00
        -11   -1    0    0    0    0  0.00000000000E+00  0.00000000000E+00  0.45593999997E+02  0.45594000000E+02  0.51100000000E-03 0.  1.
         11   -1    0    0    0    0 -0.00000000000E+00 -0.00000000000E+00 -0.45593999997E+02  0.45594000000E+02  0.51100000000E-03 0. -1.
    9900012    2    1    2    0    0  0.13420409611E+02  0.42213873548E+02  0.81850454875E+01  0.46142317813E+02  0.10000000473E+02 0.  0.
         12    1    1    2    0    0 -0.13420409611E+02 -0.42213873548E+02 -0.81850454875E+01  0.45045682187E+02  0.00000000000E+00 0. -1.
         11    1    3    3    0    0  0.62358412016E+01  0.11745314402E+02  0.24117000560E+01  0.13514970341E+02  0.51100000000E-03 0. -1.
        -11    1    3    3    0    0  0.65640018923E+01  0.28215207298E+02  0.72507554636E+01  0.29862309000E+02  0.51100000000E-03 0.  1.
         12    1    3    3    0    0  0.62056651692E+00  0.22533518481E+01 -0.14774100320E+01  0.27650384728E+01  0.00000000000E+00 0. -1.
</event>
<event>
 7    1  0.2328810E-008  0.4614232E+02  0.7816164E-02  0.1320468E+00
        -11   -1    0    0    0    0  0.00000000000E+00  0.00000000000E+00  0.45593999997E+02  0.45594000000E+02  0.51100000000E-03 0.  1.
         11   -1    0    0    0    0 -0.00000000000E+00 -0.00000000000E+00 -0.45593999997E+02  0.45594000000E+02  0.51100000000E-03 0. -1.
    9900012    2    1    2    0    0 -0.56854941089E+01 -0.41573013942E+02  0.16385152215E+02  0.46142317137E+02  0.99999943121E+01 0.  0.
         12    1    1    2    0    0  0.56854941089E+01  0.41573013942E+02 -0.16385152215E+02  0.45045682863E+02  0.00000000000E+00 0. -1.
         11    1    3    3    0    0  0.45741067630E+00 -0.45435668404E+01  0.20509999841E+00  0.45711366672E+01  0.51100000000E-03 0. -1.
        -11    1    3    3    0    0 -0.25581254731E+01 -0.25379113439E+01  0.12181716289E+01  0.38038062916E+01  0.51100000000E-03 0.  1.
        -12    1    3    3    0    0 -0.35847793120E+01 -0.34491535757E+02  0.14961880588E+02  0.37767374178E+02  0.00000000000E+00 0.  1.
</event>
<event>
 7    1  0.2328810E-008  0.4614232E+02  0.7816164E-02  0.1320468E+00
        -11   -1    0    0    0    0  0.00000000000E+00  0.00000000000E+00  0.45593999997E+02  0.45594000000E+02  0.51100000000E-03 0.  1.
         11   -1    0    0    0    0 -0.00000000000E+00 -0.00000000000E+00 -0.45593999997E+02  0.45594000000E+02  0.51100000000E-03 0. -1.
    9900012    2    1    2    0    0 -0.95633003456E+01 -0.89120862172E+01  0.43107207153E+02  0.46142319821E+02  0.10000018784E+02 0.  0.
         12    1    1    2    0    0  0.95633003456E+01  0.89120862172E+01 -0.43107207153E+02  0.45045680179E+02  0.00000000000E+00 0. -1.
         11    1    3    3    0    0 -0.69152876932E+01 -0.57696924154E+01  0.25017416241E+02  0.26589126914E+02  0.51100000000E-03 0.  1.
        -11    1    3    3    0    0 -0.27600274477E+01 -0.45606743742E+01  0.99311335115E+01  0.11271420290E+02  0.51100000000E-03 0. -1.
         12    1    3    3    0    0  0.11201479522E+00  0.14182805724E+01  0.81586574010E+01  0.82817726172E+01  0.00000000000E+00 0. -1.
</event>
<event>
 7    1  0.2328810E-008  0.4614232E+02  0.7816164E-02  0.1320468E+00
        -11   -1    0    0    0    0  0.00000000000E+00  0.00000000000E+00  0.45593999997E+02  0.45594000000E+02  0.51100000000E-03 0. -1.
         11   -1    0    0    0    0 -0.00000000000E+00 -0.00000000000E+00 -0.45593999997E+02  0.45594000000E+02  0.51100000000E-03 0.  1.
    9900012    2    1    2    0    0 -0.96413561167E+00 -0.44065425163E+02 -0.92963545838E+01  0.46142318067E+02  0.10000002790E+02 0.  0.
         12    1    1    2    0    0  0.96413561167E+00  0.44065425163E+02  0.92963545838E+01  0.45045681933E+02  0.00000000000E+00 0. -1.
         11    1    3    3    0    0  0.85568000258E+00 -0.20641657126E+01  0.67611638767E+00  0.23345453490E+01  0.51100000000E-03 0. -1.
        -11    1    3    3    0    0  0.29102257725E+00 -0.15606385306E+02 -0.28356153021E+00  0.15611673961E+02  0.51100000000E-03 0.  1.
        -12    1    3    3    0    0 -0.21108381915E+01 -0.26394874144E+02 -0.96889094413E+01  0.28196098757E+02  0.00000000000E+00 0.  1.
</event>
<event>
 7    1  0.2328810E-008  0.4614232E+02  0.7816164E-02  0.1320468E+00
        -11   -1    0    0    0    0  0.00000000000E+00  0.00000000000E+00  0.45593999997E+02  0.45594000000E+02  0.51100000000E-03 0. -1.
         11   -1    0    0    0    0 -0.00000000000E+00 -0.00000000000E+00 -0.45593999997E+02  0.45594000000E+02  0.51100000000E-03 0.  1.
    9900012    2    1    2    0    0  0.40863747364E+02 -0.21260554947E+01 -0.18834742628E+02  0.46142317738E+02  0.99999997872E+01 0.  0.
         12    1    1    2    0    0 -0.40863747364E+02  0.21260554947E+01  0.18834742628E+02  0.45045682262E+02  0.00000000000E+00 0. -1.
         11    1    3    3    0    0  0.25577177772E+01 -0.82553866129E+00 -0.26606133183E+01  0.37818378865E+01  0.51100000000E-03 0. -1.
        -11    1    3    3    0    0  0.27605175522E+02  0.26123582103E+01 -0.10720850242E+02  0.29728887655E+02  0.51100000000E-03 0.  1.
        -12    1    3    3    0    0  0.10700854064E+02 -0.39128750437E+01 -0.54532790682E+01  0.12631592196E+02  0.00000000000E+00 0.  1.
</event>
<event>
 7    1  0.2328810E-008  0.4614232E+02  0.7816164E-02  0.1320468E+00
        -11   -1    0    0    0    0  0.00000000000E+00  0.00000000000E+00  0.45593999997E+02  0.45594000000E+02  0.51100000000E-03 0.  1.
         11   -1    0    0    0    0 -0.00000000000E+00 -0.00000000000E+00 -0.45593999997E+02  0.45594000000E+02  0.51100000000E-03 0. -1.
    9900012    2    1    2    0    0 -0.27555483764E+02  0.16081464568E+02  0.31799298644E+02  0.46142316718E+02  0.99999904840E+01 0.  0.
         12    1    1    2    0    0  0.27555483764E+02 -0.16081464568E+02 -0.31799298644E+02  0.45045683282E+02  0.00000000000E+00 0. -1.
         11    1    3    3    0    0 -0.42424944104E+01  0.31271574581E+01  0.40523406836E+01  0.66482582582E+01  0.51100000000E-03 0. -1.
        -11    1    3    3    0    0 -0.12528834475E+02  0.26734929909E+01  0.16145251037E+02  0.20610395178E+02  0.51100000000E-03 0.  1.
         12    1    3    3    0    0 -0.10784154879E+02  0.10280814119E+02  0.11601706924E+02  0.18883663282E+02  0.00000000000E+00 0. -1.
</event>
<event>
 7    1  0.2328810E-008  0.4614232E+02  0.7816164E-02  0.1320468E+00
        -11   -1    0    0    0    0  0.00000000000E+00  0.00000000000E+00  0.45593999997E+02  0.45594000000E+02  0.51100000000E-03 0. -1.
         11   -1    0    0    0    0 -0.00000000000E+00 -0.00000000000E+00 -0.45593999997E+02  0.45594000000E+02  0.51100000000E-03 0.  1.
    9900012    2    1    2    0    0  0.40032129724E+02  0.11261010723E+02 -0.17312763813E+02  0.46142316926E+02  0.99999923827E+01 0.  0.
         12    1    1    2    0    0 -0.40032129724E+02 -0.11261010723E+02  0.17312763813E+02  0.45045683074E+02  0.00000000000E+00 0. -1.
         11    1    3    3    0    0  0.29092497993E+01  0.11238483611E+01 -0.36478653140E+00  0.31400380584E+01  0.51100000000E-03 0. -1.
        -11    1    3    3    0    0  0.15188557428E+02  0.78010913039E+01 -0.44326778697E+01  0.17640803146E+02  0.51100000000E-03 0.  1.
        -12    1    3    3    0    0  0.21934322497E+02  0.23360710579E+01 -0.12515299412E+02  0.25361475722E+02  0.00000000000E+00 0.  1.
</event>
<event>
 7    1  0.2328810E-008  0.4614232E+02  0.7816164E-02  0.1320468E+00
        -11   -1    0    0    0    0  0.00000000000E+00  0.00000000000E+00  0.45593999997E+02  0.45594000000E+02  0.51100000000E-03 0. -1.
         11   -1    0    0    0    0 -0.00000000000E+00 -0.00000000000E+00 -0.45593999997E+02  0.45594000000E+02  0.51100000000E-03 0.  1.
    9900012    2    1    2    0    0  0.29222168352E+02  0.23199735961E+02 -0.25237881051E+02  0.46142317501E+02  0.99999976315E+01 0.  0.
         12    1    1    2    0    0 -0.29222168352E+02 -0.23199735961E+02  0.25237881051E+02  0.45045682499E+02  0.00000000000E+00 0. -1.
         11    1    3    3    0    0  0.97101298694E+00 -0.18330117288E+00  0.17097215336E+00  0.10028445937E+01  0.51100000000E-03 0. -1.
        -11    1    3    3    0    0  0.10972890301E+02  0.12192886015E+02 -0.14224842626E+02  0.21712138055E+02  0.51100000000E-03 0.  1.
        -12    1    3    3    0    0  0.17278265064E+02  0.11190151119E+02 -0.11184010578E+02  0.23427334852E+02  0.00000000000E+00 0.  1.
</event>
<event>
 7    1  0.2328810E-008  0.4614231E+02  0.7816164E-02  0.1320468E+00
        -11   -1    0    0    0    0  0.00000000000E+00  0.00000000000E+00  0.45593999997E+02  0.45594000000E+02  0.51100000000E-03 0. -1.
         11   -1    0    0    0    0 -0.00000000000E+00 -0.00000000000E+00 -0.45593999997E+02  0.45594000000E+02  0.51100000000E-03 0.  1.
    9900012    2    1    2    0    0 -0.35965946115E+02  0.85000133346E+01 -0.25754889135E+02  0.46142314069E+02  0.99999663312E+01 0.  0.
         12    1    1    2    0    0  0.35965946115E+02 -0.85000133346E+01  0.25754889135E+02  0.45045685931E+02  0.00000000000E+00 0. -1.
         11    1    3    3    0    0 -0.78749106895E+01  0.43057696680E+01 -0.47304320105E+01  0.10145484615E+02  0.51100000000E-03 0. -1.
        -11    1    3    3    0    0 -0.19513184586E+02  0.50632039565E+01 -0.17452651229E+02  0.26664497786E+02  0.51100000000E-03 0.  1.
        -12    1    3    3    0    0 -0.85778508392E+01 -0.86896028989E+00 -0.35718058959E+01  0.93323316681E+01  0.00000000000E+00 0.  1.
</event>
<event>
 7    1  0.2328810E-008  0.4614232E+02  0.7816164E-02  0.1320468E+00
        -11   -1    0    0    0    0  0.00000000000E+00  0.00000000000E+00  0.45593999997E+02  0.45594000000E+02  0.51100000000E-03 0.  1.
         11   -1    0    0    0    0 -0.00000000000E+00 -0.00000000000E+00 -0.45593999997E+02  0.45594000000E+02  0.51100000000E-03 0. -1.
    9900012    2    1    2    0    0  0.43699222879E+02 -0.90395953922E+01  0.61462858845E+01  0.46142321014E+02  0.10000029665E+02 0.  0.
         12    1    1    2    0    0 -0.43699222879E+02  0.90395953922E+01 -0.61462858845E+01  0.45045678986E+02  0.00000000000E+00 0. -1.
         11    1    3    3    0    0  0.10723716898E+02 -0.49122922230E+01  0.21068070615E+01  0.11981959575E+02  0.51100000000E-03 0. -1.
        -11    1    3    3    0    0  0.26451422889E+02 -0.45270297980E+01  0.56594546762E+01  0.27426286645E+02  0.51100000000E-03 0.  1.
         12    1    3    3    0    0  0.65240830916E+01  0.39972662886E+00 -0.16199758532E+01  0.67340747938E+01  0.00000000000E+00 0. -1.
</event>
<event>
 7    1  0.2328810E-008  0.4614231E+02  0.7816164E-02  0.1320468E+00
        -11   -1    0    0    0    0  0.00000000000E+00  0.00000000000E+00  0.45593999997E+02  0.45594000000E+02  0.51100000000E-03 0. -1.
         11   -1    0    0    0    0 -0.00000000000E+00 -0.00000000000E+00 -0.45593999997E+02  0.45594000000E+02  0.51100000000E-03 0.  1.
    9900012    2    1    2    0    0  0.19047203439E+02 -0.92298222953E+01 -0.39763407431E+02  0.46142310428E+02  0.99999331334E+01 0.  0.
         12    1    1    2    0    0 -0.19047203439E+02  0.92298222953E+01  0.39763407431E+02  0.45045689572E+02  0.00000000000E+00 0. -1.
         11    1    3    3    0    0  0.91258296154E+00  0.74907262431E+00 -0.12538578099E+01  0.17222302770E+01  0.51100000000E-03 0. -1.
        -11    1    3    3    0    0  0.13864521883E+02 -0.53943341947E+01 -0.20334834106E+02  0.25195818836E+02  0.51100000000E-03 0.  1.
        -12    1    3    3    0    0  0.42700985940E+01 -0.45845607249E+01 -0.18174715515E+02  0.19224261315E+02  0.00000000000E+00 0.  1.
</event>
<event>
 7    1  0.2328810E-008  0.4614232E+02  0.7816164E-02  0.1320468E+00
        -11   -1    0    0    0    0  0.00000000000E+00  0.00000000000E+00  0.45593999997E+02  0.45594000000E+02  0.51100000000E-03 0.  1.
         11   -1    0    0    0    0 -0.00000000000E+00 -0.00000000000E+00 -0.45593999997E+02  0.45594000000E+02  0.51100000000E-03 0. -1.
    9900012    2    1    2    0    0  0.10288113555E+01  0.31746887726E+02  0.31940415426E+02  0.46142317957E+02  0.10000001789E+02 0.  0.
         12    1    1    2    0    0 -0.10288113555E+01 -0.31746887726E+02 -0.31940415426E+02  0.45045682043E+02  0.00000000000E+00 0. -1.
         11    1    3    3    0    0  0.14370485342E+01  0.10697935799E+02  0.64586283092E+01  0.12578744720E+02  0.51100000000E-03 0. -1.
        -11    1    3    3    0    0 -0.27467972904E+01  0.11459168766E+02  0.11646034407E+02  0.16567666155E+02  0.51100000000E-03 0.  1.
        -12    1    3    3    0    0  0.23385601117E+01  0.95897831618E+01  0.13835752710E+02  0.16995907082E+02  0.00000000000E+00 0.  1.
</event>
<event>
 7    1  0.2328810E-008  0.4614232E+02  0.7816164E-02  0.1320468E+00
        -11   -1    0    0    0    0  0.00000000000E+00  0.00000000000E+00  0.45593999997E+02  0.45594000000E+02  0.51100000000E-03 0.  1.
         11   -1    0    0    0    0 -0.00000000000E+00 -0.00000000000E+00 -0.45593999997E+02  0.45594000000E+02  0.51100000000E-03 0. -1.
    9900012    2    1    2    0    0  0.31733005028E+01 -0.11095440802E+02  0.43542334059E+02  0.46142317655E+02  0.99999990286E+01 0.  0.
         12    1    1    2    0    0 -0.31733005028E+01  0.11095440802E+02 -0.43542334059E+02  0.45045682345E+02  0.00000000000E+00 0. -1.
         11    1    3    3    0    0 -0.73072697369E+00 -0.14177225187E+01  0.15319867065E+02  0.15402669450E+02  0.51100000000E-03 0. -1.
        -11    1    3    3    0    0 -0.99330632172E+00 -0.53576932735E+01  0.15664516308E+02  0.16585192374E+02  0.51100000000E-03 0.  1.
        -12    1    3    3    0    0  0.48973337982E+01 -0.43200250098E+01  0.12557950686E+02  0.14154455830E+02  0.00000000000E+00 0.  1.
</event>
<event>
 7    1  0.2328810E-008  0.4614232E+02  0.7816164E-02  0.1320468E+00
        -11   -1    0    0    0    0  0.00000000000E+00  0.00000000000E+00  0.45593999997E+02  0.45594000000E+02  0.51100000000E-03 0.  1.
         11   -1    0    0    0    0 -0.00000000000E+00 -0.00000000000E+00 -0.45593999997E+02  0.45594000000E+02  0.51100000000E-03 0. -1.
    9900012    2    1    2    0    0 -0.22902558531E+00 -0.43994993353E+02  0.96696243475E+01  0.46142317322E+02  0.99999959971E+01 0.  0.
         12    1    1    2    0    0  0.22902558531E+00  0.43994993353E+02 -0.96696243475E+01  0.45045682678E+02  0.00000000000E+00 0. -1.
         11    1    3    3    0    0 -0.31131153139E+01 -0.19743804041E+02  0.18153666274E+01  0.20069998536E+02  0.51100000000E-03 0. -1.
        -11    1    3    3    0    0  0.27791229909E+01 -0.14125288573E+02  0.24800136647E+01  0.14608140535E+02  0.51100000000E-03 0.  1.
         12    1    3    3    0    0  0.10496673771E+00 -0.10125900740E+02  0.53742440554E+01  0.11464178251E+02  0.00000000000E+00 0. -1.
</event>
<event>
 7    1  0.2328810E-008  0.4614232E+02  0.7816164E-02  0.1320468E+00
        -11   -1    0    0    0    0  0.00000000000E+00  0.00000000000E+00  0.45593999997E+02  0.45594000000E+02  0.51100000000E-03 0.  1.
         11   -1    0    0    0    0 -0.00000000000E+00 -0.00000000000E+00 -0.45593999997E+02  0.45594000000E+02  0.51100000000E-03 0. -1.
    9900012    2    1    2    0    0  0.35640829512E+01  0.23312476773E+02  0.38378890298E+02  0.46142317842E+02  0.10000000735E+02 0.  0.
         12    1    1    2    0    0 -0.35640829512E+01 -0.23312476773E+02 -0.38378890298E+02  0.45045682158E+02  0.00000000000E+00 0. -1.
         11    1    3    3    0    0  0.14070674518E+01  0.11702338877E+02  0.14110577228E+02  0.18385672791E+02  0.51100000000E-03 0. -1.
        -11    1    3    3    0    0 -0.27159617747E+00  0.71770972345E+01  0.81439418459E+01  0.10858557835E+02  0.51100000000E-03 0.  1.
        -12    1    3    3    0    0  0.24286116769E+01  0.44330406613E+01  0.16124371224E+02  0.16898087216E+02  0.00000000000E+00 0.  1.
</event>
<event>
 7    1  0.2328810E-008  0.4614232E+02  0.7816164E-02  0.1320468E+00
        -11   -1    0    0    0    0  0.00000000000E+00  0.00000000000E+00  0.45593999997E+02  0.45594000000E+02  0.51100000000E-03 0. -1.
         11   -1    0    0    0    0 -0.00000000000E+00 -0.00000000000E+00 -0.45593999997E+02  0.45594000000E+02  0.51100000000E-03 0.  1.
    9900012    2    1    2    0    0 -0.21358673284E+02  0.35399488259E+02 -0.17882860117E+02  0.46142318970E+02  0.10000011023E+02 0.  0.
         12    1    1    2    0    0  0.21358673284E+02 -0.35399488259E+02  0.17882860117E+02  0.45045681030E+02  0.00000000000E+00 0. -1.
         11    1    3    3    0    0 -0.48330042136E+01  0.41408315610E+01 -0.15943692222E+01  0.65609777642E+01  0.51100000000E-03 0. -1.
        -11    1    3    3    0    0 -0.77911946320E+00  0.48257507257E+01 -0.27532918473E+00  0.48959885239E+01  0.51100000000E-03 0.  1.
        -12    1    3    3    0    0 -0.15746549607E+02  0.26432905973E+02 -0.16013161710E+02  0.34685352682E+02  0.00000000000E+00 0.  1.
</event>
<event>
 7    1  0.2328810E-008  0.4614232E+02  0.7816164E-02  0.1320468E+00
        -11   -1    0    0    0    0  0.00000000000E+00  0.00000000000E+00  0.45593999997E+02  0.45594000000E+02  0.51100000000E-03 0.  1.
         11   -1    0    0    0    0 -0.00000000000E+00 -0.00000000000E+00 -0.45593999997E+02  0.45594000000E+02  0.51100000000E-03 0. -1.
    9900012    2    1    2    0    0  0.39141167300E+00 -0.76518297984E+00  0.45037482322E+02  0.46142317388E+02  0.99999965933E+01 0.  0.
         12    1    1    2    0    0 -0.39141167300E+00  0.76518297984E+00 -0.45037482322E+02  0.45045682612E+02  0.00000000000E+00 0. -1.
         11    1    3    3    0    0  0.59865797512E+00  0.18254566573E+01  0.22352494759E+02  0.22434899277E+02  0.51100000000E-03 0. -1.
        -11    1    3    3    0    0 -0.23471707602E+01 -0.25465259452E+01  0.19878281693E+02  0.20177712662E+02  0.51100000000E-03 0.  1.
         12    1    3    3    0    0  0.21399244581E+01 -0.44113691926E-01  0.28067058712E+01  0.35297054483E+01  0.00000000000E+00 0. -1.
</event>
<event>
 7    1  0.2328810E-008  0.4614232E+02  0.7816164E-02  0.1320468E+00
        -11   -1    0    0    0    0  0.00000000000E+00  0.00000000000E+00  0.45593999997E+02  0.45594000000E+02  0.51100000000E-03 0. -1.
         11   -1    0    0    0    0 -0.00000000000E+00 -0.00000000000E+00 -0.45593999997E+02  0.45594000000E+02  0.51100000000E-03 0.  1.
    9900012    2    1    2    0    0 -0.32282187046E+02 -0.28760504524E+02  0.12641496497E+02  0.46142315915E+02  0.99999831702E+01 0.  0.
         12    1    1    2    0    0  0.32282187046E+02  0.28760504524E+02 -0.12641496497E+02  0.45045684085E+02  0.00000000000E+00 0. -1.
         11    1    3    3    0    0 -0.76758280449E+01 -0.73886539566E+01  0.63776310841E+01  0.12417114076E+02  0.51100000000E-03 0. -1.
        -11    1    3    3    0    0 -0.50773209443E+01 -0.75163277257E+01  0.30282351384E+01  0.95626658818E+01  0.51100000000E-03 0.  1.
        -12    1    3    3    0    0 -0.19529038057E+02 -0.13855522842E+02  0.32356302748E+01  0.24162535958E+02  0.00000000000E+00 0.  1.
</event>
<event>
 7    1  0.2328810E-008  0.4614232E+02  0.7816164E-02  0.1320468E+00
        -11   -1    0    0    0    0  0.00000000000E+00  0.00000000000E+00  0.45593999997E+02  0.45594000000E+02  0.51100000000E-03 0. -1.
         11   -1    0    0    0    0 -0.00000000000E+00 -0.00000000000E+00 -0.45593999997E+02  0.45594000000E+02  0.51100000000E-03 0.  1.
    9900012    2    1    2    0    0 -0.27010794189E+02 -0.25930822966E+02 -0.25042423914E+02  0.46142316767E+02  0.99999909376E+01 0.  0.
         12    1    1    2    0    0  0.27010794189E+02  0.25930822966E+02  0.25042423914E+02  0.45045683233E+02  0.00000000000E+00 0. -1.
         11    1    3    3    0    0 -0.13336103020E+02 -0.75181494028E+01 -0.10076893760E+02  0.18328065974E+02  0.51100000000E-03 0. -1.
        -11    1    3    3    0    0 -0.97927192671E+01 -0.14577452318E+02 -0.13537588551E+02  0.22173537624E+02  0.51100000000E-03 0.  1.
        -12    1    3    3    0    0 -0.38819719012E+01 -0.38352212448E+01 -0.14279416030E+01  0.56407131695E+01  0.00000000000E+00 0.  1.
</event>
<event>
 7    1  0.2328810E-008  0.4614231E+02  0.7816164E-02  0.1320468E+00
        -11   -1    0    0    0    0  0.00000000000E+00  0.00000000000E+00  0.45593999997E+02  0.45594000000E+02  0.51100000000E-03 0.  1.
         11   -1    0    0    0    0 -0.00000000000E+00 -0.00000000000E+00 -0.45593999997E+02  0.45594000000E+02  0.51100000000E-03 0. -1.
    9900012    2    1    2    0    0  0.65995448466E+01  0.40947464734E+02  0.17574572965E+02  0.46142306807E+02  0.99999001091E+01 0.  0.
         12    1    1    2    0    0 -0.65995448466E+01 -0.40947464734E+02 -0.17574572965E+02  0.45045693193E+02  0.00000000000E+00 0. -1.
         11    1    3    3    0    0  0.78561388071E+01  0.25475636755E+02  0.11019922472E+02  0.28847281961E+02  0.51100000000E-03 0. -1.
        -11    1    3    3    0    0 -0.15193399388E+01  0.10362162327E+02  0.61903434404E+01  0.12165654693E+02  0.51100000000E-03 0.  1.
         12    1    3    3    0    0  0.26274597829E+00  0.51096656523E+01  0.36430705296E+00  0.51293701520E+01  0.00000000000E+00 0. -1.
</event>
<event>
 7    1  0.2328810E-008  0.4614232E+02  0.7816164E-02  0.1320468E+00
        -11   -1    0    0    0    0  0.00000000000E+00  0.00000000000E+00  0.45593999997E+02  0.45594000000E+02  0.51100000000E-03 0.  1.
         11   -1    0    0    0    0 -0.00000000000E+00 -0.00000000000E+00 -0.45593999997E+02  0.45594000000E+02  0.51100000000E-03 0. -1.
    9900012    2    1    2    0    0 -0.42455024393E+02  0.91908450353E+01  0.11925296045E+02  0.46142318581E+02  0.10000007481E+02 0.  0.
         12    1    1    2    0    0  0.42455024393E+02 -0.91908450353E+01 -0.11925296045E+02  0.45045681419E+02  0.00000000000E+00 0. -1.
         11    1    3    3    0    0 -0.17288096547E+01  0.23836696172E+01  0.17242073450E+01  0.34122653613E+01  0.51100000000E-03 0. -1.
        -11    1    3    3    0    0 -0.30984403121E+02  0.58259418798E+01  0.60863835931E+01  0.32109483039E+02  0.51100000000E-03 0.  1.
        -12    1    3    3    0    0 -0.97418116180E+01  0.98123353833E+00  0.41147051065E+01  0.10620570181E+02  0.00000000000E+00 0.  1.
</event>
<event>
 7    1  0.2328810E-008  0.4614232E+02  0.7816164E-02  0.1320468E+00
        -11   -1    0    0    0    0  0.00000000000E+00  0.00000000000E+00  0.45593999997E+02  0.45594000000E+02  0.51100000000E-03 0. -1.
         11   -1    0    0    0    0 -0.00000000000E+00 -0.00000000000E+00 -0.45593999997E+02  0.45594000000E+02  0.51100000000E-03 0.  1.
    9900012    2    1    2    0    0  0.29626742336E+02 -0.33385430078E+02 -0.60648699468E+01  0.46142318182E+02  0.10000003841E+02 0.  0.
         12    1    1    2    0    0 -0.29626742336E+02  0.33385430078E+02  0.60648699468E+01  0.45045681818E+02  0.00000000000E+00 0. -1.
         11    1    3    3    0    0  0.96553783266E+01 -0.82562579444E+01 -0.49671790129E+00  0.12713727023E+02  0.51100000000E-03 0. -1.
        -11    1    3    3    0    0  0.17470019015E+02 -0.20075541076E+02 -0.18552088096E+01  0.26677157155E+02  0.51100000000E-03 0.  1.
         12    1    3    3    0    0  0.25013449946E+01 -0.50536310573E+01 -0.37129432358E+01  0.67514340045E+01  0.00000000000E+00 0. -1.
</event>
<event>
 7    1  0.2328810E-008  0.4614232E+02  0.7816164E-02  0.1320468E+00
        -11   -1    0    0    0    0  0.00000000000E+00  0.00000000000E+00  0.45593999997E+02  0.45594000000E+02  0.51100000000E-03 0.  1.
         11   -1    0    0    0    0 -0.00000000000E+00 -0.00000000000E+00 -0.45593999997E+02  0.45594000000E+02  0.51100000000E-03 0. -1.
    9900012    2    1    2    0    0 -0.16075995321E+02 -0.25542557003E+02  0.33440299866E+02  0.46142317643E+02  0.99999989270E+01 0.  0.
         12    1    1    2    0    0  0.16075995321E+02  0.25542557003E+02 -0.33440299866E+02  0.45045682357E+02  0.00000000000E+00 0. -1.
         11    1    3    3    0    0 -0.72745628787E-01 -0.14217488636E-02  0.36067987930E+01  0.36075326391E+01  0.51100000000E-03 0. -1.
        -11    1    3    3    0    0 -0.87617638501E+01 -0.14541327433E+02  0.19019530147E+02  0.25494337343E+02  0.51100000000E-03 0.  1.
        -12    1    3    3    0    0 -0.72414858418E+01 -0.10999807822E+02  0.10813970926E+02  0.17040447661E+02  0.00000000000E+00 0.  1.
</event>
<event>
 7    1  0.2328810E-008  0.4614232E+02  0.7816164E-02  0.1320468E+00
        -11   -1    0    0    0    0  0.00000000000E+00  0.00000000000E+00  0.45593999997E+02  0.45594000000E+02  0.51100000000E-03 0.  1.
         11   -1    0    0    0    0 -0.00000000000E+00 -0.00000000000E+00 -0.45593999997E+02  0.45594000000E+02  0.51100000000E-03 0. -1.
    9900012    2    1    2    0    0 -0.18010462315E+02  0.29752476169E+01  0.41181120126E+02  0.46142317565E+02  0.99999982130E+01 0.  0.
         12    1    1    2    0    0  0.18010462315E+02 -0.29752476169E+01 -0.41181120126E+02  0.45045682435E+02  0.00000000000E+00 0. -1.
         11    1    3    3    0    0 -0.64882828434E+01 -0.14691725779E+01  0.95657417845E+01  0.11651596391E+02  0.51100000000E-03 0. -1.
        -11    1    3    3    0    0 -0.96183699644E+01  0.10441124490E+01  0.19574743723E+02  0.21835150644E+02  0.51100000000E-03 0.  1.
         12    1    3    3    0    0 -0.19038095072E+01  0.34003077458E+01  0.12040634619E+02  0.12655570530E+02  0.00000000000E+00 0. -1.
</event>
<event>
 7    1  0.2328810E-008  0.4614232E+02  0.7816164E-02  0.1320468E+00
        -11   -1    0    0    0    0  0.00000000000E+00  0.00000000000E+00  0.45593999997E+02  0.45594000000E+02  0.51100000000E-03 0.  1.
         11   -1    0    0    0    0 -0.00000000000E+00 -0.00000000000E+00 -0.45593999997E+02  0.45594000000E+02  0.51100000000E-03 0. -1.
    9900012    2    1    2    0    0 -0.84615436890E+00  0.42290489483E+02 -0.15489090634E+02  0.46142318669E+02  0.10000008281E+02 0.  0.
         12    1    1    2    0    0  0.84615436890E+00 -0.42290489483E+02  0.15489090634E+02  0.45045681331E+02  0.00000000000E+00 0. -1.
         11    1    3    3    0    0  0.29326520267E+01  0.23021204027E+02 -0.94170983384E+01  0.25045119766E+02  0.51100000000E-03 0. -1.
        -11    1    3    3    0    0 -0.24195954784E+01  0.16468414423E+02 -0.66613471191E+01  0.17928654762E+02  0.51100000000E-03 0.  1.
         12    1    3    3    0    0 -0.13592109172E+01  0.28008710331E+01  0.58935482373E+00  0.31685441404E+01  0.00000000000E+00 0. -1.
</event>
<event>
 7    1  0.2328810E-008  0.4614232E+02  0.7816164E-02  0.1320468E+00
        -11   -1    0    0    0    0  0.00000000000E+00  0.00000000000E+00  0.45593999997E+02  0.45594000000E+02  0.51100000000E-03 0. -1.
         11   -1    0    0    0    0 -0.00000000000E+00 -0.00000000000E+00 -0.45593999997E+02  0.45594000000E+02  0.51100000000E-03 0.  1.
    9900012    2    1    2    0    0 -0.38999204772E+02 -0.19852122716E+02 -0.10680294167E+02  0.46142318379E+02  0.10000005636E+02 0.  0.
         12    1    1    2    0    0  0.38999204772E+02  0.19852122716E+02  0.10680294167E+02  0.45045681621E+02  0.00000000000E+00 0. -1.
         11    1    3    3    0    0 -0.17135077328E+01 -0.75859812343E-01  0.60602915736E+00  0.18191028179E+01  0.51100000000E-03 0. -1.
        -11    1    3    3    0    0 -0.15578025555E+02 -0.89598270215E+01 -0.10598192350E+01  0.18002127583E+02  0.51100000000E-03 0.  1.
        -12    1    3    3    0    0 -0.21707671485E+02 -0.10816435882E+02 -0.10226504089E+02  0.26321087978E+02  0.00000000000E+00 0.  1.
</event>
<event>
 7    1  0.2328810E-008  0.4614232E+02  0.7816164E-02  0.1320468E+00
        -11   -1    0    0    0    0  0.00000000000E+00  0.00000000000E+00  0.45593999997E+02  0.45594000000E+02  0.51100000000E-03 0.  1.
         11   -1    0    0    0    0 -0.00000000000E+00 -0.00000000000E+00 -0.45593999997E+02  0.45594000000E+02  0.51100000000E-03 0. -1.
    9900012    2    1    2    0    0  0.18326644695E+01  0.41296478243E+02  0.17898482042E+02  0.46142318367E+02  0.10000005525E+02 0.  0.
         12    1    1    2    0    0 -0.18326644695E+01 -0.41296478243E+02 -0.17898482042E+02  0.45045681633E+02  0.00000000000E+00 0. -1.
         11    1    3    3    0    0 -0.17923158549E+01  0.10162868950E+02  0.51060228361E+01  0.11513807836E+02  0.51100000000E-03 0. -1.
        -11    1    3    3    0    0  0.35280994915E+01  0.31223691480E+02  0.11702892635E+02  0.33530942306E+02  0.51100000000E-03 0.  1.
         12    1    3    3    0    0  0.96880832857E-01 -0.90082186100E-01  0.10895665712E+01  0.10975682253E+01  0.00000000000E+00 0. -1.
</event>
<event>
 7    1  0.2328810E-008  0.4614232E+02  0.7816164E-02  0.1320468E+00
        -11   -1    0    0    0    0  0.00000000000E+00  0.00000000000E+00  0.45593999997E+02  0.45594000000E+02  0.51100000000E-03 0.  1.
         11   -1    0    0    0    0 -0.00000000000E+00 -0.00000000000E+00 -0.45593999997E+02  0.45594000000E+02  0.51100000000E-03 0. -1.
    9900012    2    1    2    0    0  0.62914453006E+01 -0.17217081404E+02  0.41147335353E+02  0.46142318934E+02  0.10000010698E+02 0.  0.
         12    1    1    2    0    0 -0.62914453006E+01  0.17217081404E+02 -0.41147335353E+02  0.45045681066E+02  0.00000000000E+00 0. -1.
         11    1    3    3    0    0  0.44578717924E+01 -0.26527335100E+01  0.83325041959E+01  0.98153065377E+01  0.51100000000E-03 0. -1.
        -11    1    3    3    0    0  0.92128001957E+00 -0.24423068221E+01  0.11469897768E+02  0.11763170259E+02  0.51100000000E-03 0.  1.
        -12    1    3    3    0    0  0.91229348858E+00 -0.12122041071E+02  0.21344933389E+02  0.24563842137E+02  0.00000000000E+00 0.  1.
</event>
<event>
 7    1  0.2328810E-008  0.4614232E+02  0.7816164E-02  0.1320468E+00
        -11   -1    0    0    0    0  0.00000000000E+00  0.00000000000E+00  0.45593999997E+02  0.45594000000E+02  0.51100000000E-03 0.  1.
         11   -1    0    0    0    0 -0.00000000000E+00 -0.00000000000E+00 -0.45593999997E+02  0.45594000000E+02  0.51100000000E-03 0. -1.
    9900012    2    1    2    0    0 -0.61171063790E+01 -0.25667699398E+02  0.36508406968E+02  0.46142316942E+02  0.99999925289E+01 0.  0.
         12    1    1    2    0    0  0.61171063790E+01  0.25667699398E+02 -0.36508406968E+02  0.45045683058E+02  0.00000000000E+00 0. -1.
         11    1    3    3    0    0 -0.26519530627E+01 -0.79646410942E+01  0.13690630344E+02  0.16059318861E+02  0.51100000000E-03 0. -1.
        -11    1    3    3    0    0 -0.45394047032E+01 -0.17890690411E+02  0.22015456255E+02  0.28729137001E+02  0.51100000000E-03 0.  1.
         12    1    3    3    0    0  0.10742513869E+01  0.18763210658E+00  0.80232036886E+00  0.13538610800E+01  0.00000000000E+00 0. -1.
</event>
<event>
 7    1  0.2328810E-008  0.4614232E+02  0.7816164E-02  0.1320468E+00
        -11   -1    0    0    0    0  0.00000000000E+00  0.00000000000E+00  0.45593999997E+02  0.45594000000E+02  0.51100000000E-03 0.  1.
         11   -1    0    0    0    0 -0.00000000000E+00 -0.00000000000E+00 -0.45593999997E+02  0.45594000000E+02  0.51100000000E-03 0. -1.
    9900012    2    1    2    0    0 -0.27045778894E+02  0.33663463006E+02  0.12822260571E+02  0.46142320255E+02  0.10000022741E+02 0.  0.
         12    1    1    2    0    0  0.27045778894E+02 -0.33663463006E+02 -0.12822260571E+02  0.45045679745E+02  0.00000000000E+00 0. -1.
         11    1    3    3    0    0 -0.65673862220E+01  0.11633832895E+02  0.40097587490E+01  0.13948290042E+02  0.51100000000E-03 0. -1.
        -11    1    3    3    0    0 -0.46836506622E+01  0.69785889828E+01 -0.61423306204E+00  0.84270143130E+01  0.51100000000E-03 0.  1.
        -12    1    3    3    0    0 -0.15794742010E+02  0.15051041128E+02  0.94267348842E+01  0.23767015900E+02  0.00000000000E+00 0.  1.
</event>
<event>
 7    1  0.2328810E-008  0.4614232E+02  0.7816164E-02  0.1320468E+00
        -11   -1    0    0    0    0  0.00000000000E+00  0.00000000000E+00  0.45593999997E+02  0.45594000000E+02  0.51100000000E-03 0. -1.
         11   -1    0    0    0    0 -0.00000000000E+00 -0.00000000000E+00 -0.45593999997E+02  0.45594000000E+02  0.51100000000E-03 0.  1.
    9900012    2    1    2    0    0  0.43837589732E+02 -0.81500221000E+00 -0.10330299866E+02  0.46142316550E+02  0.99999889603E+01 0.  0.
         12    1    1    2    0    0 -0.43837589732E+02  0.81500221000E+00  0.10330299866E+02  0.45045683450E+02  0.00000000000E+00 0. -1.
         11    1    3    3    0    0  0.15896191118E+02 -0.22372204490E+01 -0.74362031351E+01  0.17691556311E+02  0.51100000000E-03 0. -1.
        -11    1    3    3    0    0  0.16533234048E+02  0.29065969197E+01 -0.21250310678E+01  0.16920753264E+02  0.51100000000E-03 0.  1.
         12    1    3    3    0    0  0.11408164567E+02 -0.14843786807E+01 -0.76906566291E+00  0.11530006975E+02  0.00000000000E+00 0. -1.
</event>
<event>
 7    1  0.2328810E-008  0.4614232E+02  0.7816164E-02  0.1320468E+00
        -11   -1    0    0    0    0  0.00000000000E+00  0.00000000000E+00  0.45593999997E+02  0.45594000000E+02  0.51100000000E-03 0.  1.
         11   -1    0    0    0    0 -0.00000000000E+00 -0.00000000000E+00 -0.45593999997E+02  0.45594000000E+02  0.51100000000E-03 0. -1.
    9900012    2    1    2    0    0  0.43511612511E+02  0.57188710893E+01  0.10156171554E+02  0.46142315074E+02  0.99999754961E+01 0.  0.
         12    1    1    2    0    0 -0.43511612511E+02 -0.57188710893E+01 -0.10156171554E+02  0.45045684926E+02  0.00000000000E+00 0. -1.
         11    1    3    3    0    0  0.61847144250E+01 -0.17427311043E+01  0.25929014483E+01  0.69289928851E+01  0.51100000000E-03 0. -1.
        -11    1    3    3    0    0  0.17048210443E+02  0.20198944625E+01  0.92325858346E+00  0.17192261620E+02  0.51100000000E-03 0.  1.
         12    1    3    3    0    0  0.20278687643E+02  0.54417077311E+01  0.66400115219E+01  0.22021060568E+02  0.00000000000E+00 0. -1.
</event>
<event>
 7    1  0.2328810E-008  0.4614232E+02  0.7816164E-02  0.1320468E+00
        -11   -1    0    0    0    0  0.00000000000E+00  0.00000000000E+00  0.45593999997E+02  0.45594000000E+02  0.51100000000E-03 0.  1.
         11   -1    0    0    0    0 -0.00000000000E+00 -0.00000000000E+00 -0.45593999997E+02  0.45594000000E+02  0.51100000000E-03 0. -1.
    9900012    2    1    2    0    0  0.36874870327E+02 -0.13854711998E+01  0.25834819812E+02  0.46142317557E+02  0.99999981350E+01 0.  0.
         12    1    1    2    0    0 -0.36874870327E+02  0.13854711998E+01 -0.25834819812E+02  0.45045682443E+02  0.00000000000E+00 0. -1.
         11    1    3    3    0    0  0.61256644495E+01  0.27853053913E+01  0.50040769724E+01  0.83858498483E+01  0.51100000000E-03 0. -1.
        -11    1    3    3    0    0  0.16972279293E+02  0.15029585253E+00  0.12579757902E+02  0.21126551123E+02  0.51100000000E-03 0.  1.
         12    1    3    3    0    0  0.13776926585E+02 -0.43210724436E+01  0.82509849378E+01  0.16629916585E+02  0.00000000000E+00 0. -1.
</event>
<event>
 7    1  0.2328810E-008  0.4614232E+02  0.7816164E-02  0.1320468E+00
        -11   -1    0    0    0    0  0.00000000000E+00  0.00000000000E+00  0.45593999997E+02  0.45594000000E+02  0.51100000000E-03 0. -1.
         11   -1    0    0    0    0 -0.00000000000E+00 -0.00000000000E+00 -0.45593999997E+02  0.45594000000E+02  0.51100000000E-03 0.  1.
    9900012    2    1    2    0    0 -0.38757054827E+02 -0.18593136044E+01  0.22881154013E+02  0.46142317023E+02  0.99999932666E+01 0.  0.
         12    1    1    2    0    0  0.38757054827E+02  0.18593136044E+01 -0.22881154013E+02  0.45045682977E+02  0.00000000000E+00 0. -1.
         11    1    3    3    0    0 -0.17464926667E+02  0.31098188481E+00  0.74060237814E+01  0.18972863825E+02  0.51100000000E-03 0. -1.
        -11    1    3    3    0    0 -0.10841970792E+02 -0.82709124329E+00  0.39869501069E+01  0.11581372199E+02  0.51100000000E-03 0.  1.
         12    1    3    3    0    0 -0.10450157368E+02 -0.13432042459E+01  0.11488180125E+02  0.15588080999E+02  0.00000000000E+00 0. -1.
</event>
<event>
 7    1  0.2328810E-008  0.4614232E+02  0.7816164E-02  0.1320468E+00
        -11   -1    0    0    0    0  0.00000000000E+00  0.00000000000E+00  0.45593999997E+02  0.45594000000E+02  0.51100000000E-03 0.  1.
         11   -1    0    0    0    0 -0.00000000000E+00 -0.00000000000E+00 -0.45593999997E+02  0.45594000000E+02  0.51100000000E-03 0. -1.
    9900012    2    1    2    0    0  0.42315822599E-01  0.94633096091E+01  0.44040407989E+02  0.46142317019E+02  0.99999932328E+01 0.  0.
         12    1    1    2    0    0 -0.42315822599E-01 -0.94633096091E+01 -0.44040407989E+02  0.45045682981E+02  0.00000000000E+00 0. -1.
         11    1    3    3    0    0 -0.18673278712E+01  0.62065062975E+00  0.40809305555E+01  0.45305755752E+01  0.51100000000E-03 0. -1.
        -11    1    3    3    0    0  0.45058816778E+00  0.30085916428E+01  0.28575298906E+02  0.28736777154E+02  0.51100000000E-03 0.  1.
         12    1    3    3    0    0  0.14590555260E+01  0.58340673366E+01  0.11384178527E+02  0.12874964289E+02  0.00000000000E+00 0. -1.
</event>
<event>
 7    1  0.2328810E-008  0.4614232E+02  0.7816164E-02  0.1320468E+00
        -11   -1    0    0    0    0  0.00000000000E+00  0.00000000000E+00  0.45593999997E+02  0.45594000000E+02  0.51100000000E-03 0. -1.
         11   -1    0    0    0    0 -0.00000000000E+00 -0.00000000000E+00 -0.45593999997E+02  0.45594000000E+02  0.51100000000E-03 0.  1.
    9900012    2    1    2    0    0 -0.22134608410E+02 -0.21460137286E+02 -0.32842581240E+02  0.46142317362E+02  0.99999963633E+01 0.  0.
         12    1    1    2    0    0  0.22134608410E+02  0.21460137286E+02  0.32842581240E+02  0.45045682638E+02  0.00000000000E+00 0. -1.
         11    1    3    3    0    0 -0.25910619657E-01  0.31810509577E+00 -0.31134118259E+00  0.44586523218E+00  0.51100000000E-03 0. -1.
        -11    1    3    3    0    0 -0.19634883372E+02 -0.18769941190E+02 -0.31640923787E+02  0.41701167797E+02  0.51100000000E-03 0.  1.
        -12    1    3    3    0    0 -0.24738144185E+01 -0.30083011920E+01 -0.89031627011E+00  0.39952843328E+01  0.00000000000E+00 0.  1.
</event>
<event>
 7    1  0.2328810E-008  0.4614232E+02  0.7816164E-02  0.1320468E+00
        -11   -1    0    0    0    0  0.00000000000E+00  0.00000000000E+00  0.45593999997E+02  0.45594000000E+02  0.51100000000E-03 0.  1.
         11   -1    0    0    0    0 -0.00000000000E+00 -0.00000000000E+00 -0.45593999997E+02  0.45594000000E+02  0.51100000000E-03 0. -1.
    9900012    2    1    2    0    0 -0.14978877744E+02 -0.11816148494E+02  0.40805946623E+02  0.46142318481E+02  0.10000006566E+02 0.  0.
         12    1    1    2    0    0  0.14978877744E+02  0.11816148494E+02 -0.40805946623E+02  0.45045681519E+02  0.00000000000E+00 0. -1.
         11    1    3    3    0    0 -0.54778241115E+01 -0.73603480494E+01  0.10701951483E+02  0.14096561503E+02  0.51100000000E-03 0. -1.
        -11    1    3    3    0    0  0.21171866542E-01 -0.97098174987E-01 -0.59636022617E-01  0.11590090523E+00  0.51100000000E-03 0.  1.
        -12    1    3    3    0    0 -0.95222254989E+01 -0.43587022699E+01  0.30163631162E+02  0.31929856073E+02  0.00000000000E+00 0.  1.
</event>
<event>
 7    1  0.2426017E-008  0.4614232E+02  0.7816164E-02  0.1320468E+00
        -11   -1    0    0    0    0  0.00000000000E+00  0.00000000000E+00  0.45593999997E+02  0.45594000000E+02  0.51100000000E-03 0. -1.
         11   -1    0    0    0    0 -0.00000000000E+00 -0.00000000000E+00 -0.45593999997E+02  0.45594000000E+02  0.51100000000E-03 0.  1.
    9900012    2    1    2    0    0  0.39079656705E+02  0.22238759751E+02 -0.27076790208E+01  0.46142317309E+02  0.99999958732E+01 0.  0.
         12    1    1    2    0    0 -0.39079656705E+02 -0.22238759751E+02  0.27076790208E+01  0.45045682691E+02  0.00000000000E+00 0. -1.
         11    1    3    3    0    0  0.29494765718E+00 -0.48500691039E+00 -0.31420877578E+00  0.64880909326E+00  0.51100000000E-03 0. -1.
        -11    1    3    3    0    0  0.45272428845E+01  0.52294397324E+01  0.38361848093E+00  0.69274909924E+01  0.51100000000E-03 0.  1.
        -12    1    3    3    0    0  0.34257466164E+02  0.17494326929E+02 -0.27770887259E+01  0.38566017223E+02  0.00000000000E+00 0.  1.
</event>
<event>
 7    1  0.2328810E-008  0.4614232E+02  0.7816164E-02  0.1320468E+00
        -11   -1    0    0    0    0  0.00000000000E+00  0.00000000000E+00  0.45593999997E+02  0.45594000000E+02  0.51100000000E-03 0. -1.
         11   -1    0    0    0    0 -0.00000000000E+00 -0.00000000000E+00 -0.45593999997E+02  0.45594000000E+02  0.51100000000E-03 0.  1.
    9900012    2    1    2    0    0 -0.26659161111E+02 -0.28270991609E+02 -0.22784942962E+02  0.46142318037E+02  0.10000002515E+02 0.  0.
         12    1    1    2    0    0  0.26659161111E+02  0.28270991609E+02  0.22784942962E+02  0.45045681963E+02  0.00000000000E+00 0. -1.
         11    1    3    3    0    0 -0.32273234908E+01 -0.72805505732E+01 -0.15770519692E+01  0.81184436155E+01  0.51100000000E-03 0. -1.
        -11    1    3    3    0    0 -0.17032094389E+02 -0.16647381527E+02 -0.16402996224E+02  0.28918607096E+02  0.51100000000E-03 0.  1.
         12    1    3    3    0    0 -0.63997432318E+01 -0.43430595096E+01 -0.48048947687E+01  0.91052673259E+01  0.00000000000E+00 0. -1.
</event>
<event>
 7    1  0.2328810E-008  0.4614232E+02  0.7816164E-02  0.1320468E+00
        -11   -1    0    0    0    0  0.00000000000E+00  0.00000000000E+00  0.45593999997E+02  0.45594000000E+02  0.51100000000E-03 0.  1.
         11   -1    0    0    0    0 -0.00000000000E+00 -0.00000000000E+00 -0.45593999997E+02  0.45594000000E+02  0.51100000000E-03 0. -1.
    9900012    2    1    2    0    0 -0.19474297886E+02 -0.38255701341E+02  0.13651612721E+02  0.46142317709E+02  0.99999995222E+01 0.  0.
         12    1    1    2    0    0  0.19474297886E+02  0.38255701341E+02 -0.13651612721E+02  0.45045682291E+02  0.00000000000E+00 0. -1.
         11    1    3    3    0    0 -0.39362880294E+01 -0.56973922645E+01 -0.96484097989E+00  0.69918209677E+01  0.51100000000E-03 0. -1.
        -11    1    3    3    0    0 -0.12342228097E+02 -0.21341046509E+02  0.96839223989E+01  0.26486774318E+02  0.51100000000E-03 0.  1.
        -12    1    3    3    0    0 -0.31957817587E+01 -0.11217262567E+02  0.49325313022E+01  0.12663722423E+02  0.00000000000E+00 0.  1.
</event>
<event>
 7    1  0.2328810E-008  0.4614232E+02  0.7816164E-02  0.1320468E+00
        -11   -1    0    0    0    0  0.00000000000E+00  0.00000000000E+00  0.45593999997E+02  0.45594000000E+02  0.51100000000E-03 0.  1.
         11   -1    0    0    0    0 -0.00000000000E+00 -0.00000000000E+00 -0.45593999997E+02  0.45594000000E+02  0.51100000000E-03 0. -1.
    9900012    2    1    2    0    0  0.94620888179E+01 -0.29025258166E+01  0.43944939445E+02  0.46142317812E+02  0.10000000466E+02 0.  0.
         12    1    1    2    0    0 -0.94620888179E+01  0.29025258166E+01 -0.43944939445E+02  0.45045682188E+02  0.00000000000E+00 0. -1.
         11    1    3    3    0    0  0.26791856178E+01 -0.46763685096E+01  0.15447574028E+02  0.16360745754E+02  0.51100000000E-03 0. -1.
        -11    1    3    3    0    0  0.73944370341E+00  0.24568138829E+01  0.80710198532E+01  0.84690066228E+01  0.51100000000E-03 0.  1.
        -12    1    3    3    0    0  0.60434594967E+01 -0.68297118997E+00  0.20426345564E+02  0.21312565435E+02  0.00000000000E+00 0.  1.
</event>
<event>
 7    1  0.2328810E-008  0.4614232E+02  0.7816164E-02  0.1320468E+00
        -11   -1    0    0    0    0  0.00000000000E+00  0.00000000000E+00  0.45593999997E+02  0.45594000000E+02  0.51100000000E-03 0.  1.
         11   -1    0    0    0    0 -0.00000000000E+00 -0.00000000000E+00 -0.45593999997E+02  0.45594000000E+02  0.51100000000E-03 0. -1.
    9900012    2    1    2    0    0 -0.33764663797E+02 -0.86105096416E+01  0.28546804698E+02  0.46142318119E+02  0.10000003267E+02 0.  0.
         12    1    1    2    0    0  0.33764663797E+02  0.86105096416E+01 -0.28546804698E+02  0.45045681881E+02  0.00000000000E+00 0. -1.
         11    1    3    3    0    0 -0.17427831426E+02 -0.35854100695E+01  0.18023358560E+02  0.25326387970E+02  0.51100000000E-03 0. -1.
        -11    1    3    3    0    0 -0.63906595463E+01 -0.26825458605E+01  0.73817506654E+01  0.10125553065E+02  0.51100000000E-03 0.  1.
         12    1    3    3    0    0 -0.99461728252E+01 -0.23425537115E+01  0.31416954728E+01  0.10690377084E+02  0.00000000000E+00 0. -1.
</event>
<event>
 7    1  0.2328810E-008  0.4614232E+02  0.7816164E-02  0.1320468E+00
        -11   -1    0    0    0    0  0.00000000000E+00  0.00000000000E+00  0.45593999997E+02  0.45594000000E+02  0.51100000000E-03 0.  1.
         11   -1    0    0    0    0 -0.00000000000E+00 -0.00000000000E+00 -0.45593999997E+02  0.45594000000E+02  0.51100000000E-03 0. -1.
    9900012    2    1    2    0    0  0.15639703380E+01  0.36861481495E+02  0.25843735919E+02  0.46142317549E+02  0.99999980644E+01 0.  0.
         12    1    1    2    0    0 -0.15639703380E+01 -0.36861481495E+02 -0.25843735919E+02  0.45045682451E+02  0.00000000000E+00 0. -1.
         11    1    3    3    0    0  0.86112499018E+00  0.31673197486E+01  0.48278891580E+01  0.58379760724E+01  0.51100000000E-03 0. -1.
        -11    1    3    3    0    0  0.35083029995E+01  0.14260639563E+02  0.10276588343E+02  0.17924349330E+02  0.51100000000E-03 0.  1.
        -12    1    3    3    0    0 -0.28054576517E+01  0.19433522184E+02  0.10739258419E+02  0.22379992147E+02  0.00000000000E+00 0.  1.
</event>
<event>
 7    1  0.2328810E-008  0.4614232E+02  0.7816164E-02  0.1320468E+00
        -11   -1    0    0    0    0  0.00000000000E+00  0.00000000000E+00  0.45593999997E+02  0.45594000000E+02  0.51100000000E-03 0.  1.
         11   -1    0    0    0    0 -0.00000000000E+00 -0.00000000000E+00 -0.45593999997E+02  0.45594000000E+02  0.51100000000E-03 0. -1.
    9900012    2    1    2    0    0 -0.23351219931E+02  0.24985221205E+02  0.29318471478E+02  0.46142317402E+02  0.99999967209E+01 0.  0.
         12    1    1    2    0    0  0.23351219931E+02 -0.24985221205E+02 -0.29318471478E+02  0.45045682598E+02  0.00000000000E+00 0. -1.
         11    1    3    3    0    0 -0.87521814019E+01  0.83037894957E+01  0.73336012338E+01  0.14118615605E+02  0.51100000000E-03 0. -1.
        -11    1    3    3    0    0 -0.53125193938E+01  0.84831285287E+01  0.55558187714E+01  0.11447858072E+02  0.51100000000E-03 0.  1.
         12    1    3    3    0    0 -0.92865191355E+01  0.81983031808E+01  0.16429051473E+02  0.20575843725E+02  0.00000000000E+00 0. -1.
</event>
<event>
 7    1  0.2328810E-008  0.4614232E+02  0.7816164E-02  0.1320468E+00
        -11   -1    0    0    0    0  0.00000000000E+00  0.00000000000E+00  0.45593999997E+02  0.45594000000E+02  0.51100000000E-03 0.  1.
         11   -1    0    0    0    0 -0.00000000000E+00 -0.00000000000E+00 -0.45593999997E+02  0.45594000000E+02  0.51100000000E-03 0. -1.
    9900012    2    1    2    0    0 -0.29243884019E+01  0.36009033266E+02 -0.26905592222E+02  0.46142318552E+02  0.10000007212E+02 0.  0.
         12    1    1    2    0    0  0.29243884019E+01 -0.36009033266E+02  0.26905592222E+02  0.45045681448E+02  0.00000000000E+00 0. -1.
         11    1    3    3    0    0  0.61012180241E-02  0.15921223017E+02 -0.10056887026E+02  0.18831525602E+02  0.51100000000E-03 0. -1.
        -11    1    3    3    0    0  0.69613174399E+00  0.14451926693E+02 -0.13623727150E+02  0.19873316942E+02  0.51100000000E-03 0.  1.
         12    1    3    3    0    0 -0.36266213639E+01  0.56358835562E+01 -0.32249780460E+01  0.74374760083E+01  0.00000000000E+00 0. -1.
</event>
<event>
 7    1  0.2328810E-008  0.4614232E+02  0.7816164E-02  0.1320468E+00
        -11   -1    0    0    0    0  0.00000000000E+00  0.00000000000E+00  0.45593999997E+02  0.45594000000E+02  0.51100000000E-03 0.  1.
         11   -1    0    0    0    0 -0.00000000000E+00 -0.00000000000E+00 -0.45593999997E+02  0.45594000000E+02  0.51100000000E-03 0. -1.
    9900012    2    1    2    0    0  0.23136821677E+02  0.50230589405E+01  0.38321924555E+02  0.46142317188E+02  0.99999947724E+01 0.  0.
         12    1    1    2    0    0 -0.23136821677E+02 -0.50230589405E+01 -0.38321924555E+02  0.45045682812E+02  0.00000000000E+00 0. -1.
         11    1    3    3    0    0  0.74590238745E+01  0.29711174656E+00  0.95373002713E+01  0.12111375202E+02  0.51100000000E-03 0. -1.
        -11    1    3    3    0    0  0.16568658734E+02  0.47447787036E+01  0.26920064413E+02  0.31964405914E+02  0.51100000000E-03 0.  1.
         12    1    3    3    0    0 -0.89086093169E+00 -0.18831509607E-01  0.18645598711E+01  0.20665360723E+01  0.00000000000E+00 0. -1.
</event>
<event>
 7    1  0.2328810E-008  0.4614232E+02  0.7816164E-02  0.1320468E+00
        -11   -1    0    0    0    0  0.00000000000E+00  0.00000000000E+00  0.45593999997E+02  0.45594000000E+02  0.51100000000E-03 0.  1.
         11   -1    0    0    0    0 -0.00000000000E+00 -0.00000000000E+00 -0.45593999997E+02  0.45594000000E+02  0.51100000000E-03 0. -1.
    9900012    2    1    2    0    0 -0.24263183824E+02  0.35440257582E+02 -0.13579380457E+02  0.46142317406E+02  0.99999967631E+01 0.  0.
         12    1    1    2    0    0  0.24263183824E+02 -0.35440257582E+02  0.13579380457E+02  0.45045682594E+02  0.00000000000E+00 0. -1.
         11    1    3    3    0    0 -0.33910179428E+01  0.10864725939E+02 -0.37430536454E+01  0.11981307244E+02  0.51100000000E-03 0. -1.
        -11    1    3    3    0    0 -0.11919622378E+02  0.15479024251E+02 -0.85757044243E+01  0.21335892202E+02  0.51100000000E-03 0.  1.
        -12    1    3    3    0    0 -0.89525435033E+01  0.90965073919E+01 -0.12606223874E+01  0.12825117961E+02  0.00000000000E+00 0.  1.
</event>
<event>
 7    1  0.2328810E-008  0.4614232E+02  0.7816164E-02  0.1320468E+00
        -11   -1    0    0    0    0  0.00000000000E+00  0.00000000000E+00  0.45593999997E+02  0.45594000000E+02  0.51100000000E-03 0. -1.
         11   -1    0    0    0    0 -0.00000000000E+00 -0.00000000000E+00 -0.45593999997E+02  0.45594000000E+02  0.51100000000E-03 0.  1.
    9900012    2    1    2    0    0  0.20884426889E+02 -0.17012332217E+01 -0.39875556231E+02  0.46142318013E+02  0.10000002295E+02 0.  0.
         12    1    1    2    0    0 -0.20884426889E+02  0.17012332217E+01  0.39875556231E+02  0.45045681987E+02  0.00000000000E+00 0. -1.
         11    1    3    3    0    0  0.12839634235E+02 -0.29491412673E+01 -0.24895709293E+02  0.28166469125E+02  0.51100000000E-03 0. -1.
        -11    1    3    3    0    0  0.24840826006E+01 -0.22069738951E+01 -0.40898439926E+01  0.52695563651E+01  0.51100000000E-03 0.  1.
        -12    1    3    3    0    0  0.55607100536E+01  0.34548819406E+01 -0.10890002945E+02  0.12706292523E+02  0.00000000000E+00 0.  1.
</event>
<event>
 7    1  0.2328810E-008  0.4614232E+02  0.7816164E-02  0.1320468E+00
        -11   -1    0    0    0    0  0.00000000000E+00  0.00000000000E+00  0.45593999997E+02  0.45594000000E+02  0.51100000000E-03 0.  1.
         11   -1    0    0    0    0 -0.00000000000E+00 -0.00000000000E+00 -0.45593999997E+02  0.45594000000E+02  0.51100000000E-03 0. -1.
    9900012    2    1    2    0    0 -0.25181358649E+02  0.21447098431E+02  0.30578337034E+02  0.46142317074E+02  0.99999937359E+01 0.  0.
         12    1    1    2    0    0  0.25181358649E+02 -0.21447098431E+02 -0.30578337034E+02  0.45045682926E+02  0.00000000000E+00 0. -1.
         11    1    3    3    0    0 -0.96132261099E+01  0.40109229665E+01  0.71243182321E+01  0.12619727803E+02  0.51100000000E-03 0. -1.
        -11    1    3    3    0    0 -0.84462887188E+01  0.13181390881E+02  0.15275024166E+02  0.21872704959E+02  0.51100000000E-03 0.  1.
        -12    1    3    3    0    0 -0.71218438200E+01  0.42547845839E+01  0.81789946356E+01  0.11649884313E+02  0.00000000000E+00 0.  1.
</event>
<event>
 7    1  0.2328810E-008  0.4614232E+02  0.7816164E-02  0.1320468E+00
        -11   -1    0    0    0    0  0.00000000000E+00  0.00000000000E+00  0.45593999997E+02  0.45594000000E+02  0.51100000000E-03 0.  1.
         11   -1    0    0    0    0 -0.00000000000E+00 -0.00000000000E+00 -0.45593999997E+02  0.45594000000E+02  0.51100000000E-03 0. -1.
    9900012    2    1    2    0    0  0.54272012901E+01  0.41718014772E+02 -0.16101751094E+02  0.46142315871E+02  0.99999827669E+01 0.  0.
         12    1    1    2    0    0 -0.54272012901E+01 -0.41718014772E+02  0.16101751094E+02  0.45045684129E+02  0.00000000000E+00 0. -1.
         11    1    3    3    0    0  0.52121301946E+01  0.24958832213E+02 -0.71636755014E+01  0.26484483260E+02  0.51100000000E-03 0. -1.
        -11    1    3    3    0    0  0.17546701819E+01  0.95933171199E+01 -0.29370802119E+01  0.10185138254E+02  0.51100000000E-03 0.  1.
         12    1    3    3    0    0 -0.15395990863E+01  0.71658654385E+01 -0.60009953810E+01  0.94726943575E+01  0.00000000000E+00 0. -1.
</event>
<event>
 7    1  0.2328810E-008  0.4614232E+02  0.7816164E-02  0.1320468E+00
        -11   -1    0    0    0    0  0.00000000000E+00  0.00000000000E+00  0.45593999997E+02  0.45594000000E+02  0.51100000000E-03 0.  1.
         11   -1    0    0    0    0 -0.00000000000E+00 -0.00000000000E+00 -0.45593999997E+02  0.45594000000E+02  0.51100000000E-03 0. -1.
    9900012    2    1    2    0    0 -0.19816379568E+02  0.15402580794E+02  0.37405683234E+02  0.46142317271E+02  0.99999955303E+01 0.  0.
         12    1    1    2    0    0  0.19816379568E+02 -0.15402580794E+02 -0.37405683234E+02  0.45045682729E+02  0.00000000000E+00 0. -1.
         11    1    3    3    0    0 -0.57698070915E+01  0.16465409658E+01  0.77583997674E+01  0.98078814347E+01  0.51100000000E-03 0. -1.
        -11    1    3    3    0    0 -0.88753065400E+01  0.36656885342E+01  0.15021815975E+02  0.17828721043E+02  0.51100000000E-03 0.  1.
        -12    1    3    3    0    0 -0.51712659363E+01  0.10090351294E+02  0.14625467492E+02  0.18505714793E+02  0.00000000000E+00 0.  1.
</event>
<event>
 7    1  0.2328810E-008  0.4614232E+02  0.7816164E-02  0.1320468E+00
        -11   -1    0    0    0    0  0.00000000000E+00  0.00000000000E+00  0.45593999997E+02  0.45594000000E+02  0.51100000000E-03 0. -1.
         11   -1    0    0    0    0 -0.00000000000E+00 -0.00000000000E+00 -0.45593999997E+02  0.45594000000E+02  0.51100000000E-03 0.  1.
    9900012    2    1    2    0    0  0.16079911524E+02 -0.42066507411E+02 -0.97921155416E+00  0.46142318124E+02  0.10000003308E+02 0.  0.
         12    1    1    2    0    0 -0.16079911524E+02  0.42066507411E+02  0.97921155416E+00  0.45045681876E+02  0.00000000000E+00 0. -1.
         11    1    3    3    0    0  0.18268579342E+00 -0.21408661845E+01  0.94927403165E+00  0.23490005464E+01  0.51100000000E-03 0. -1.
        -11    1    3    3    0    0  0.15015143652E+02 -0.37660280227E+02  0.22770654654E+00  0.40543841656E+02  0.51100000000E-03 0.  1.
        -12    1    3    3    0    0  0.88208207826E+00 -0.22653609996E+01 -0.21561921323E+01  0.32494759212E+01  0.00000000000E+00 0.  1.
</event>
<event>
 7    1  0.2328810E-008  0.4614232E+02  0.7816164E-02  0.1320468E+00
        -11   -1    0    0    0    0  0.00000000000E+00  0.00000000000E+00  0.45593999997E+02  0.45594000000E+02  0.51100000000E-03 0.  1.
         11   -1    0    0    0    0 -0.00000000000E+00 -0.00000000000E+00 -0.45593999997E+02  0.45594000000E+02  0.51100000000E-03 0. -1.
    9900012    2    1    2    0    0 -0.16925163300E+02 -0.37263830179E+02  0.18816461187E+02  0.46142318698E+02  0.10000008548E+02 0.  0.
         12    1    1    2    0    0  0.16925163300E+02  0.37263830179E+02 -0.18816461187E+02  0.45045681302E+02  0.00000000000E+00 0. -1.
         11    1    3    3    0    0 -0.11219836202E+02 -0.14631055704E+02  0.10972797212E+02  0.21455880181E+02  0.51100000000E-03 0. -1.
        -11    1    3    3    0    0 -0.34889275504E+01 -0.10340287010E+02  0.34453847370E+01  0.11443986506E+02  0.51100000000E-03 0.  1.
         12    1    3    3    0    0 -0.22163995471E+01 -0.12292487465E+02  0.43982792382E+01  0.13242452012E+02  0.00000000000E+00 0. -1.
</event>
<event>
 7    1  0.2328810E-008  0.4614232E+02  0.7816164E-02  0.1320468E+00
        -11   -1    0    0    0    0  0.00000000000E+00  0.00000000000E+00  0.45593999997E+02  0.45594000000E+02  0.51100000000E-03 0. -1.
         11   -1    0    0    0    0 -0.00000000000E+00 -0.00000000000E+00 -0.45593999997E+02  0.45594000000E+02  0.51100000000E-03 0.  1.
    9900012    2    1    2    0    0 -0.13034796107E+02 -0.41103916639E+02  0.13025963089E+02  0.46142316666E+02  0.99999900124E+01 0.  0.
         12    1    1    2    0    0  0.13034796107E+02  0.41103916639E+02 -0.13025963089E+02  0.45045683334E+02  0.00000000000E+00 0. -1.
         11    1    3    3    0    0 -0.49490175410E+01 -0.19159898870E+02  0.57387519766E+01  0.20604071778E+02  0.51100000000E-03 0. -1.
        -11    1    3    3    0    0 -0.59758947354E+01 -0.21160485688E+02  0.55033628965E+01  0.22666373240E+02  0.51100000000E-03 0.  1.
         12    1    3    3    0    0 -0.21098838308E+01 -0.78353208161E+00  0.17838482161E+01  0.28718716477E+01  0.00000000000E+00 0. -1.
</event>
<event>
 7    1  0.2328810E-008  0.4614232E+02  0.7816164E-02  0.1320468E+00
        -11   -1    0    0    0    0  0.00000000000E+00  0.00000000000E+00  0.45593999997E+02  0.45594000000E+02  0.51100000000E-03 0. -1.
         11   -1    0    0    0    0 -0.00000000000E+00 -0.00000000000E+00 -0.45593999997E+02  0.45594000000E+02  0.51100000000E-03 0.  1.
    9900012    2    1    2    0    0  0.25074982299E+02 -0.53485356218E+00 -0.37417545069E+02  0.46142317803E+02  0.10000000381E+02 0.  0.
         12    1    1    2    0    0 -0.25074982299E+02  0.53485356218E+00  0.37417545069E+02  0.45045682197E+02  0.00000000000E+00 0. -1.
         11    1    3    3    0    0  0.14173514170E+02 -0.33936554755E+00 -0.14352976137E+02  0.20174528425E+02  0.51100000000E-03 0. -1.
        -11    1    3    3    0    0  0.97668418244E+01  0.14387217193E+01 -0.20156987029E+02  0.22444715319E+02  0.51100000000E-03 0.  1.
         12    1    3    3    0    0  0.11346263043E+01 -0.16342097340E+01 -0.29075819029E+01  0.35230740593E+01  0.00000000000E+00 0. -1.
</event>
<event>
 7    1  0.2328810E-008  0.4614232E+02  0.7816164E-02  0.1320468E+00
        -11   -1    0    0    0    0  0.00000000000E+00  0.00000000000E+00  0.45593999997E+02  0.45594000000E+02  0.51100000000E-03 0. -1.
         11   -1    0    0    0    0 -0.00000000000E+00 -0.00000000000E+00 -0.45593999997E+02  0.45594000000E+02  0.51100000000E-03 0.  1.
    9900012    2    1    2    0    0  0.13186019958E+02 -0.37603875859E+02 -0.21004545791E+02  0.46142317123E+02  0.99999941828E+01 0.  0.
         12    1    1    2    0    0 -0.13186019958E+02  0.37603875859E+02  0.21004545791E+02  0.45045682877E+02  0.00000000000E+00 0. -1.
         11    1    3    3    0    0 -0.13058340558E+00 -0.85289522423E+00 -0.45886945783E+00  0.97726338813E+00  0.51100000000E-03 0. -1.
        -11    1    3    3    0    0  0.89068918959E+01 -0.31506894878E+02 -0.13740148710E+02  0.35507870042E+02  0.51100000000E-03 0.  1.
        -12    1    3    3    0    0  0.44097114673E+01 -0.52440857573E+01 -0.68055276232E+01  0.96571836932E+01  0.00000000000E+00 0.  1.
</event>
<event>
 7    1  0.2328810E-008  0.4614232E+02  0.7816164E-02  0.1320468E+00
        -11   -1    0    0    0    0  0.00000000000E+00  0.00000000000E+00  0.45593999997E+02  0.45594000000E+02  0.51100000000E-03 0.  1.
         11   -1    0    0    0    0 -0.00000000000E+00 -0.00000000000E+00 -0.45593999997E+02  0.45594000000E+02  0.51100000000E-03 0. -1.
    9900012    2    1    2    0    0  0.27401404192E+02 -0.25009165507E+02 -0.25550306281E+02  0.46142318053E+02  0.10000002660E+02 0.  0.
         12    1    1    2    0    0 -0.27401404192E+02  0.25009165507E+02  0.25550306281E+02  0.45045681947E+02  0.00000000000E+00 0. -1.
         11    1    3    3    0    0  0.43641398256E+01 -0.63414445260E+01 -0.34252822940E+01  0.84256865684E+01  0.51100000000E-03 0. -1.
        -11    1    3    3    0    0  0.17425721898E+02 -0.11342471510E+02 -0.11953693967E+02  0.23983290920E+02  0.51100000000E-03 0.  1.
        -12    1    3    3    0    0  0.56115424677E+01 -0.73252494718E+01 -0.10171330020E+02  0.13733340565E+02  0.00000000000E+00 0.  1.
</event>
<event>
 7    1  0.2328810E-008  0.4614232E+02  0.7816164E-02  0.1320468E+00
        -11   -1    0    0    0    0  0.00000000000E+00  0.00000000000E+00  0.45593999997E+02  0.45594000000E+02  0.51100000000E-03 0.  1.
         11   -1    0    0    0    0 -0.00000000000E+00 -0.00000000000E+00 -0.45593999997E+02  0.45594000000E+02  0.51100000000E-03 0. -1.
    9900012    2    1    2    0    0  0.44774921100E+02  0.58866228791E+00  0.48962522767E+01  0.46142319085E+02  0.10000012070E+02 0.  0.
         12    1    1    2    0    0 -0.44774921100E+02 -0.58866228791E+00 -0.48962522767E+01  0.45045680915E+02  0.00000000000E+00 0. -1.
         11    1    3    3    0    0  0.20725798521E+02 -0.24079581982E+01  0.50951291718E+01  0.21478299015E+02  0.51100000000E-03 0. -1.
        -11    1    3    3    0    0  0.20224649555E+02  0.17676084853E+01  0.13781242055E+01  0.20348467165E+02  0.51100000000E-03 0.  1.
         12    1    3    3    0    0  0.38244730232E+01  0.12290120008E+01 -0.15770011006E+01  0.43155529048E+01  0.00000000000E+00 0. -1.
</event>
<event>
 7    1  0.2328810E-008  0.4614232E+02  0.7816164E-02  0.1320468E+00
        -11   -1    0    0    0    0  0.00000000000E+00  0.00000000000E+00  0.45593999997E+02  0.45594000000E+02  0.51100000000E-03 0.  1.
         11   -1    0    0    0    0 -0.00000000000E+00 -0.00000000000E+00 -0.45593999997E+02  0.45594000000E+02  0.51100000000E-03 0. -1.
    9900012    2    1    2    0    0  0.41270385430E+02 -0.13041226348E+02  0.12481797089E+02  0.46142317002E+02  0.99999930781E+01 0.  0.
         12    1    1    2    0    0 -0.41270385430E+02  0.13041226348E+02 -0.12481797089E+02  0.45045682998E+02  0.00000000000E+00 0. -1.
         11    1    3    3    0    0  0.17254255914E+01 -0.55178453031E+00 -0.69262311053E+00  0.19394036902E+01  0.51100000000E-03 0. -1.
        -11    1    3    3    0    0 -0.16647355549E+00 -0.57903195340E+00 -0.20819108527E+00  0.63744430097E+00  0.51100000000E-03 0.  1.
        -12    1    3    3    0    0  0.39711433394E+02 -0.11910409864E+02  0.13382611285E+02  0.43565469011E+02  0.00000000000E+00 0.  1.
</event>
<event>
 7    1  0.2328810E-008  0.4614232E+02  0.7816164E-02  0.1320468E+00
        -11   -1    0    0    0    0  0.00000000000E+00  0.00000000000E+00  0.45593999997E+02  0.45594000000E+02  0.51100000000E-03 0. -1.
         11   -1    0    0    0    0 -0.00000000000E+00 -0.00000000000E+00 -0.45593999997E+02  0.45594000000E+02  0.51100000000E-03 0.  1.
    9900012    2    1    2    0    0  0.42215265294E+02 -0.40197979645E+01 -0.15192961597E+02  0.46142317836E+02  0.10000000683E+02 0.  0.
         12    1    1    2    0    0 -0.42215265294E+02  0.40197979645E+01  0.15192961597E+02  0.45045682164E+02  0.00000000000E+00 0. -1.
         11    1    3    3    0    0  0.12058814044E+02  0.99399077712E+00 -0.66835179460E+01  0.13822895001E+02  0.51100000000E-03 0. -1.
        -11    1    3    3    0    0  0.12199503804E+02 -0.41813271671E+01 -0.57989694581E+01  0.14139994235E+02  0.51100000000E-03 0.  1.
         12    1    3    3    0    0  0.17956947446E+02 -0.83246157450E+00 -0.27104741933E+01  0.18179428599E+02  0.00000000000E+00 0. -1.
</event>
<event>
 7    1  0.2328810E-008  0.4614232E+02  0.7816164E-02  0.1320468E+00
        -11   -1    0    0    0    0  0.00000000000E+00  0.00000000000E+00  0.45593999997E+02  0.45594000000E+02  0.51100000000E-03 0.  1.
         11   -1    0    0    0    0 -0.00000000000E+00 -0.00000000000E+00 -0.45593999997E+02  0.45594000000E+02  0.51100000000E-03 0. -1.
    9900012    2    1    2    0    0  0.28176253261E+02 -0.19219998802E+02  0.29424536263E+02  0.46142323892E+02  0.10000055905E+02 0.  0.
         12    1    1    2    0    0 -0.28176253261E+02  0.19219998802E+02 -0.29424536263E+02  0.45045676108E+02  0.00000000000E+00 0. -1.
         11    1    3    3    0    0  0.43391279108E+01 -0.37736300490E+00  0.72497263090E+01  0.84574798658E+01  0.51100000000E-03 0. -1.
        -11    1    3    3    0    0  0.16109636024E+02 -0.11447291841E+02  0.14877813250E+02  0.24736818524E+02  0.51100000000E-03 0.  1.
         12    1    3    3    0    0  0.77274893261E+01 -0.73953439563E+01  0.72969967036E+01  0.12948025502E+02  0.00000000000E+00 0. -1.
</event>
<event>
 7    1  0.2328810E-008  0.4614232E+02  0.7816164E-02  0.1320468E+00
        -11   -1    0    0    0    0  0.00000000000E+00  0.00000000000E+00  0.45593999997E+02  0.45594000000E+02  0.51100000000E-03 0.  1.
         11   -1    0    0    0    0 -0.00000000000E+00 -0.00000000000E+00 -0.45593999997E+02  0.45594000000E+02  0.51100000000E-03 0. -1.
    9900012    2    1    2    0    0  0.32016392087E+02 -0.15509511226E+02  0.27631846130E+02  0.46142320726E+02  0.10000027035E+02 0.  0.
         12    1    1    2    0    0 -0.32016392087E+02  0.15509511226E+02 -0.27631846130E+02  0.45045679274E+02  0.00000000000E+00 0. -1.
         11    1    3    3    0    0  0.32438562805E+00 -0.12146194208E+01  0.21935951471E+01  0.25283168914E+01  0.51100000000E-03 0. -1.
        -11    1    3    3    0    0  0.10264262738E+02 -0.23871732791E+01  0.10661396432E+02  0.14990632407E+02  0.51100000000E-03 0.  1.
        -12    1    3    3    0    0  0.21427743721E+02 -0.11907718526E+02  0.14776854551E+02  0.28623371428E+02  0.00000000000E+00 0.  1.
</event>
<event>
 7    1  0.2328810E-008  0.4614232E+02  0.7816164E-02  0.1320468E+00
        -11   -1    0    0    0    0  0.00000000000E+00  0.00000000000E+00  0.45593999997E+02  0.45594000000E+02  0.51100000000E-03 0.  1.
         11   -1    0    0    0    0 -0.00000000000E+00 -0.00000000000E+00 -0.45593999997E+02  0.45594000000E+02  0.51100000000E-03 0. -1.
    9900012    2    1    2    0    0  0.26371947969E+02  0.35959212505E+02  0.63693737824E+01  0.46142317343E+02  0.99999961889E+01 0.  0.
         12    1    1    2    0    0 -0.26371947969E+02 -0.35959212505E+02 -0.63693737824E+01  0.45045682657E+02  0.00000000000E+00 0. -1.
         11    1    3    3    0    0  0.29417718434E+01  0.11847742237E+01 -0.11223702785E+00  0.31733750096E+01  0.51100000000E-03 0. -1.
        -11    1    3    3    0    0  0.48130471509E+00  0.33551753837E+01 -0.54093989387E+00  0.34324149391E+01  0.51100000000E-03 0.  1.
        -12    1    3    3    0    0  0.22948871410E+02  0.31419262897E+02  0.70225507041E+01  0.39536527395E+02  0.00000000000E+00 0.  1.
</event>
<event>
 7    1  0.2328810E-008  0.4614232E+02  0.7816164E-02  0.1320468E+00
        -11   -1    0    0    0    0  0.00000000000E+00  0.00000000000E+00  0.45593999997E+02  0.45594000000E+02  0.51100000000E-03 0. -1.
         11   -1    0    0    0    0 -0.00000000000E+00 -0.00000000000E+00 -0.45593999997E+02  0.45594000000E+02  0.51100000000E-03 0.  1.
    9900012    2    1    2    0    0 -0.42179435274E+02 -0.74836802791E+01  0.13928503660E+02  0.46142318245E+02  0.10000004412E+02 0.  0.
         12    1    1    2    0    0  0.42179435274E+02  0.74836802791E+01 -0.13928503660E+02  0.45045681755E+02  0.00000000000E+00 0. -1.
         11    1    3    3    0    0 -0.13815622045E+02 -0.64244698434E+01  0.35565179844E+01  0.15645895491E+02  0.51100000000E-03 0. -1.
        -11    1    3    3    0    0 -0.10412891488E+02  0.49362471206E+00  0.57062897327E+01  0.11884179285E+02  0.51100000000E-03 0.  1.
        -12    1    3    3    0    0 -0.17950921741E+02 -0.15528351478E+01  0.46656959433E+01  0.18612243470E+02  0.00000000000E+00 0.  1.
</event>
<event>
 7    1  0.2328810E-008  0.4614232E+02  0.7816164E-02  0.1320468E+00
        -11   -1    0    0    0    0  0.00000000000E+00  0.00000000000E+00  0.45593999997E+02  0.45594000000E+02  0.51100000000E-03 0.  1.
         11   -1    0    0    0    0 -0.00000000000E+00 -0.00000000000E+00 -0.45593999997E+02  0.45594000000E+02  0.51100000000E-03 0. -1.
    9900012    2    1    2    0    0  0.39809408997E+02  0.19000058236E+02  0.91280998761E+01  0.46142318020E+02  0.10000002361E+02 0.  0.
         12    1    1    2    0    0 -0.39809408997E+02 -0.19000058236E+02 -0.91280998761E+01  0.45045681980E+02  0.00000000000E+00 0. -1.
         11    1    3    3    0    0  0.10162903596E+02  0.18668914724E+01  0.16232609201E+01  0.10459678272E+02  0.51100000000E-03 0. -1.
        -11    1    3    3    0    0  0.25941787874E+02  0.12148218469E+02  0.56133813647E+01  0.29190163081E+02  0.51100000000E-03 0.  1.
         12    1    3    3    0    0  0.37047175267E+01  0.49849482945E+01  0.18914575912E+01  0.64924766670E+01  0.00000000000E+00 0. -1.
</event>
<event>
 7    1  0.2328810E-008  0.4614231E+02  0.7816164E-02  0.1320468E+00
        -11   -1    0    0    0    0  0.00000000000E+00  0.00000000000E+00  0.45593999997E+02  0.45594000000E+02  0.51100000000E-03 0. -1.
         11   -1    0    0    0    0 -0.00000000000E+00 -0.00000000000E+00 -0.45593999997E+02  0.45594000000E+02  0.51100000000E-03 0.  1.
    9900012    2    1    2    0    0  0.44346344654E+02  0.72886905603E+01  0.30644398339E+01  0.46142311130E+02  0.99999395302E+01 0.  0.
         12    1    1    2    0    0 -0.44346344654E+02 -0.72886905603E+01 -0.30644398339E+01  0.45045688870E+02  0.00000000000E+00 0. -1.
         11    1    3    3    0    0  0.84064190503E+01  0.38070060072E+01 -0.82815265369E+00  0.92653663213E+01  0.51100000000E-03 0. -1.
        -11    1    3    3    0    0  0.12772790555E+02  0.85006346810E-02  0.42100867114E+01  0.13448757608E+02  0.51100000000E-03 0.  1.
        -12    1    3    3    0    0  0.23167135049E+02  0.34731839184E+01 -0.31749422380E+00  0.23428187200E+02  0.00000000000E+00 0.  1.
</event>
<event>
 7    1  0.2328810E-008  0.4614232E+02  0.7816164E-02  0.1320468E+00
        -11   -1    0    0    0    0  0.00000000000E+00  0.00000000000E+00  0.45593999997E+02  0.45594000000E+02  0.51100000000E-03 0.  1.
         11   -1    0    0    0    0 -0.00000000000E+00 -0.00000000000E+00 -0.45593999997E+02  0.45594000000E+02  0.51100000000E-03 0. -1.
    9900012    2    1    2    0    0 -0.14568139488E+02 -0.42574002254E+02  0.20825649286E+01  0.46142318378E+02  0.10000005626E+02 0.  0.
         12    1    1    2    0    0  0.14568139488E+02  0.42574002254E+02 -0.20825649286E+01  0.45045681622E+02  0.00000000000E+00 0. -1.
         11    1    3    3    0    0 -0.23631190412E+01 -0.18275800727E+02 -0.10408874683E+01  0.18457320250E+02  0.51100000000E-03 0. -1.
        -11    1    3    3    0    0 -0.24342076191E+01 -0.33080234962E+01  0.18289799828E+01  0.44959486455E+01  0.51100000000E-03 0.  1.
        -12    1    3    3    0    0 -0.97708128275E+01 -0.20990178031E+02  0.12944724142E+01  0.23189049483E+02  0.00000000000E+00 0.  1.
</event>
<event>
 7    1  0.2328810E-008  0.4614232E+02  0.7816164E-02  0.1320468E+00
        -11   -1    0    0    0    0  0.00000000000E+00  0.00000000000E+00  0.45593999997E+02  0.45594000000E+02  0.51100000000E-03 0.  1.
         11   -1    0    0    0    0 -0.00000000000E+00 -0.00000000000E+00 -0.45593999997E+02  0.45594000000E+02  0.51100000000E-03 0. -1.
    9900012    2    1    2    0    0 -0.30481375541E+02 -0.20350404137E+02  0.26188933458E+02  0.46142318308E+02  0.10000004984E+02 0.  0.
         12    1    1    2    0    0  0.30481375541E+02  0.20350404137E+02 -0.26188933458E+02  0.45045681692E+02  0.00000000000E+00 0. -1.
         11    1    3    3    0    0 -0.11957258098E+01 -0.39521212088E+00 -0.68186597001E+00  0.14320943736E+01  0.51100000000E-03 0. -1.
        -11    1    3    3    0    0 -0.10544679927E+02 -0.72010285700E+01  0.69825799749E+01  0.14553402028E+02  0.51100000000E-03 0.  1.
         12    1    3    3    0    0 -0.18740969805E+02 -0.12754163446E+02  0.19888219453E+02  0.30156821906E+02  0.00000000000E+00 0. -1.
</event>
<event>
 7    1  0.2328810E-008  0.4614232E+02  0.7816164E-02  0.1320468E+00
        -11   -1    0    0    0    0  0.00000000000E+00  0.00000000000E+00  0.45593999997E+02  0.45594000000E+02  0.51100000000E-03 0. -1.
         11   -1    0    0    0    0 -0.00000000000E+00 -0.00000000000E+00 -0.45593999997E+02  0.45594000000E+02  0.51100000000E-03 0.  1.
    9900012    2    1    2    0    0 -0.19160483305E+02 -0.35550480133E+02 -0.19953767451E+02  0.46142316592E+02  0.99999893429E+01 0.  0.
         12    1    1    2    0    0  0.19160483305E+02  0.35550480133E+02  0.19953767451E+02  0.45045683408E+02  0.00000000000E+00 0. -1.
         11    1    3    3    0    0 -0.11034464692E+01 -0.37931156489E+01  0.88267859856E+00  0.40477700287E+01  0.51100000000E-03 0. -1.
        -11    1    3    3    0    0 -0.14503353487E+01 -0.36716159714E+01 -0.22774634341E+01  0.45575296401E+01  0.51100000000E-03 0.  1.
         12    1    3    3    0    0 -0.16606701488E+02 -0.28085748513E+02 -0.18558982615E+02  0.37537016924E+02  0.00000000000E+00 0. -1.
</event>
<event>
 7    1  0.2328810E-008  0.4614232E+02  0.7816164E-02  0.1320468E+00
        -11   -1    0    0    0    0  0.00000000000E+00  0.00000000000E+00  0.45593999997E+02  0.45594000000E+02  0.51100000000E-03 0.  1.
         11   -1    0    0    0    0 -0.00000000000E+00 -0.00000000000E+00 -0.45593999997E+02  0.45594000000E+02  0.51100000000E-03 0. -1.
    9900012    2    1    2    0    0  0.96485880211E+00 -0.44492933365E+02  0.69685998210E+01  0.46142318128E+02  0.10000003341E+02 0.  0.
         12    1    1    2    0    0 -0.96485880211E+00  0.44492933365E+02 -0.69685998210E+01  0.45045681872E+02  0.00000000000E+00 0. -1.
         11    1    3    3    0    0  0.22292749722E+01 -0.33972772305E+01  0.68675616156E+00  0.41210185354E+01  0.51100000000E-03 0. -1.
        -11    1    3    3    0    0 -0.34226119777E+01 -0.16785826745E+02  0.20847204497E+01  0.17257587081E+02  0.51100000000E-03 0.  1.
        -12    1    3    3    0    0  0.21581958076E+01 -0.24309829389E+02  0.41971232097E+01  0.24763712511E+02  0.00000000000E+00 0.  1.
</event>
<event>
 7    1  0.2328810E-008  0.4614232E+02  0.7816164E-02  0.1320468E+00
        -11   -1    0    0    0    0  0.00000000000E+00  0.00000000000E+00  0.45593999997E+02  0.45594000000E+02  0.51100000000E-03 0. -1.
         11   -1    0    0    0    0 -0.00000000000E+00 -0.00000000000E+00 -0.45593999997E+02  0.45594000000E+02  0.51100000000E-03 0.  1.
    9900012    2    1    2    0    0  0.83518098268E+01  0.43670937890E+02  0.72256436353E+01  0.46142317970E+02  0.10000001906E+02 0.  0.
         12    1    1    2    0    0 -0.83518098268E+01 -0.43670937890E+02 -0.72256436353E+01  0.45045682030E+02  0.00000000000E+00 0. -1.
         11    1    3    3    0    0  0.48657653762E+01  0.91195553565E+01  0.42210295639E+00  0.10345053589E+02  0.51100000000E-03 0. -1.
        -11    1    3    3    0    0  0.12829503253E+01  0.10429939743E+02 -0.43318438126E+00  0.10517473725E+02  0.51100000000E-03 0.  1.
         12    1    3    3    0    0  0.22030941253E+01  0.24121442791E+02  0.72367250602E+01  0.25279790656E+02  0.00000000000E+00 0. -1.
</event>
<event>
 7    1  0.2328810E-008  0.4614231E+02  0.7816164E-02  0.1320468E+00
        -11   -1    0    0    0    0  0.00000000000E+00  0.00000000000E+00  0.45593999997E+02  0.45594000000E+02  0.51100000000E-03 0.  1.
         11   -1    0    0    0    0 -0.00000000000E+00 -0.00000000000E+00 -0.45593999997E+02  0.45594000000E+02  0.51100000000E-03 0. -1.
    9900012    2    1    2    0    0  0.23594779087E+02 -0.14544846591E+02  0.35508427187E+02  0.46142305824E+02  0.99998911447E+01 0.  0.
         12    1    1    2    0    0 -0.23594779087E+02  0.14544846591E+02 -0.35508427187E+02  0.45045694176E+02  0.00000000000E+00 0. -1.
         11    1    3    3    0    0  0.40793559496E+00 -0.98297717102E-01 -0.32769926218E+00  0.53241051678E+00  0.51100000000E-03 0. -1.
        -11    1    3    3    0    0  0.76973227580E+01 -0.12715942999E+01  0.11494967683E+02  0.13892444421E+02  0.51100000000E-03 0.  1.
         12    1    3    3    0    0  0.15489520734E+02 -0.13174954574E+02  0.24341158766E+02  0.31717450885E+02  0.00000000000E+00 0. -1.
</event>
<event>
 7    1  0.2328810E-008  0.4614232E+02  0.7816164E-02  0.1320468E+00
        -11   -1    0    0    0    0  0.00000000000E+00  0.00000000000E+00  0.45593999997E+02  0.45594000000E+02  0.51100000000E-03 0. -1.
         11   -1    0    0    0    0 -0.00000000000E+00 -0.00000000000E+00 -0.45593999997E+02  0.45594000000E+02  0.51100000000E-03 0.  1.
    9900012    2    1    2    0    0 -0.34598112300E+02  0.28470084556E+02 -0.46409445782E+01  0.46142318121E+02  0.10000003284E+02 0.  0.
         12    1    1    2    0    0  0.34598112300E+02 -0.28470084556E+02  0.46409445782E+01  0.45045681879E+02  0.00000000000E+00 0. -1.
         11    1    3    3    0    0 -0.13118075093E+02  0.96128518805E+01 -0.34087360217E+01  0.16616566942E+02  0.51100000000E-03 0. -1.
        -11    1    3    3    0    0 -0.20897237342E+02  0.19111696073E+02 -0.21599264113E+01  0.28400998885E+02  0.51100000000E-03 0.  1.
        -12    1    3    3    0    0 -0.58279986547E+00 -0.25446339801E+00  0.92771785478E+00  0.11247522937E+01  0.00000000000E+00 0.  1.
</event>
<event>
 7    1  0.2328810E-008  0.4614232E+02  0.7816164E-02  0.1320468E+00
        -11   -1    0    0    0    0  0.00000000000E+00  0.00000000000E+00  0.45593999997E+02  0.45594000000E+02  0.51100000000E-03 0.  1.
         11   -1    0    0    0    0 -0.00000000000E+00 -0.00000000000E+00 -0.45593999997E+02  0.45594000000E+02  0.51100000000E-03 0. -1.
    9900012    2    1    2    0    0  0.18074637276E+02  0.32684084094E+01  0.41130748339E+02  0.46142318019E+02  0.10000002351E+02 0.  0.
         12    1    1    2    0    0 -0.18074637276E+02 -0.32684084094E+01 -0.41130748339E+02  0.45045681981E+02  0.00000000000E+00 0. -1.
         11    1    3    3    0    0  0.21862158237E+01  0.15610468056E+01  0.14585711129E+02  0.14831027482E+02  0.51100000000E-03 0.  1.
        -11    1    3    3    0    0  0.70094253270E+01  0.22353212936E+01  0.88680761581E+01  0.11522650724E+02  0.51100000000E-03 0. -1.
        -12    1    3    3    0    0  0.88789961255E+01 -0.52795968979E+00  0.17676961052E+02  0.19788639813E+02  0.00000000000E+00 0.  1.
</event>
<event>
 7    1  0.2328810E-008  0.4614232E+02  0.7816164E-02  0.1320468E+00
        -11   -1    0    0    0    0  0.00000000000E+00  0.00000000000E+00  0.45593999997E+02  0.45594000000E+02  0.51100000000E-03 0.  1.
         11   -1    0    0    0    0 -0.00000000000E+00 -0.00000000000E+00 -0.45593999997E+02  0.45594000000E+02  0.51100000000E-03 0. -1.
    9900012    2    1    2    0    0  0.21023089694E+02  0.36995051898E+02  0.14782059372E+02  0.46142318248E+02  0.10000004443E+02 0.  0.
         12    1    1    2    0    0 -0.21023089694E+02 -0.36995051898E+02 -0.14782059372E+02  0.45045681752E+02  0.00000000000E+00 0. -1.
         11    1    3    3    0    0  0.82850792902E+01  0.16307469545E+02  0.10116185877E+02  0.20902471594E+02  0.51100000000E-03 0. -1.
        -11    1    3    3    0    0  0.89387526085E+01  0.11730190930E+02  0.47993871049E+01  0.15509119714E+02  0.51100000000E-03 0.  1.
         12    1    3    3    0    0  0.37992577950E+01  0.89573914234E+01 -0.13351361005E+00  0.97307269404E+01  0.00000000000E+00 0. -1.
</event>
<event>
 7    1  0.2328810E-008  0.4614231E+02  0.7816164E-02  0.1320468E+00
        -11   -1    0    0    0    0  0.00000000000E+00  0.00000000000E+00  0.45593999997E+02  0.45594000000E+02  0.51100000000E-03 0. -1.
         11   -1    0    0    0    0 -0.00000000000E+00 -0.00000000000E+00 -0.45593999997E+02  0.45594000000E+02  0.51100000000E-03 0.  1.
    9900012    2    1    2    0    0 -0.25846399605E+02  0.19964563137E+02 -0.31024082422E+02  0.46142313814E+02  0.99999640114E+01 0.  0.
         12    1    1    2    0    0  0.25846399605E+02 -0.19964563137E+02  0.31024082422E+02  0.45045686186E+02  0.00000000000E+00 0. -1.
         11    1    3    3    0    0 -0.76725541676E+01  0.96944719434E+01 -0.11255095127E+02  0.16719092089E+02  0.51100000000E-03 0. -1.
        -11    1    3    3    0    0 -0.20306315901E+01  0.21427822379E+01 -0.60524213374E+01  0.67340021295E+01  0.51100000000E-03 0.  1.
        -12    1    3    3    0    0 -0.16143213847E+02  0.81273089559E+01 -0.13716565957E+02  0.22689219596E+02  0.00000000000E+00 0.  1.
</event>
<event>
 7    1  0.2328810E-008  0.4614232E+02  0.7816164E-02  0.1320468E+00
        -11   -1    0    0    0    0  0.00000000000E+00  0.00000000000E+00  0.45593999997E+02  0.45594000000E+02  0.51100000000E-03 0. -1.
         11   -1    0    0    0    0 -0.00000000000E+00 -0.00000000000E+00 -0.45593999997E+02  0.45594000000E+02  0.51100000000E-03 0.  1.
    9900012    2    1    2    0    0 -0.19052002576E+02  0.40308287699E+02 -0.64324514489E+01  0.46142319952E+02  0.10000019974E+02 0.  0.
         12    1    1    2    0    0  0.19052002576E+02 -0.40308287699E+02  0.64324514489E+01  0.45045680048E+02  0.00000000000E+00 0. -1.
         11    1    3    3    0    0 -0.37473853306E+00  0.21221604645E+00  0.67517497146E+00  0.80082839718E+00  0.51100000000E-03 0. -1.
        -11    1    3    3    0    0 -0.82865488061E+01  0.25750988883E+02 -0.36917575647E+01  0.27302186611E+02  0.51100000000E-03 0.  1.
        -12    1    3    3    0    0 -0.10390715237E+02  0.14345082770E+02 -0.34158688556E+01  0.18039304944E+02  0.00000000000E+00 0.  1.
</event>
<event>
 7    1  0.2328810E-008  0.4614232E+02  0.7816164E-02  0.1320468E+00
        -11   -1    0    0    0    0  0.00000000000E+00  0.00000000000E+00  0.45593999997E+02  0.45594000000E+02  0.51100000000E-03 0.  1.
         11   -1    0    0    0    0 -0.00000000000E+00 -0.00000000000E+00 -0.45593999997E+02  0.45594000000E+02  0.51100000000E-03 0. -1.
    9900012    2    1    2    0    0 -0.35720382168E+02 -0.21181029933E+01  0.27362043143E+02  0.46142317993E+02  0.10000002117E+02 0.  0.
         12    1    1    2    0    0  0.35720382168E+02  0.21181029933E+01 -0.27362043143E+02  0.45045682007E+02  0.00000000000E+00 0. -1.
         11    1    3    3    0    0 -0.85807565075E+01  0.11341340370E+01  0.37315325295E+01  0.94254961426E+01  0.51100000000E-03 0. -1.
        -11    1    3    3    0    0 -0.26654734996E+02 -0.24297482408E+01  0.21326360573E+02  0.34222685893E+02  0.51100000000E-03 0.  1.
         12    1    3    3    0    0 -0.48489066466E+00 -0.82248878950E+00  0.23041500402E+01  0.24941359572E+01  0.00000000000E+00 0. -1.
</event>
<event>
 7    1  0.2328810E-008  0.4614232E+02  0.7816164E-02  0.1320468E+00
        -11   -1    0    0    0    0  0.00000000000E+00  0.00000000000E+00  0.45593999997E+02  0.45594000000E+02  0.51100000000E-03 0. -1.
         11   -1    0    0    0    0 -0.00000000000E+00 -0.00000000000E+00 -0.45593999997E+02  0.45594000000E+02  0.51100000000E-03 0.  1.
    9900012    2    1    2    0    0 -0.17614467048E+02 -0.41382974250E+02 -0.25087131104E+01  0.46142315982E+02  0.99999837741E+01 0.  0.
         12    1    1    2    0    0  0.17614467048E+02  0.41382974250E+02  0.25087131104E+01  0.45045684018E+02  0.00000000000E+00 0. -1.
         11    1    3    3    0    0  0.75721221128E+00 -0.80300183117E+00  0.56472634834E+00  0.12397977187E+01  0.51100000000E-03 0. -1.
        -11    1    3    3    0    0 -0.70833964076E+01 -0.18652476601E+02 -0.33890942409E+01  0.20237967983E+02  0.51100000000E-03 0.  1.
         12    1    3    3    0    0 -0.11288282852E+02 -0.21927495818E+02  0.31565478216E+00  0.24664550280E+02  0.00000000000E+00 0. -1.
</event>
<event>
 7    1  0.2328810E-008  0.4614233E+02  0.7816164E-02  0.1320468E+00
        -11   -1    0    0    0    0  0.00000000000E+00  0.00000000000E+00  0.45593999997E+02  0.45594000000E+02  0.51100000000E-03 0.  1.
         11   -1    0    0    0    0 -0.00000000000E+00 -0.00000000000E+00 -0.45593999997E+02  0.45594000000E+02  0.51100000000E-03 0. -1.
    9900012    2    1    2    0    0 -0.11315813210E+01  0.11693459312E+02  0.43486722723E+02  0.46142328508E+02  0.10000098001E+02 0.  0.
         12    1    1    2    0    0  0.11315813210E+01 -0.11693459312E+02 -0.43486722723E+02  0.45045671492E+02  0.00000000000E+00 0. -1.
         11    1    3    3    0    0 -0.14160895656E+01  0.36355744184E+01  0.64749703333E+01  0.75596264516E+01  0.51100000000E-03 0. -1.
        -11    1    3    3    0    0 -0.77488288786E-01  0.92483503437E+01  0.28060541782E+02  0.29545422554E+02  0.51100000000E-03 0.  1.
         12    1    3    3    0    0  0.36199653339E+00 -0.11904654496E+01  0.89512106074E+01  0.90372795030E+01  0.00000000000E+00 0. -1.
</event>
<event>
 7    1  0.2328810E-008  0.4614232E+02  0.7816164E-02  0.1320468E+00
        -11   -1    0    0    0    0  0.00000000000E+00  0.00000000000E+00  0.45593999997E+02  0.45594000000E+02  0.51100000000E-03 0.  1.
         11   -1    0    0    0    0 -0.00000000000E+00 -0.00000000000E+00 -0.45593999997E+02  0.45594000000E+02  0.51100000000E-03 0. -1.
    9900012    2    1    2    0    0  0.15173964167E+02  0.16325578453E+02  0.39145109702E+02  0.46142319697E+02  0.10000017652E+02 0.  0.
         12    1    1    2    0    0 -0.15173964167E+02 -0.16325578453E+02 -0.39145109702E+02  0.45045680303E+02  0.00000000000E+00 0. -1.
         11    1    3    3    0    0  0.25695965509E+01  0.31020522070E+01  0.15133595653E+02  0.15660500375E+02  0.51100000000E-03 0. -1.
        -11    1    3    3    0    0  0.53484056952E+01  0.43338787805E+01  0.12238390917E+02  0.14041586850E+02  0.51100000000E-03 0.  1.
        -12    1    3    3    0    0  0.72559619213E+01  0.88896474655E+01  0.11773123132E+02  0.16440232472E+02  0.00000000000E+00 0.  1.
</event>
<event>
 7    1  0.2328810E-008  0.4614232E+02  0.7816164E-02  0.1320468E+00
        -11   -1    0    0    0    0  0.00000000000E+00  0.00000000000E+00  0.45593999997E+02  0.45594000000E+02  0.51100000000E-03 0. -1.
         11   -1    0    0    0    0 -0.00000000000E+00 -0.00000000000E+00 -0.45593999997E+02  0.45594000000E+02  0.51100000000E-03 0.  1.
    9900012    2    1    2    0    0 -0.39617019115E+01 -0.41942904013E+02  0.15943992926E+02  0.46142321079E+02  0.10000030252E+02 0.  0.
         12    1    1    2    0    0  0.39617019115E+01  0.41942904013E+02 -0.15943992926E+02  0.45045678921E+02  0.00000000000E+00 0. -1.
         11    1    3    3    0    0 -0.32535581906E+01 -0.15892660740E+02  0.31764030492E+01  0.16530330998E+02  0.51100000000E-03 0. -1.
        -11    1    3    3    0    0  0.55170556477E+00 -0.24470645157E+02  0.10675799031E+02  0.26703736417E+02  0.51100000000E-03 0.  1.
         12    1    3    3    0    0 -0.12598492857E+01 -0.15795981157E+01  0.20917908463E+01  0.29082536641E+01  0.00000000000E+00 0. -1.
</event>
<event>
 7    1  0.2328810E-008  0.4614232E+02  0.7816164E-02  0.1320468E+00
        -11   -1    0    0    0    0  0.00000000000E+00  0.00000000000E+00  0.45593999997E+02  0.45594000000E+02  0.51100000000E-03 0.  1.
         11   -1    0    0    0    0 -0.00000000000E+00 -0.00000000000E+00 -0.45593999997E+02  0.45594000000E+02  0.51100000000E-03 0. -1.
    9900012    2    1    2    0    0  0.68590499358E+01 -0.11704473171E+02  0.42954302257E+02  0.46142319401E+02  0.10000014954E+02 0.  0.
         12    1    1    2    0    0 -0.68590499358E+01  0.11704473171E+02 -0.42954302257E+02  0.45045680599E+02  0.00000000000E+00 0. -1.
         11    1    3    3    0    0  0.47647739328E+01 -0.46056475662E+01  0.17186177911E+02  0.18419548626E+02  0.51100000000E-03 0. -1.
        -11    1    3    3    0    0 -0.25676519511E+01 -0.17655581989E+01  0.69945828970E+01  0.76572986399E+01  0.51100000000E-03 0.  1.
        -12    1    3    3    0    0  0.46619279542E+01 -0.53332674059E+01  0.18773541449E+02  0.20065472135E+02  0.00000000000E+00 0.  1.
</event>
<event>
 7    1  0.2328810E-008  0.4614232E+02  0.7816164E-02  0.1320468E+00
        -11   -1    0    0    0    0  0.00000000000E+00  0.00000000000E+00  0.45593999997E+02  0.45594000000E+02  0.51100000000E-03 0. -1.
         11   -1    0    0    0    0 -0.00000000000E+00 -0.00000000000E+00 -0.45593999997E+02  0.45594000000E+02  0.51100000000E-03 0.  1.
    9900012    2    1    2    0    0  0.40745319033E+02  0.18310334431E+02  0.58020638709E+01  0.46142319683E+02  0.10000017527E+02 0.  0.
         12    1    1    2    0    0 -0.40745319033E+02 -0.18310334431E+02 -0.58020638709E+01  0.45045680317E+02  0.00000000000E+00 0. -1.
         11    1    3    3    0    0  0.18962991662E+02  0.79276724986E+01  0.50515973781E+01  0.21165105253E+02  0.51100000000E-03 0. -1.
        -11    1    3    3    0    0  0.35708091180E+01  0.32312228577E+01  0.23269335807E+01  0.53484669825E+01  0.51100000000E-03 0.  1.
        -12    1    3    3    0    0  0.18211518253E+02  0.71514390745E+01 -0.15764670878E+01  0.19628747448E+02  0.00000000000E+00 0.  1.
</event>
<event>
 7    1  0.2328810E-008  0.4614232E+02  0.7816164E-02  0.1320468E+00
        -11   -1    0    0    0    0  0.00000000000E+00  0.00000000000E+00  0.45593999997E+02  0.45594000000E+02  0.51100000000E-03 0.  1.
         11   -1    0    0    0    0 -0.00000000000E+00 -0.00000000000E+00 -0.45593999997E+02  0.45594000000E+02  0.51100000000E-03 0. -1.
    9900012    2    1    2    0    0 -0.11504037740E+02  0.28431082231E+02  0.32991576423E+02  0.46142318342E+02  0.10000005297E+02 0.  0.
         12    1    1    2    0    0  0.11504037740E+02 -0.28431082231E+02 -0.32991576423E+02  0.45045681658E+02  0.00000000000E+00 0. -1.
         11    1    3    3    0    0 -0.47985712221E+01  0.74802337711E+01  0.61462064046E+01  0.10805370724E+02  0.51100000000E-03 0. -1.
        -11    1    3    3    0    0 -0.53292877439E+01  0.10651548853E+02  0.10034353905E+02  0.15573858205E+02  0.51100000000E-03 0.  1.
         12    1    3    3    0    0 -0.13761787735E+01  0.10299299607E+02  0.16811016113E+02  0.19763089413E+02  0.00000000000E+00 0. -1.
</event>
<event>
 7    1  0.2328810E-008  0.4614232E+02  0.7816164E-02  0.1320468E+00
        -11   -1    0    0    0    0  0.00000000000E+00  0.00000000000E+00  0.45593999997E+02  0.45594000000E+02  0.51100000000E-03 0.  1.
         11   -1    0    0    0    0 -0.00000000000E+00 -0.00000000000E+00 -0.45593999997E+02  0.45594000000E+02  0.51100000000E-03 0. -1.
    9900012    2    1    2    0    0 -0.71895880271E+00  0.11152527556E+02  0.43637343377E+02  0.46142317525E+02  0.99999978459E+01 0.  0.
         12    1    1    2    0    0  0.71895880271E+00 -0.11152527556E+02 -0.43637343377E+02  0.45045682475E+02  0.00000000000E+00 0. -1.
         11    1    3    3    0    0  0.15698154870E+01  0.51144073363E+01  0.80259510748E+01  0.96455883170E+01  0.51100000000E-03 0. -1.
        -11    1    3    3    0    0  0.49206095502E-01  0.44082618475E+01  0.28441879101E+02  0.28781516305E+02  0.51100000000E-03 0.  1.
         12    1    3    3    0    0 -0.23379803852E+01  0.16298583724E+01  0.71695132010E+01  0.77152129028E+01  0.00000000000E+00 0. -1.
</event>
<event>
 7    1  0.2328810E-008  0.4614232E+02  0.7816164E-02  0.1320468E+00
        -11   -1    0    0    0    0  0.00000000000E+00  0.00000000000E+00  0.45593999997E+02  0.45594000000E+02  0.51100000000E-03 0.  1.
         11   -1    0    0    0    0 -0.00000000000E+00 -0.00000000000E+00 -0.45593999997E+02  0.45594000000E+02  0.51100000000E-03 0. -1.
    9900012    2    1    2    0    0 -0.32873159175E+02 -0.14472817397E+02  0.27184674031E+02  0.46142317191E+02  0.99999947986E+01 0.  0.
         12    1    1    2    0    0  0.32873159175E+02  0.14472817397E+02 -0.27184674031E+02  0.45045682809E+02  0.00000000000E+00 0. -1.
         11    1    3    3    0    0  0.57230428486E-01 -0.12234850866E+01  0.17416955622E+01  0.21292474660E+01  0.51100000000E-03 0. -1.
        -11    1    3    3    0    0 -0.15403448537E+02 -0.91319338580E+01  0.12964140136E+02  0.22107179208E+02  0.51100000000E-03 0.  1.
         12    1    3    3    0    0 -0.17526941067E+02 -0.41173984523E+01  0.12478838334E+02  0.21905890517E+02  0.00000000000E+00 0. -1.
</event>
<event>
 7    1  0.2328810E-008  0.4614232E+02  0.7816164E-02  0.1320468E+00
        -11   -1    0    0    0    0  0.00000000000E+00  0.00000000000E+00  0.45593999997E+02  0.45594000000E+02  0.51100000000E-03 0.  1.
         11   -1    0    0    0    0 -0.00000000000E+00 -0.00000000000E+00 -0.45593999997E+02  0.45594000000E+02  0.51100000000E-03 0. -1.
    9900012    2    1    2    0    0 -0.23331524305E+02 -0.17835078511E+01  0.38491202330E+02  0.46142316705E+02  0.99999903738E+01 0.  0.
         12    1    1    2    0    0  0.23331524305E+02  0.17835078511E+01 -0.38491202330E+02  0.45045683295E+02  0.00000000000E+00 0. -1.
         11    1    3    3    0    0 -0.14150632624E+02 -0.52964208955E+00  0.24520649544E+02  0.28315776145E+02  0.51100000000E-03 0. -1.
        -11    1    3    3    0    0 -0.50518273316E+01  0.21824275416E+01  0.87441517754E+01  0.10331705566E+02  0.51100000000E-03 0.  1.
         12    1    3    3    0    0 -0.41290643498E+01 -0.34362933031E+01  0.52264010107E+01  0.74948349945E+01  0.00000000000E+00 0. -1.
</event>
<event>
 7    1  0.2328810E-008  0.4614230E+02  0.7816164E-02  0.1320468E+00
        -11   -1    0    0    0    0  0.00000000000E+00  0.00000000000E+00  0.45593999997E+02  0.45594000000E+02  0.51100000000E-03 0.  1.
         11   -1    0    0    0    0 -0.00000000000E+00 -0.00000000000E+00 -0.45593999997E+02  0.45594000000E+02  0.51100000000E-03 0. -1.
    9900012    2    1    2    0    0  0.22696768919E+02 -0.28523516910E+02  0.26464705235E+02  0.46142301432E+02  0.99998511013E+01 0.  0.
         12    1    1    2    0    0 -0.22696768919E+02  0.28523516910E+02 -0.26464705235E+02  0.45045698568E+02  0.00000000000E+00 0. -1.
         11    1    3    3    0    0  0.30439587180E+01 -0.14096728094E+01  0.96105783571E+00  0.34894834190E+01  0.51100000000E-03 0. -1.
        -11    1    3    3    0    0  0.99097440327E+01 -0.16168100239E+02  0.18182246267E+02  0.26271744741E+02  0.51100000000E-03 0.  1.
        -12    1    3    3    0    0  0.97430661678E+01 -0.10945743861E+02  0.73214011321E+01  0.16381073273E+02  0.00000000000E+00 0.  1.
</event>
<event>
 7    1  0.2328810E-008  0.4614232E+02  0.7816164E-02  0.1320468E+00
        -11   -1    0    0    0    0  0.00000000000E+00  0.00000000000E+00  0.45593999997E+02  0.45594000000E+02  0.51100000000E-03 0.  1.
         11   -1    0    0    0    0 -0.00000000000E+00 -0.00000000000E+00 -0.45593999997E+02  0.45594000000E+02  0.51100000000E-03 0. -1.
    9900012    2    1    2    0    0  0.12558135141E+02 -0.85836557683E+01  0.42399617466E+02  0.46142318011E+02  0.10000002280E+02 0.  0.
         12    1    1    2    0    0 -0.12558135141E+02  0.85836557683E+01 -0.42399617466E+02  0.45045681989E+02  0.00000000000E+00 0. -1.
         11    1    3    3    0    0  0.43452220879E+01 -0.11553456805E+01  0.43842575590E+01  0.62799278053E+01  0.51100000000E-03 0. -1.
        -11    1    3    3    0    0  0.79429649162E+01 -0.46746489532E+01  0.29910875418E+02  0.31298618228E+02  0.51100000000E-03 0.  1.
         12    1    3    3    0    0  0.26994813685E+00 -0.27536611346E+01  0.81044844895E+01  0.85637719775E+01  0.00000000000E+00 0. -1.
</event>
<event>
 7    1  0.2328810E-008  0.4614232E+02  0.7816164E-02  0.1320468E+00
        -11   -1    0    0    0    0  0.00000000000E+00  0.00000000000E+00  0.45593999997E+02  0.45594000000E+02  0.51100000000E-03 0. -1.
         11   -1    0    0    0    0 -0.00000000000E+00 -0.00000000000E+00 -0.45593999997E+02  0.45594000000E+02  0.51100000000E-03 0.  1.
    9900012    2    1    2    0    0  0.16661115607E+01 -0.25680486117E+02 -0.36970937598E+02  0.46142317390E+02  0.99999966119E+01 0.  0.
         12    1    1    2    0    0 -0.16661115607E+01  0.25680486117E+02  0.36970937598E+02  0.45045682610E+02  0.00000000000E+00 0. -1.
         11    1    3    3    0    0  0.30924423556E+01 -0.12802484144E+02 -0.21619531721E+02  0.25315429131E+02  0.51100000000E-03 0. -1.
        -11    1    3    3    0    0 -0.18856733426E+01 -0.11100278046E+01 -0.34360813900E+01  0.40736447148E+01  0.51100000000E-03 0.  1.
        -12    1    3    3    0    0  0.45934254772E+00 -0.11767974169E+02 -0.11915324487E+02  0.16753243544E+02  0.00000000000E+00 0.  1.
</event>
<event>
 7    1  0.2328810E-008  0.4614232E+02  0.7816164E-02  0.1320468E+00
        -11   -1    0    0    0    0  0.00000000000E+00  0.00000000000E+00  0.45593999997E+02  0.45594000000E+02  0.51100000000E-03 0.  1.
         11   -1    0    0    0    0 -0.00000000000E+00 -0.00000000000E+00 -0.45593999997E+02  0.45594000000E+02  0.51100000000E-03 0. -1.
    9900012    2    1    2    0    0  0.37787602660E+02 -0.23345141766E+02 -0.74976628117E+01  0.46142317560E+02  0.99999981635E+01 0.  0.
         12    1    1    2    0    0 -0.37787602660E+02  0.23345141766E+02  0.74976628117E+01  0.45045682440E+02  0.00000000000E+00 0. -1.
         11    1    3    3    0    0  0.10941201655E+02 -0.36082321312E+01 -0.73831688461E+00  0.11544450825E+02  0.51100000000E-03 0. -1.
        -11    1    3    3    0    0 -0.21155482298E+00 -0.45165339341E+00  0.36165225165E+00  0.61606723915E+00  0.51100000000E-03 0.  1.
         12    1    3    3    0    0  0.27057955828E+02 -0.19285256241E+02 -0.71209981788E+01  0.33981799495E+02  0.00000000000E+00 0. -1.
</event>
<event>
 7    1  0.2328810E-008  0.4614232E+02  0.7816164E-02  0.1320468E+00
        -11   -1    0    0    0    0  0.00000000000E+00  0.00000000000E+00  0.45593999997E+02  0.45594000000E+02  0.51100000000E-03 0.  1.
         11   -1    0    0    0    0 -0.00000000000E+00 -0.00000000000E+00 -0.45593999997E+02  0.45594000000E+02  0.51100000000E-03 0. -1.
    9900012    2    1    2    0    0 -0.12947461266E+02 -0.34822271646E+02 -0.25473243724E+02  0.46142317613E+02  0.99999986532E+01 0.  0.
         12    1    1    2    0    0  0.12947461266E+02  0.34822271646E+02  0.25473243724E+02  0.45045682387E+02  0.00000000000E+00 0. -1.
         11    1    3    3    0    0 -0.56190523536E+01 -0.10589205519E+02 -0.95391902211E+01  0.15319959961E+02  0.51100000000E-03 0.  1.
        -11    1    3    3    0    0 -0.14934424376E+00  0.54379813009E+00 -0.54799818257E+00  0.78633477518E+00  0.51100000000E-03 0. -1.
         12    1    3    3    0    0 -0.71790646688E+01 -0.24776864258E+02 -0.15386055321E+02  0.30036022877E+02  0.00000000000E+00 0. -1.
</event>
<event>
 7    1  0.2328810E-008  0.4614232E+02  0.7816164E-02  0.1320468E+00
        -11   -1    0    0    0    0  0.00000000000E+00  0.00000000000E+00  0.45593999997E+02  0.45594000000E+02  0.51100000000E-03 0.  1.
         11   -1    0    0    0    0 -0.00000000000E+00 -0.00000000000E+00 -0.45593999997E+02  0.45594000000E+02  0.51100000000E-03 0. -1.
    9900012    2    1    2    0    0 -0.14665311473E+02 -0.23315515147E+00  0.42590935400E+02  0.46142317630E+02  0.99999988059E+01 0.  0.
         12    1    1    2    0    0  0.14665311473E+02  0.23315515147E+00 -0.42590935400E+02  0.45045682370E+02  0.00000000000E+00 0. -1.
         11    1    3    3    0    0 -0.45902193539E+01  0.24864562464E+01  0.13007781793E+02  0.14016239361E+02  0.51100000000E-03 0. -1.
        -11    1    3    3    0    0 -0.10122343233E+01  0.70877952442E+00  0.11884550829E+02  0.11948620649E+02  0.51100000000E-03 0.  1.
         12    1    3    3    0    0 -0.90628577958E+01 -0.34283909223E+01  0.17698602778E+02  0.20177457620E+02  0.00000000000E+00 0. -1.
</event>
<event>
 7    1  0.2328810E-008  0.4614232E+02  0.7816164E-02  0.1320468E+00
        -11   -1    0    0    0    0  0.00000000000E+00  0.00000000000E+00  0.45593999997E+02  0.45594000000E+02  0.51100000000E-03 0.  1.
         11   -1    0    0    0    0 -0.00000000000E+00 -0.00000000000E+00 -0.45593999997E+02  0.45594000000E+02  0.51100000000E-03 0. -1.
    9900012    2    1    2    0    0 -0.85716257765E+01 -0.27511245376E+02  0.34623291129E+02  0.46142315643E+02  0.99999806866E+01 0.  0.
         12    1    1    2    0    0  0.85716257765E+01  0.27511245376E+02 -0.34623291129E+02  0.45045684357E+02  0.00000000000E+00 0. -1.
         11    1    3    3    0    0 -0.18634120487E+01 -0.63928780831E+01  0.10913902807E+02  0.12784931341E+02  0.51100000000E-03 0. -1.
        -11    1    3    3    0    0 -0.88485482994E+00 -0.14076408255E+02  0.16578891336E+02  0.21766668914E+02  0.51100000000E-03 0.  1.
         12    1    3    3    0    0 -0.58233588978E+01 -0.70419590377E+01  0.71304969861E+01  0.11590715388E+02  0.00000000000E+00 0. -1.
</event>
<event>
 7    1  0.2328810E-008  0.4614232E+02  0.7816164E-02  0.1320468E+00
        -11   -1    0    0    0    0  0.00000000000E+00  0.00000000000E+00  0.45593999997E+02  0.45594000000E+02  0.51100000000E-03 0. -1.
         11   -1    0    0    0    0 -0.00000000000E+00 -0.00000000000E+00 -0.45593999997E+02  0.45594000000E+02  0.51100000000E-03 0.  1.
    9900012    2    1    2    0    0  0.17972377457E+02  0.12366907406E+01 -0.41286532652E+02  0.46142317256E+02  0.99999953919E+01 0.  0.
         12    1    1    2    0    0 -0.17972377457E+02 -0.12366907406E+01  0.41286532652E+02  0.45045682744E+02  0.00000000000E+00 0. -1.
         11    1    3    3    0    0 -0.28427276570E+00 -0.10286932313E+01 -0.55189569762E+01  0.56212015740E+01  0.51100000000E-03 0. -1.
        -11    1    3    3    0    0  0.74999690020E+01 -0.55351737973E+00 -0.18645597436E+02  0.20105079471E+02  0.51100000000E-03 0.  1.
        -12    1    3    3    0    0  0.10756681220E+02  0.28189013516E+01 -0.17121978240E+02  0.20416036211E+02  0.00000000000E+00 0.  1.
</event>
<event>
 7    1  0.2328810E-008  0.4614232E+02  0.7816164E-02  0.1320468E+00
        -11   -1    0    0    0    0  0.00000000000E+00  0.00000000000E+00  0.45593999997E+02  0.45594000000E+02  0.51100000000E-03 0. -1.
         11   -1    0    0    0    0 -0.00000000000E+00 -0.00000000000E+00 -0.45593999997E+02  0.45594000000E+02  0.51100000000E-03 0.  1.
    9900012    2    1    2    0    0 -0.32998817561E+02  0.29458196776E+02  0.85091825397E+01  0.46142317574E+02  0.99999982968E+01 0.  0.
         12    1    1    2    0    0  0.32998817561E+02 -0.29458196776E+02 -0.85091825397E+01  0.45045682426E+02  0.00000000000E+00 0. -1.
         11    1    3    3    0    0 -0.27489899312E+02  0.26002579333E+02  0.10066250111E+02  0.39155562666E+02  0.51100000000E-03 0.  1.
        -11    1    3    3    0    0 -0.52201269175E+00 -0.21790254452E+00  0.10143054184E+00  0.57468877246E+00  0.51100000000E-03 0. -1.
        -12    1    3    3    0    0 -0.49869055575E+01  0.36735199874E+01 -0.16584981135E+01  0.64120661358E+01  0.00000000000E+00 0.  1.
</event>
<event>
 7    1  0.2328810E-008  0.4614232E+02  0.7816164E-02  0.1320468E+00
        -11   -1    0    0    0    0  0.00000000000E+00  0.00000000000E+00  0.45593999997E+02  0.45594000000E+02  0.51100000000E-03 0. -1.
         11   -1    0    0    0    0 -0.00000000000E+00 -0.00000000000E+00 -0.45593999997E+02  0.45594000000E+02  0.51100000000E-03 0.  1.
    9900012    2    1    2    0    0  0.23211781241E+02  0.37323627559E+02  0.98627359425E+01  0.46142317379E+02  0.99999965152E+01 0.  0.
         12    1    1    2    0    0 -0.23211781241E+02 -0.37323627559E+02 -0.98627359425E+01  0.45045682621E+02  0.00000000000E+00 0. -1.
         11    1    3    3    0    0  0.93993169393E+01  0.97523059874E+01  0.47507764959E+01  0.14353553866E+02  0.51100000000E-03 0. -1.
        -11    1    3    3    0    0  0.11195336777E+02  0.23224945011E+02  0.20520735673E+01  0.25863964168E+02  0.51100000000E-03 0.  1.
        -12    1    3    3    0    0  0.26171275245E+01  0.43463765608E+01  0.30598858793E+01  0.59247993453E+01  0.00000000000E+00 0.  1.
</event>
<event>
 7    1  0.2328810E-008  0.4614232E+02  0.7816164E-02  0.1320468E+00
        -11   -1    0    0    0    0  0.00000000000E+00  0.00000000000E+00  0.45593999997E+02  0.45594000000E+02  0.51100000000E-03 0. -1.
         11   -1    0    0    0    0 -0.00000000000E+00 -0.00000000000E+00 -0.45593999997E+02  0.45594000000E+02  0.51100000000E-03 0.  1.
    9900012    2    1    2    0    0  0.11523101049E+02  0.43321309527E+02 -0.44267016107E+01  0.46142318697E+02  0.10000008536E+02 0.  0.
         12    1    1    2    0    0 -0.11523101049E+02 -0.43321309527E+02  0.44267016107E+01  0.45045681303E+02  0.00000000000E+00 0. -1.
         11    1    3    3    0    0  0.48354546746E+01  0.21835537340E+02  0.42255554735E+00  0.22368524008E+02  0.51100000000E-03 0. -1.
        -11    1    3    3    0    0  0.69501624755E+01  0.20922875469E+02 -0.35463644246E+01  0.22330431640E+02  0.51100000000E-03 0.  1.
         12    1    3    3    0    0 -0.26251610131E+00  0.56289671763E+00 -0.13028927334E+01  0.14433630496E+01  0.00000000000E+00 0. -1.
</event>
<event>
 7    1  0.2328810E-008  0.4614232E+02  0.7816164E-02  0.1320468E+00
        -11   -1    0    0    0    0  0.00000000000E+00  0.00000000000E+00  0.45593999997E+02  0.45594000000E+02  0.51100000000E-03 0.  1.
         11   -1    0    0    0    0 -0.00000000000E+00 -0.00000000000E+00 -0.45593999997E+02  0.45594000000E+02  0.51100000000E-03 0. -1.
    9900012    2    1    2    0    0 -0.38421274729E+02 -0.17639367080E+02  0.15549016865E+02  0.46142317097E+02  0.99999939424E+01 0.  0.
         12    1    1    2    0    0  0.38421274729E+02  0.17639367080E+02 -0.15549016865E+02  0.45045682903E+02  0.00000000000E+00 0. -1.
         11    1    3    3    0    0 -0.11377686133E+02 -0.62673511871E+01  0.76480596161E+00  0.13012162044E+02  0.51100000000E-03 0. -1.
        -11    1    3    3    0    0 -0.87228608431E+01 -0.16196413494E+01  0.50142045484E+01  0.10190867819E+02  0.51100000000E-03 0.  1.
        -12    1    3    3    0    0 -0.18320727753E+02 -0.97523745431E+01  0.97700063553E+01  0.22939287234E+02  0.00000000000E+00 0.  1.
</event>
<event>
 7    1  0.2328810E-008  0.4614232E+02  0.7816164E-02  0.1320468E+00
        -11   -1    0    0    0    0  0.00000000000E+00  0.00000000000E+00  0.45593999997E+02  0.45594000000E+02  0.51100000000E-03 0.  1.
         11   -1    0    0    0    0 -0.00000000000E+00 -0.00000000000E+00 -0.45593999997E+02  0.45594000000E+02  0.51100000000E-03 0. -1.
    9900012    2    1    2    0    0 -0.32894280763E+02  0.67093905819E+01  0.30034377419E+02  0.46142318122E+02  0.10000003289E+02 0.  0.
         12    1    1    2    0    0  0.32894280763E+02 -0.67093905819E+01 -0.30034377419E+02  0.45045681878E+02  0.00000000000E+00 0. -1.
         11    1    3    3    0    0 -0.13836886437E+02 -0.71686167251E+00  0.14329740224E+02  0.19932756259E+02  0.51100000000E-03 0. -1.
        -11    1    3    3    0    0 -0.18470486067E+02  0.76949429976E+01  0.15875124571E+02  0.25541937743E+02  0.51100000000E-03 0.  1.
         12    1    3    3    0    0 -0.58690825948E+00 -0.26869074325E+00 -0.17048737504E+00  0.66762412000E+00  0.00000000000E+00 0. -1.
</event>
<event>
 7    1  0.2328810E-008  0.4614232E+02  0.7816164E-02  0.1320468E+00
        -11   -1    0    0    0    0  0.00000000000E+00  0.00000000000E+00  0.45593999997E+02  0.45594000000E+02  0.51100000000E-03 0.  1.
         11   -1    0    0    0    0 -0.00000000000E+00 -0.00000000000E+00 -0.45593999997E+02  0.45594000000E+02  0.51100000000E-03 0. -1.
    9900012    2    1    2    0    0 -0.17078963776E+02 -0.40718810826E+02  0.89107199554E+01  0.46142317755E+02  0.99999999475E+01 0.  0.
         12    1    1    2    0    0  0.17078963776E+02  0.40718810826E+02 -0.89107199554E+01  0.45045682245E+02  0.00000000000E+00 0. -1.
         11    1    3    3    0    0 -0.51467184794E+00 -0.11690203795E+00 -0.86364552492E-01  0.53480117295E+00  0.51100000000E-03 0. -1.
        -11    1    3    3    0    0 -0.11613225777E+02 -0.35656590151E+02  0.59259776811E+01  0.37965466491E+02  0.51100000000E-03 0.  1.
        -12    1    3    3    0    0 -0.49510661511E+01 -0.49453186371E+01  0.30711068268E+01  0.76420500912E+01  0.00000000000E+00 0.  1.
</event>
<event>
 7    1  0.2328810E-008  0.4614232E+02  0.7816164E-02  0.1320468E+00
        -11   -1    0    0    0    0  0.00000000000E+00  0.00000000000E+00  0.45593999997E+02  0.45594000000E+02  0.51100000000E-03 0.  1.
         11   -1    0    0    0    0 -0.00000000000E+00 -0.00000000000E+00 -0.45593999997E+02  0.45594000000E+02  0.51100000000E-03 0. -1.
    9900012    2    1    2    0    0 -0.44216710808E+02  0.61455360860E+01 -0.60190069705E+01  0.46142316817E+02  0.99999913917E+01 0.  0.
         12    1    1    2    0    0  0.44216710808E+02 -0.61455360860E+01  0.60190069705E+01  0.45045683183E+02  0.00000000000E+00 0. -1.
         11    1    3    3    0    0 -0.14258685304E+01 -0.14626675580E+01  0.26107166404E+00  0.20592853435E+01  0.51100000000E-03 0. -1.
        -11    1    3    3    0    0 -0.29857792502E+02  0.45041110941E+01 -0.59638610509E+01  0.30778928324E+02  0.51100000000E-03 0.  1.
         12    1    3    3    0    0 -0.12933049776E+02  0.31040925499E+01 -0.31621758360E+00  0.13304103150E+02  0.00000000000E+00 0. -1.
</event>
<event>
 7    1  0.2328810E-008  0.4614232E+02  0.7816164E-02  0.1320468E+00
        -11   -1    0    0    0    0  0.00000000000E+00  0.00000000000E+00  0.45593999997E+02  0.45594000000E+02  0.51100000000E-03 0. -1.
         11   -1    0    0    0    0 -0.00000000000E+00 -0.00000000000E+00 -0.45593999997E+02  0.45594000000E+02  0.51100000000E-03 0.  1.
    9900012    2    1    2    0    0  0.56518792001E+01 -0.19072768827E+02 -0.40415332968E+02  0.46142318874E+02  0.10000010146E+02 0.  0.
         12    1    1    2    0    0 -0.56518792001E+01  0.19072768827E+02  0.40415332968E+02  0.45045681126E+02  0.00000000000E+00 0. -1.
         11    1    3    3    0    0 -0.13018762166E+01 -0.16198252271E+01 -0.13181372238E+01  0.24609350767E+01  0.51100000000E-03 0. -1.
        -11    1    3    3    0    0 -0.20979710420E+00 -0.56536577239E+01 -0.12255467911E+02  0.13498309318E+02  0.51100000000E-03 0.  1.
         12    1    3    3    0    0  0.71635525209E+01 -0.11799285876E+02 -0.26841727834E+02  0.30183074479E+02  0.00000000000E+00 0. -1.
</event>
<event>
 7    1  0.2328810E-008  0.4614232E+02  0.7816164E-02  0.1320468E+00
        -11   -1    0    0    0    0  0.00000000000E+00  0.00000000000E+00  0.45593999997E+02  0.45594000000E+02  0.51100000000E-03 0.  1.
         11   -1    0    0    0    0 -0.00000000000E+00 -0.00000000000E+00 -0.45593999997E+02  0.45594000000E+02  0.51100000000E-03 0. -1.
    9900012    2    1    2    0    0 -0.16055639912E+02  0.13278293432E+02  0.39937663290E+02  0.46142316539E+02  0.99999888541E+01 0.  0.
         12    1    1    2    0    0  0.16055639912E+02 -0.13278293432E+02 -0.39937663290E+02  0.45045683461E+02  0.00000000000E+00 0. -1.
         11    1    3    3    0    0 -0.57607587226E+01  0.25621023801E+01  0.99633293364E+01  0.11790616667E+02  0.51100000000E-03 0. -1.
        -11    1    3    3    0    0 -0.94558812330E+01  0.73124158163E+01  0.27710169373E+02  0.30178445982E+02  0.51100000000E-03 0.  1.
        -12    1    3    3    0    0 -0.83899995649E+00  0.34037752354E+01  0.22641645808E+01  0.41732538898E+01  0.00000000000E+00 0.  1.
</event>
<event>
 7    1  0.2328810E-008  0.4614232E+02  0.7816164E-02  0.1320468E+00
        -11   -1    0    0    0    0  0.00000000000E+00  0.00000000000E+00  0.45593999997E+02  0.45594000000E+02  0.51100000000E-03 0. -1.
         11   -1    0    0    0    0 -0.00000000000E+00 -0.00000000000E+00 -0.45593999997E+02  0.45594000000E+02  0.51100000000E-03 0.  1.
    9900012    2    1    2    0    0  0.12314993022E+02  0.43042608669E+02  0.49787846032E+01  0.46142317518E+02  0.99999977825E+01 0.  0.
         12    1    1    2    0    0 -0.12314993022E+02 -0.43042608669E+02 -0.49787846032E+01  0.45045682482E+02  0.00000000000E+00 0. -1.
         11    1    3    3    0    0  0.11715771181E+01  0.15178500025E+02  0.17108850781E+01  0.15319483802E+02  0.51100000000E-03 0. -1.
        -11    1    3    3    0    0  0.56387953877E+01  0.20268705137E+02  0.39947953200E+01  0.21414359931E+02  0.51100000000E-03 0.  1.
         12    1    3    3    0    0  0.55046205160E+01  0.75954035070E+01 -0.72689579496E+00  0.94084737847E+01  0.00000000000E+00 0. -1.
</event>
<event>
 7    1  0.2328810E-008  0.4614232E+02  0.7816164E-02  0.1320468E+00
        -11   -1    0    0    0    0  0.00000000000E+00  0.00000000000E+00  0.45593999997E+02  0.45594000000E+02  0.51100000000E-03 0.  1.
         11   -1    0    0    0    0 -0.00000000000E+00 -0.00000000000E+00 -0.45593999997E+02  0.45594000000E+02  0.51100000000E-03 0. -1.
    9900012    2    1    2    0    0  0.23507878827E+02  0.38205109394E+02 -0.41064135071E+01  0.46142318935E+02  0.10000010703E+02 0.  0.
         12    1    1    2    0    0 -0.23507878827E+02 -0.38205109394E+02  0.41064135071E+01  0.45045681065E+02  0.00000000000E+00 0. -1.
         11    1    3    3    0    0  0.59912347973E+01  0.63456866727E+01  0.22090533458E+01  0.90023636168E+01  0.51100000000E-03 0. -1.
        -11    1    3    3    0    0  0.14627864264E+02  0.24998571135E+02 -0.65374008109E+01  0.29692433066E+02  0.51100000000E-03 0.  1.
        -12    1    3    3    0    0  0.28887797653E+01  0.68608515859E+01  0.22193395800E+00  0.74475222522E+01  0.00000000000E+00 0.  1.
</event>
<event>
 7    1  0.2328810E-008  0.4614232E+02  0.7816164E-02  0.1320468E+00
        -11   -1    0    0    0    0  0.00000000000E+00  0.00000000000E+00  0.45593999997E+02  0.45594000000E+02  0.51100000000E-03 0.  1.
         11   -1    0    0    0    0 -0.00000000000E+00 -0.00000000000E+00 -0.45593999997E+02  0.45594000000E+02  0.51100000000E-03 0. -1.
    9900012    2    1    2    0    0 -0.40399625208E+02 -0.12405238563E+02  0.15591467163E+02  0.46142317532E+02  0.99999979095E+01 0.  0.
         12    1    1    2    0    0  0.40399625208E+02  0.12405238563E+02 -0.15591467163E+02  0.45045682468E+02  0.00000000000E+00 0. -1.
         11    1    3    3    0    0 -0.48625844373E+01  0.93724016502E-02  0.11377209346E+01  0.49939187457E+01  0.51100000000E-03 0. -1.
        -11    1    3    3    0    0 -0.16110847348E+02 -0.24681678266E+01  0.91387285533E+01  0.18686027253E+02  0.51100000000E-03 0.  1.
        -12    1    3    3    0    0 -0.19426193423E+02 -0.99464431379E+01  0.53150176747E+01  0.22462371533E+02  0.00000000000E+00 0.  1.
</event>
<event>
 7    1  0.2328810E-008  0.4614232E+02  0.7816164E-02  0.1320468E+00
        -11   -1    0    0    0    0  0.00000000000E+00  0.00000000000E+00  0.45593999997E+02  0.45594000000E+02  0.51100000000E-03 0. -1.
         11   -1    0    0    0    0 -0.00000000000E+00 -0.00000000000E+00 -0.45593999997E+02  0.45594000000E+02  0.51100000000E-03 0.  1.
    9900012    2    1    2    0    0 -0.48395141012E+01  0.44031359800E+02  0.81811915837E+01  0.46142318316E+02  0.10000005064E+02 0.  0.
         12    1    1    2    0    0  0.48395141012E+01 -0.44031359800E+02 -0.81811915837E+01  0.45045681684E+02  0.00000000000E+00 0. -1.
         11    1    3    3    0    0 -0.27745245674E+01  0.57051879032E+01 -0.63514318907E+00  0.63757793812E+01  0.51100000000E-03 0. -1.
        -11    1    3    3    0    0  0.10103380925E+01  0.18887715499E+02  0.23978638280E+01  0.19066104244E+02  0.51100000000E-03 0.  1.
         12    1    3    3    0    0 -0.30753276264E+01  0.19438456398E+02  0.64184709447E+01  0.20700434691E+02  0.00000000000E+00 0. -1.
</event>
<event>
 7    1  0.2328810E-008  0.4614232E+02  0.7816164E-02  0.1320468E+00
        -11   -1    0    0    0    0  0.00000000000E+00  0.00000000000E+00  0.45593999997E+02  0.45594000000E+02  0.51100000000E-03 0.  1.
         11   -1    0    0    0    0 -0.00000000000E+00 -0.00000000000E+00 -0.45593999997E+02  0.45594000000E+02  0.51100000000E-03 0. -1.
    9900012    2    1    2    0    0 -0.12625316718E+02 -0.41739763785E+02 -0.11291898121E+02  0.46142318006E+02  0.10000002237E+02 0.  0.
         12    1    1    2    0    0  0.12625316718E+02  0.41739763785E+02  0.11291898121E+02  0.45045681994E+02  0.00000000000E+00 0. -1.
         11    1    3    3    0    0 -0.36709903728E+01 -0.11345350867E+02 -0.49791540215E+01  0.12922272696E+02  0.51100000000E-03 0. -1.
        -11    1    3    3    0    0 -0.93385108859E+01 -0.22706690529E+02 -0.26466237892E+01  0.24694254354E+02  0.51100000000E-03 0.  1.
         12    1    3    3    0    0  0.38418454070E+00 -0.76877223894E+01 -0.36661203104E+01  0.85257909561E+01  0.00000000000E+00 0. -1.
</event>
<event>
 7    1  0.2328810E-008  0.4614232E+02  0.7816164E-02  0.1320468E+00
        -11   -1    0    0    0    0  0.00000000000E+00  0.00000000000E+00  0.45593999997E+02  0.45594000000E+02  0.51100000000E-03 0.  1.
         11   -1    0    0    0    0 -0.00000000000E+00 -0.00000000000E+00 -0.45593999997E+02  0.45594000000E+02  0.51100000000E-03 0. -1.
    9900012    2    1    2    0    0 -0.46683265940E+01  0.36593144711E+02  0.25850764089E+02  0.46142317444E+02  0.99999971040E+01 0.  0.
         12    1    1    2    0    0  0.46683265940E+01 -0.36593144711E+02 -0.25850764089E+02  0.45045682556E+02  0.00000000000E+00 0. -1.
         11    1    3    3    0    0 -0.96808572351E-01  0.49246094183E+01  0.74132969153E+01  0.89004562376E+01  0.51100000000E-03 0. -1.
        -11    1    3    3    0    0  0.47661525664E+00  0.11281882587E+01  0.25007168481E-01  0.12249883548E+01  0.51100000000E-03 0.  1.
        -12    1    3    3    0    0 -0.50481332783E+01  0.30540347034E+02  0.18412460005E+02  0.36016872851E+02  0.00000000000E+00 0.  1.
</event>
<event>
 7    1  0.2328810E-008  0.4614232E+02  0.7816164E-02  0.1320468E+00
        -11   -1    0    0    0    0  0.00000000000E+00  0.00000000000E+00  0.45593999997E+02  0.45594000000E+02  0.51100000000E-03 0.  1.
         11   -1    0    0    0    0 -0.00000000000E+00 -0.00000000000E+00 -0.45593999997E+02  0.45594000000E+02  0.51100000000E-03 0. -1.
    9900012    2    1    2    0    0 -0.81600081878E+01  0.12310203535E+02  0.42555689670E+02  0.46142316877E+02  0.99999919386E+01 0.  0.
         12    1    1    2    0    0  0.81600081878E+01 -0.12310203535E+02 -0.42555689670E+02  0.45045683123E+02  0.00000000000E+00 0. -1.
         11    1    3    3    0    0 -0.13807785624E+00  0.13387468234E+01  0.75334900255E+01  0.76527629505E+01  0.51100000000E-03 0. -1.
        -11    1    3    3    0    0 -0.27244050265E+01  0.42940426087E+01  0.24123090754E+02  0.24653289688E+02  0.51100000000E-03 0.  1.
         12    1    3    3    0    0 -0.52975253050E+01  0.66774141025E+01  0.10899108891E+02  0.13836264239E+02  0.00000000000E+00 0. -1.
</event>
<event>
 7    1  0.2328810E-008  0.4614232E+02  0.7816164E-02  0.1320468E+00
        -11   -1    0    0    0    0  0.00000000000E+00  0.00000000000E+00  0.45593999997E+02  0.45594000000E+02  0.51100000000E-03 0.  1.
         11   -1    0    0    0    0 -0.00000000000E+00 -0.00000000000E+00 -0.45593999997E+02  0.45594000000E+02  0.51100000000E-03 0. -1.
    9900012    2    1    2    0    0 -0.33697749811E+02 -0.86309218643E+01  0.28619615246E+02  0.46142317283E+02  0.99999956446E+01 0.  0.
         12    1    1    2    0    0  0.33697749811E+02  0.86309218643E+01 -0.28619615246E+02  0.45045682717E+02  0.00000000000E+00 0. -1.
         11    1    3    3    0    0 -0.11050665206E+02 -0.61408788329E+01  0.10138248585E+02  0.16205297868E+02  0.51100000000E-03 0. -1.
        -11    1    3    3    0    0 -0.70018806652E+01 -0.35270231402E+01  0.54363579158E+01  0.95404513903E+01  0.51100000000E-03 0.  1.
         12    1    3    3    0    0 -0.15645203940E+02  0.10369801089E+01  0.13045008745E+02  0.20396568026E+02  0.00000000000E+00 0. -1.
</event>
<event>
 7    1  0.2328810E-008  0.4614232E+02  0.7816164E-02  0.1320468E+00
        -11   -1    0    0    0    0  0.00000000000E+00  0.00000000000E+00  0.45593999997E+02  0.45594000000E+02  0.51100000000E-03 0.  1.
         11   -1    0    0    0    0 -0.00000000000E+00 -0.00000000000E+00 -0.45593999997E+02  0.45594000000E+02  0.51100000000E-03 0. -1.
    9900012    2    1    2    0    0  0.31259329002E+02  0.23777430841E+00  0.32433183660E+02  0.46142316649E+02  0.99999898549E+01 0.  0.
         12    1    1    2    0    0 -0.31259329002E+02 -0.23777430841E+00 -0.32433183660E+02  0.45045683351E+02  0.00000000000E+00 0. -1.
         11    1    3    3    0    0  0.16575491353E+02  0.22174886874E+01  0.17526332887E+02  0.24224708758E+02  0.51100000000E-03 0. -1.
        -11    1    3    3    0    0  0.96123904502E+01 -0.35846438546E+00  0.54256771581E+01  0.11043754786E+02  0.51100000000E-03 0.  1.
         12    1    3    3    0    0  0.50714471986E+01 -0.16212499935E+01  0.94811736154E+01  0.10873853105E+02  0.00000000000E+00 0. -1.
</event>
<event>
 7    1  0.2328810E-008  0.4614232E+02  0.7816164E-02  0.1320468E+00
        -11   -1    0    0    0    0  0.00000000000E+00  0.00000000000E+00  0.45593999997E+02  0.45594000000E+02  0.51100000000E-03 0.  1.
         11   -1    0    0    0    0 -0.00000000000E+00 -0.00000000000E+00 -0.45593999997E+02  0.45594000000E+02  0.51100000000E-03 0. -1.
    9900012    2    1    2    0    0 -0.18181230528E+01  0.36676238945E+02  0.26089487469E+02  0.46142318398E+02  0.10000005807E+02 0.  0.
         12    1    1    2    0    0  0.18181230528E+01 -0.36676238945E+02 -0.26089487469E+02  0.45045681602E+02  0.00000000000E+00 0. -1.
         11    1    3    3    0    0 -0.22801887543E+01  0.66838978929E+01  0.69981791512E+01  0.99422464006E+01  0.51100000000E-03 0. -1.
        -11    1    3    3    0    0 -0.29708524953E+01  0.15730904371E+02  0.11254199286E+02  0.19568963149E+02  0.51100000000E-03 0.  1.
         12    1    3    3    0    0  0.34329181968E+01  0.14261436681E+02  0.78371090311E+01  0.16631108848E+02  0.00000000000E+00 0. -1.
</event>
<event>
 7    1  0.2328810E-008  0.4614232E+02  0.7816164E-02  0.1320468E+00
        -11   -1    0    0    0    0  0.00000000000E+00  0.00000000000E+00  0.45593999997E+02  0.45594000000E+02  0.51100000000E-03 0.  1.
         11   -1    0    0    0    0 -0.00000000000E+00 -0.00000000000E+00 -0.45593999997E+02  0.45594000000E+02  0.51100000000E-03 0. -1.
    9900012    2    1    2    0    0  0.39128741579E+02 -0.78218248732E+01  0.20901532910E+02  0.46142318299E+02  0.10000004905E+02 0.  0.
         12    1    1    2    0    0 -0.39128741579E+02  0.78218248732E+01 -0.20901532910E+02  0.45045681701E+02  0.00000000000E+00 0. -1.
         11    1    3    3    0    0  0.13905222240E+02  0.60759249983E+00  0.89669183596E+01  0.16556871664E+02  0.51100000000E-03 0. -1.
        -11    1    3    3    0    0  0.13701707038E+02 -0.60367104407E+01  0.89558392723E+01  0.17446653147E+02  0.51100000000E-03 0.  1.
        -12    1    3    3    0    0  0.11521812302E+02 -0.23927069324E+01  0.29787752776E+01  0.12138793488E+02  0.00000000000E+00 0.  1.
</event>
<event>
 7    1  0.2328810E-008  0.4614232E+02  0.7816164E-02  0.1320468E+00
        -11   -1    0    0    0    0  0.00000000000E+00  0.00000000000E+00  0.45593999997E+02  0.45594000000E+02  0.51100000000E-03 0.  1.
         11   -1    0    0    0    0 -0.00000000000E+00 -0.00000000000E+00 -0.45593999997E+02  0.45594000000E+02  0.51100000000E-03 0. -1.
    9900012    2    1    2    0    0  0.54583795600E+01 -0.33604635866E+02  0.29496576652E+02  0.46142317706E+02  0.99999994975E+01 0.  0.
         12    1    1    2    0    0 -0.54583795600E+01  0.33604635866E+02 -0.29496576652E+02  0.45045682294E+02  0.00000000000E+00 0. -1.
         11    1    3    3    0    0  0.50285350277E+01 -0.81772234289E+01  0.81048742579E+01  0.12563523969E+02  0.51100000000E-03 0. -1.
        -11    1    3    3    0    0 -0.93951065671E+00 -0.22958998952E+02  0.19836250933E+02  0.30355809402E+02  0.51100000000E-03 0.  1.
        -12    1    3    3    0    0  0.13693551890E+01 -0.24684134858E+01  0.15554514615E+01  0.32229843344E+01  0.00000000000E+00 0.  1.
</event>
<event>
 7    1  0.2328810E-008  0.4614232E+02  0.7816164E-02  0.1320468E+00
        -11   -1    0    0    0    0  0.00000000000E+00  0.00000000000E+00  0.45593999997E+02  0.45594000000E+02  0.51100000000E-03 0. -1.
         11   -1    0    0    0    0 -0.00000000000E+00 -0.00000000000E+00 -0.45593999997E+02  0.45594000000E+02  0.51100000000E-03 0.  1.
    9900012    2    1    2    0    0 -0.43096424095E+02  0.10199216393E+02  0.82333307286E+01  0.46142317414E+02  0.99999968310E+01 0.  0.
         12    1    1    2    0    0  0.43096424095E+02 -0.10199216393E+02 -0.82333307286E+01  0.45045682586E+02  0.00000000000E+00 0. -1.
         11    1    3    3    0    0 -0.13460387629E+02  0.10739757719E+01  0.41311902543E+01  0.14120984111E+02  0.51100000000E-03 0. -1.
        -11    1    3    3    0    0 -0.78245315423E+01  0.56932762540E+01  0.11314486557E+01  0.97425286595E+01  0.51100000000E-03 0.  1.
         12    1    3    3    0    0 -0.21811504923E+02  0.34319643667E+01  0.29706918186E+01  0.22278804643E+02  0.00000000000E+00 0. -1.
</event>
<event>
 7    1  0.2328810E-008  0.4614232E+02  0.7816164E-02  0.1320468E+00
        -11   -1    0    0    0    0  0.00000000000E+00  0.00000000000E+00  0.45593999997E+02  0.45594000000E+02  0.51100000000E-03 0. -1.
         11   -1    0    0    0    0 -0.00000000000E+00 -0.00000000000E+00 -0.45593999997E+02  0.45594000000E+02  0.51100000000E-03 0.  1.
    9900012    2    1    2    0    0  0.38880711381E+02 -0.47217692100E+01 -0.22251035632E+02  0.46142318645E+02  0.10000008063E+02 0.  0.
         12    1    1    2    0    0 -0.38880711381E+02  0.47217692100E+01  0.22251035632E+02  0.45045681355E+02  0.00000000000E+00 0. -1.
         11    1    3    3    0    0  0.27734681203E+02 -0.12171653413E+01 -0.16290077455E+02  0.32187896121E+02  0.51100000000E-03 0. -1.
        -11    1    3    3    0    0  0.10546505985E+02 -0.30173155811E+01 -0.37187340409E+01  0.11582830610E+02  0.51100000000E-03 0.  1.
        -12    1    3    3    0    0  0.59952419316E+00 -0.48728828760E+00 -0.22422241365E+01  0.23715919151E+01  0.00000000000E+00 0.  1.
</event>
<event>
 7    1  0.2328810E-008  0.4614232E+02  0.7816164E-02  0.1320468E+00
        -11   -1    0    0    0    0  0.00000000000E+00  0.00000000000E+00  0.45593999997E+02  0.45594000000E+02  0.51100000000E-03 0.  1.
         11   -1    0    0    0    0 -0.00000000000E+00 -0.00000000000E+00 -0.45593999997E+02  0.45594000000E+02  0.51100000000E-03 0. -1.
    9900012    2    1    2    0    0 -0.11229970751E+02  0.12226921731E+02  0.41874856972E+02  0.46142317582E+02  0.99999983631E+01 0.  0.
         12    1    1    2    0    0  0.11229970751E+02 -0.12226921731E+02 -0.41874856972E+02  0.45045682418E+02  0.00000000000E+00 0. -1.
         11    1    3    3    0    0 -0.14562371348E+01  0.21937964339E+01  0.12228838460E+02  0.12509111069E+02  0.51100000000E-03 0. -1.
        -11    1    3    3    0    0 -0.72604462845E+01  0.91881431673E+01  0.28367376444E+02  0.30689478680E+02  0.51100000000E-03 0.  1.
         12    1    3    3    0    0 -0.25132873315E+01  0.84498213019E+00  0.12786420681E+01  0.29437278321E+01  0.00000000000E+00 0. -1.
</event>
<event>
 7    1  0.2328810E-008  0.4614232E+02  0.7816164E-02  0.1320468E+00
        -11   -1    0    0    0    0  0.00000000000E+00  0.00000000000E+00  0.45593999997E+02  0.45594000000E+02  0.51100000000E-03 0. -1.
         11   -1    0    0    0    0 -0.00000000000E+00 -0.00000000000E+00 -0.45593999997E+02  0.45594000000E+02  0.51100000000E-03 0.  1.
    9900012    2    1    2    0    0  0.42696506669E+02  0.75114035958E+01 -0.12235220132E+02  0.46142317883E+02  0.10000001108E+02 0.  0.
         12    1    1    2    0    0 -0.42696506669E+02 -0.75114035958E+01  0.12235220132E+02  0.45045682117E+02  0.00000000000E+00 0. -1.
         11    1    3    3    0    0  0.29377970749E+02  0.32821109937E+01 -0.83198584756E+01  0.30709240682E+02  0.51100000000E-03 0. -1.
        -11    1    3    3    0    0  0.12221454209E+02  0.22423875366E+01 -0.42641075140E+01  0.13136775023E+02  0.51100000000E-03 0.  1.
         12    1    3    3    0    0  0.10970817108E+01  0.19869050655E+01  0.34874585747E+00  0.22963021780E+01  0.00000000000E+00 0. -1.
</event>
<event>
 7    1  0.2328810E-008  0.4614232E+02  0.7816164E-02  0.1320468E+00
        -11   -1    0    0    0    0  0.00000000000E+00  0.00000000000E+00  0.45593999997E+02  0.45594000000E+02  0.51100000000E-03 0.  1.
         11   -1    0    0    0    0 -0.00000000000E+00 -0.00000000000E+00 -0.45593999997E+02  0.45594000000E+02  0.51100000000E-03 0. -1.
    9900012    2    1    2    0    0  0.10184374025E+02 -0.40790194379E+02  0.16172573347E+02  0.46142316961E+02  0.99999927060E+01 0.  0.
         12    1    1    2    0    0 -0.10184374025E+02  0.40790194379E+02 -0.16172573347E+02  0.45045683039E+02  0.00000000000E+00 0. -1.
         11    1    3    3    0    0  0.94090698414E+00 -0.25975762267E+01 -0.40100627705E+00  0.27916866769E+01  0.51100000000E-03 0. -1.
        -11    1    3    3    0    0  0.17340567142E+01 -0.19102722605E+02  0.51064832712E+01  0.19849361079E+02  0.51100000000E-03 0.  1.
        -12    1    3    3    0    0  0.75094103269E+01 -0.19089895548E+02  0.11467096353E+02  0.23501269205E+02  0.00000000000E+00 0.  1.
</event>
<event>
 7    1  0.2328810E-008  0.4614232E+02  0.7816164E-02  0.1320468E+00
        -11   -1    0    0    0    0  0.00000000000E+00  0.00000000000E+00  0.45593999997E+02  0.45594000000E+02  0.51100000000E-03 0.  1.
         11   -1    0    0    0    0 -0.00000000000E+00 -0.00000000000E+00 -0.45593999997E+02  0.45594000000E+02  0.51100000000E-03 0. -1.
    9900012    2    1    2    0    0  0.40118150343E+02  0.14167949289E+02  0.14795836547E+02  0.46142317042E+02  0.99999934444E+01 0.  0.
         12    1    1    2    0    0 -0.40118150343E+02 -0.14167949289E+02 -0.14795836547E+02  0.45045682958E+02  0.00000000000E+00 0. -1.
         11    1    3    3    0    0  0.77749224463E+01  0.36557404034E+01  0.50064189142E+01  0.99437461526E+01  0.51100000000E-03 0. -1.
        -11    1    3    3    0    0  0.13438601904E+02  0.85576968634E+00  0.21426620664E+01  0.13635225113E+02  0.51100000000E-03 0.  1.
        -12    1    3    3    0    0  0.18904625993E+02  0.96564391997E+01  0.76467555664E+01  0.22563345777E+02  0.00000000000E+00 0.  1.
</event>
<event>
 7    1  0.2328810E-008  0.4614232E+02  0.7816164E-02  0.1320468E+00
        -11   -1    0    0    0    0  0.00000000000E+00  0.00000000000E+00  0.45593999997E+02  0.45594000000E+02  0.51100000000E-03 0. -1.
         11   -1    0    0    0    0 -0.00000000000E+00 -0.00000000000E+00 -0.45593999997E+02  0.45594000000E+02  0.51100000000E-03 0.  1.
    9900012    2    1    2    0    0 -0.18072626271E+02  0.10953271952E+02 -0.39780894032E+02  0.46142317446E+02  0.99999971259E+01 0.  0.
         12    1    1    2    0    0  0.18072626271E+02 -0.10953271952E+02  0.39780894032E+02  0.45045682554E+02  0.00000000000E+00 0. -1.
         11    1    3    3    0    0 -0.68870187349E+01  0.33122106433E+01 -0.71061860026E+01  0.10435499325E+02  0.51100000000E-03 0.  1.
        -11    1    3    3    0    0 -0.37603600707E+01  0.13639857497E+00 -0.70213188336E+01  0.79660423585E+01  0.51100000000E-03 0. -1.
        -12    1    3    3    0    0 -0.74252474653E+01  0.75046627339E+01 -0.25653389196E+02  0.27740775762E+02  0.00000000000E+00 0.  1.
</event>
<event>
 7    1  0.2328810E-008  0.4614232E+02  0.7816164E-02  0.1320468E+00
        -11   -1    0    0    0    0  0.00000000000E+00  0.00000000000E+00  0.45593999997E+02  0.45594000000E+02  0.51100000000E-03 0.  1.
         11   -1    0    0    0    0 -0.00000000000E+00 -0.00000000000E+00 -0.45593999997E+02  0.45594000000E+02  0.51100000000E-03 0. -1.
    9900012    2    1    2    0    0 -0.14215987282E+02  0.15939976726E+02  0.39660261151E+02  0.46142317999E+02  0.10000002166E+02 0.  0.
         12    1    1    2    0    0  0.14215987282E+02 -0.15939976726E+02 -0.39660261151E+02  0.45045682001E+02  0.00000000000E+00 0. -1.
         11    1    3    3    0    0 -0.21650584410E+01  0.77894295859E+01  0.14076863711E+02  0.16233323244E+02  0.51100000000E-03 0. -1.
        -11    1    3    3    0    0 -0.83654381221E+00  0.15839836448E+01  0.70460709625E+01  0.72702081130E+01  0.51100000000E-03 0.  1.
        -12    1    3    3    0    0 -0.11214385029E+02  0.65665634950E+01  0.18537326477E+02  0.22638786642E+02  0.00000000000E+00 0.  1.
</event>
<event>
 7    1  0.2328810E-008  0.4614232E+02  0.7816164E-02  0.1320468E+00
        -11   -1    0    0    0    0  0.00000000000E+00  0.00000000000E+00  0.45593999997E+02  0.45594000000E+02  0.51100000000E-03 0.  1.
         11   -1    0    0    0    0 -0.00000000000E+00 -0.00000000000E+00 -0.45593999997E+02  0.45594000000E+02  0.51100000000E-03 0. -1.
    9900012    2    1    2    0    0  0.43554215077E+02 -0.10033621472E+02 -0.56098464951E+01  0.46142316650E+02  0.99999898662E+01 0.  0.
         12    1    1    2    0    0 -0.43554215077E+02  0.10033621472E+02  0.56098464951E+01  0.45045683350E+02  0.00000000000E+00 0. -1.
         11    1    3    3    0    0  0.89394251041E+01 -0.39881504591E+01 -0.39403729063E+01  0.10552023701E+02  0.51100000000E-03 0. -1.
        -11    1    3    3    0    0  0.32142103160E+02 -0.60088924745E+01 -0.29014979321E+01  0.32827431743E+02  0.51100000000E-03 0.  1.
        -12    1    3    3    0    0  0.24726868127E+01 -0.36578537917E-01  0.12320243434E+01  0.27628612064E+01  0.00000000000E+00 0.  1.
</event>
<event>
 7    1  0.2328810E-008  0.4614232E+02  0.7816164E-02  0.1320468E+00
        -11   -1    0    0    0    0  0.00000000000E+00  0.00000000000E+00  0.45593999997E+02  0.45594000000E+02  0.51100000000E-03 0. -1.
         11   -1    0    0    0    0 -0.00000000000E+00 -0.00000000000E+00 -0.45593999997E+02  0.45594000000E+02  0.51100000000E-03 0.  1.
    9900012    2    1    2    0    0  0.37821093672E+02 -0.15294174243E+02 -0.19098863888E+02  0.46142317698E+02  0.99999994201E+01 0.  0.
         12    1    1    2    0    0 -0.37821093672E+02  0.15294174243E+02  0.19098863888E+02  0.45045682302E+02  0.00000000000E+00 0. -1.
         11    1    3    3    0    0  0.10415132913E+02 -0.31271001089E+01 -0.75210989555E+01  0.13221977101E+02  0.51100000000E-03 0. -1.
        -11    1    3    3    0    0  0.61385344297E+01 -0.50875726288E+01 -0.55336308820E+01  0.97049508601E+01  0.51100000000E-03 0.  1.
        -12    1    3    3    0    0  0.21267426329E+02 -0.70795015049E+01 -0.60441340506E+01  0.23215389737E+02  0.00000000000E+00 0.  1.
</event>
<event>
 7    1  0.2328810E-008  0.4614232E+02  0.7816164E-02  0.1320468E+00
        -11   -1    0    0    0    0  0.00000000000E+00  0.00000000000E+00  0.45593999997E+02  0.45594000000E+02  0.51100000000E-03 0.  1.
         11   -1    0    0    0    0 -0.00000000000E+00 -0.00000000000E+00 -0.45593999997E+02  0.45594000000E+02  0.51100000000E-03 0. -1.
    9900012    2    1    2    0    0 -0.39733879747E+02  0.20765197398E+02 -0.43747881402E+01  0.46142318808E+02  0.10000009549E+02 0.  0.
         12    1    1    2    0    0  0.39733879747E+02 -0.20765197398E+02  0.43747881402E+01  0.45045681192E+02  0.00000000000E+00 0. -1.
         11    1    3    3    0    0 -0.13598249264E+02  0.10706787566E+02 -0.35330282688E+01  0.17664370129E+02  0.51100000000E-03 0. -1.
        -11    1    3    3    0    0 -0.78001830803E+01  0.12102575928E+01 -0.18019322598E+01  0.80965757983E+01  0.51100000000E-03 0.  1.
         12    1    3    3    0    0 -0.18335447403E+02  0.88481522395E+01  0.96017238839E+00  0.20381372881E+02  0.00000000000E+00 0. -1.
</event>
<event>
 7    1  0.2328810E-008  0.4614232E+02  0.7816164E-02  0.1320468E+00
        -11   -1    0    0    0    0  0.00000000000E+00  0.00000000000E+00  0.45593999997E+02  0.45594000000E+02  0.51100000000E-03 0.  1.
         11   -1    0    0    0    0 -0.00000000000E+00 -0.00000000000E+00 -0.45593999997E+02  0.45594000000E+02  0.51100000000E-03 0. -1.
    9900012    2    1    2    0    0 -0.22991119671E+02  0.35927506336E+02 -0.14482270150E+02  0.46142318254E+02  0.10000004497E+02 0.  0.
         12    1    1    2    0    0  0.22991119671E+02 -0.35927506336E+02  0.14482270150E+02  0.45045681746E+02  0.00000000000E+00 0. -1.
         11    1    3    3    0    0 -0.19432310196E+01  0.67646209911E+00  0.33931849412E+00  0.20853980600E+01  0.51100000000E-03 0. -1.
        -11    1    3    3    0    0 -0.13594864512E+02  0.19159297640E+02 -0.59828007556E+01  0.24242378849E+02  0.51100000000E-03 0.  1.
        -12    1    3    3    0    0 -0.74530241403E+01  0.16091746597E+02 -0.88387878883E+01  0.19814541345E+02  0.00000000000E+00 0.  1.
</event>
<event>
 7    1  0.2328810E-008  0.4614232E+02  0.7816164E-02  0.1320468E+00
        -11   -1    0    0    0    0  0.00000000000E+00  0.00000000000E+00  0.45593999997E+02  0.45594000000E+02  0.51100000000E-03 0. -1.
         11   -1    0    0    0    0 -0.00000000000E+00 -0.00000000000E+00 -0.45593999997E+02  0.45594000000E+02  0.51100000000E-03 0.  1.
    9900012    2    1    2    0    0 -0.25047951195E+00 -0.41326700761E+01 -0.44855009061E+02  0.46142317190E+02  0.99999947950E+01 0.  0.
         12    1    1    2    0    0  0.25047951195E+00  0.41326700761E+01  0.44855009061E+02  0.45045682810E+02  0.00000000000E+00 0. -1.
         11    1    3    3    0    0 -0.14817080709E+01  0.20969678814E+01 -0.13786890647E+02  0.14023946915E+02  0.51100000000E-03 0.  1.
        -11    1    3    3    0    0 -0.91953416160E+00 -0.82592511080E+00 -0.14622125268E+02  0.14674271463E+02  0.51100000000E-03 0. -1.
        -12    1    3    3    0    0  0.21507627206E+01 -0.54037128467E+01 -0.16445993146E+02  0.17444098812E+02  0.00000000000E+00 0.  1.
</event>
<event>
 7    1  0.2328810E-008  0.4614232E+02  0.7816164E-02  0.1320468E+00
        -11   -1    0    0    0    0  0.00000000000E+00  0.00000000000E+00  0.45593999997E+02  0.45594000000E+02  0.51100000000E-03 0.  1.
         11   -1    0    0    0    0 -0.00000000000E+00 -0.00000000000E+00 -0.45593999997E+02  0.45594000000E+02  0.51100000000E-03 0. -1.
    9900012    2    1    2    0    0 -0.21380805377E+02 -0.22967083538E+02  0.32318536878E+02  0.46142316625E+02  0.99999896405E+01 0.  0.
         12    1    1    2    0    0  0.21380805377E+02  0.22967083538E+02 -0.32318536878E+02  0.45045683375E+02  0.00000000000E+00 0. -1.
         11    1    3    3    0    0 -0.31721688363E+01 -0.77214158221E+01  0.88704819462E+01  0.12180655469E+02  0.51100000000E-03 0.  1.
        -11    1    3    3    0    0 -0.62733329982E+01 -0.73217565093E+01  0.58816471688E+01  0.11294095757E+02  0.51100000000E-03 0. -1.
         12    1    3    3    0    0 -0.11935303542E+02 -0.79239112064E+01  0.17566407763E+02  0.22667565400E+02  0.00000000000E+00 0. -1.
</event>
<event>
 7    1  0.2328810E-008  0.4614232E+02  0.7816164E-02  0.1320468E+00
        -11   -1    0    0    0    0  0.00000000000E+00  0.00000000000E+00  0.45593999997E+02  0.45594000000E+02  0.51100000000E-03 0.  1.
         11   -1    0    0    0    0 -0.00000000000E+00 -0.00000000000E+00 -0.45593999997E+02  0.45594000000E+02  0.51100000000E-03 0. -1.
    9900012    2    1    2    0    0 -0.38570803151E+02 -0.59197328286E+01  0.22502515780E+02  0.46142319753E+02  0.10000018165E+02 0.  0.
         12    1    1    2    0    0  0.38570803151E+02  0.59197328286E+01 -0.22502515780E+02  0.45045680247E+02  0.00000000000E+00 0. -1.
         11    1    3    3    0    0 -0.16655464585E+02 -0.52076114497E+01  0.78906479263E+01  0.19151659002E+02  0.51100000000E-03 0.  1.
        -11    1    3    3    0    0 -0.90498991191E+01  0.20467470519E+01  0.40757091008E+01  0.10134162644E+02  0.51100000000E-03 0. -1.
        -12    1    3    3    0    0 -0.12865439447E+02 -0.27588684308E+01  0.10536158753E+02  0.16856498107E+02  0.00000000000E+00 0.  1.
</event>
<event>
 7    1  0.2328810E-008  0.4614232E+02  0.7816164E-02  0.1320468E+00
        -11   -1    0    0    0    0  0.00000000000E+00  0.00000000000E+00  0.45593999997E+02  0.45594000000E+02  0.51100000000E-03 0.  1.
         11   -1    0    0    0    0 -0.00000000000E+00 -0.00000000000E+00 -0.45593999997E+02  0.45594000000E+02  0.51100000000E-03 0. -1.
    9900012    2    1    2    0    0  0.38146675797E+02  0.20182704820E+02  0.12907481191E+02  0.46142317423E+02  0.99999969135E+01 0.  0.
         12    1    1    2    0    0 -0.38146675797E+02 -0.20182704820E+02 -0.12907481191E+02  0.45045682577E+02  0.00000000000E+00 0. -1.
         11    1    3    3    0    0 -0.16045155502E+00 -0.65594863151E+00  0.18931196879E+00  0.70132203113E+00  0.51100000000E-03 0. -1.
        -11    1    3    3    0    0  0.13278737437E+02  0.67159642586E+01  0.39690664547E+01  0.15400731562E+02  0.51100000000E-03 0.  1.
         12    1    3    3    0    0  0.25028389915E+02  0.14122689193E+02  0.87491027670E+01  0.30040263830E+02  0.00000000000E+00 0. -1.
</event>
<event>
 7    1  0.2328810E-008  0.4614232E+02  0.7816164E-02  0.1320468E+00
        -11   -1    0    0    0    0  0.00000000000E+00  0.00000000000E+00  0.45593999997E+02  0.45594000000E+02  0.51100000000E-03 0. -1.
         11   -1    0    0    0    0 -0.00000000000E+00 -0.00000000000E+00 -0.45593999997E+02  0.45594000000E+02  0.51100000000E-03 0.  1.
    9900012    2    1    2    0    0 -0.39113749361E+02  0.16340010948E+02 -0.15239164630E+02  0.46142317793E+02  0.10000000289E+02 0.  0.
         12    1    1    2    0    0  0.39113749361E+02 -0.16340010948E+02  0.15239164630E+02  0.45045682207E+02  0.00000000000E+00 0. -1.
         11    1    3    3    0    0 -0.54989622284E+01  0.53513275329E+01 -0.38969485671E+01  0.86058991598E+01  0.51100000000E-03 0. -1.
        -11    1    3    3    0    0 -0.22830797679E+02  0.10072614538E+02 -0.81973077109E+01  0.26265923556E+02  0.51100000000E-03 0.  1.
         12    1    3    3    0    0 -0.10783989454E+02  0.91606887737E+00 -0.31449083516E+01  0.11270495077E+02  0.00000000000E+00 0. -1.
</event>
<event>
 7    1  0.2328810E-008  0.4614232E+02  0.7816164E-02  0.1320468E+00
        -11   -1    0    0    0    0  0.00000000000E+00  0.00000000000E+00  0.45593999997E+02  0.45594000000E+02  0.51100000000E-03 0.  1.
         11   -1    0    0    0    0 -0.00000000000E+00 -0.00000000000E+00 -0.45593999997E+02  0.45594000000E+02  0.51100000000E-03 0. -1.
    9900012    2    1    2    0    0  0.14594208789E+02  0.33648053344E+02  0.26152074960E+02  0.46142318201E+02  0.10000004016E+02 0.  0.
         12    1    1    2    0    0 -0.14594208789E+02 -0.33648053344E+02 -0.26152074960E+02  0.45045681799E+02  0.00000000000E+00 0. -1.
         11    1    3    3    0    0  0.92502864797E+01  0.11210304230E+02  0.88077073678E+01  0.16994541189E+02  0.51100000000E-03 0. -1.
        -11    1    3    3    0    0  0.28368008460E+01  0.87802945457E+01  0.92972852922E+01  0.13098874967E+02  0.51100000000E-03 0.  1.
         12    1    3    3    0    0  0.25071214634E+01  0.13657454568E+02  0.80470822996E+01  0.16048902045E+02  0.00000000000E+00 0. -1.
</event>
<event>
 7    1  0.2328810E-008  0.4614232E+02  0.7816164E-02  0.1320468E+00
        -11   -1    0    0    0    0  0.00000000000E+00  0.00000000000E+00  0.45593999997E+02  0.45594000000E+02  0.51100000000E-03 0.  1.
         11   -1    0    0    0    0 -0.00000000000E+00 -0.00000000000E+00 -0.45593999997E+02  0.45594000000E+02  0.51100000000E-03 0. -1.
    9900012    2    1    2    0    0 -0.20275371613E+02  0.24230076164E+02  0.32108039418E+02  0.46142317851E+02  0.10000000823E+02 0.  0.
         12    1    1    2    0    0  0.20275371613E+02 -0.24230076164E+02 -0.32108039418E+02  0.45045682149E+02  0.00000000000E+00 0. -1.
         11    1    3    3    0    0 -0.11093124426E+01  0.26903254644E+00  0.11943944498E+00  0.11477014631E+01  0.51100000000E-03 0. -1.
        -11    1    3    3    0    0 -0.41860555877E+01  0.43143845362E+01  0.11177466173E+02  0.12691443008E+02  0.51100000000E-03 0.  1.
        -12    1    3    3    0    0 -0.14980003583E+02  0.19646659082E+02  0.20811133800E+02  0.32303173380E+02  0.00000000000E+00 0.  1.
</event>
<event>
 7    1  0.2328810E-008  0.4614232E+02  0.7816164E-02  0.1320468E+00
        -11   -1    0    0    0    0  0.00000000000E+00  0.00000000000E+00  0.45593999997E+02  0.45594000000E+02  0.51100000000E-03 0. -1.
         11   -1    0    0    0    0 -0.00000000000E+00 -0.00000000000E+00 -0.45593999997E+02  0.45594000000E+02  0.51100000000E-03 0.  1.
    9900012    2    1    2    0    0 -0.65940774437E+01 -0.39948296653E+02 -0.19742472176E+02  0.46142317961E+02  0.10000001818E+02 0.  0.
         12    1    1    2    0    0  0.65940774437E+01  0.39948296653E+02  0.19742472176E+02  0.45045682039E+02  0.00000000000E+00 0. -1.
         11    1    3    3    0    0 -0.55712820758E+01 -0.15525477788E+02 -0.96049679769E+01  0.19087562825E+02  0.51100000000E-03 0. -1.
        -11    1    3    3    0    0 -0.25449797740E+01 -0.16058013039E+02 -0.45578758306E+01  0.16885228371E+02  0.51100000000E-03 0.  1.
        -12    1    3    3    0    0  0.15221844061E+01 -0.83648058264E+01 -0.55796283680E+01  0.10169526764E+02  0.00000000000E+00 0.  1.
</event>
<event>
 7    1  0.2328810E-008  0.4614232E+02  0.7816164E-02  0.1320468E+00
        -11   -1    0    0    0    0  0.00000000000E+00  0.00000000000E+00  0.45593999997E+02  0.45594000000E+02  0.51100000000E-03 0. -1.
         11   -1    0    0    0    0 -0.00000000000E+00 -0.00000000000E+00 -0.45593999997E+02  0.45594000000E+02  0.51100000000E-03 0.  1.
    9900012    2    1    2    0    0 -0.10779153375E+02 -0.11907632024E+02 -0.42084815002E+02  0.46142317614E+02  0.99999986562E+01 0.  0.
         12    1    1    2    0    0  0.10779153375E+02  0.11907632024E+02  0.42084815002E+02  0.45045682386E+02  0.00000000000E+00 0. -1.
         11    1    3    3    0    0 -0.75303286676E+01 -0.28155237835E+01 -0.23456928987E+02  0.24796381626E+02  0.51100000000E-03 0. -1.
        -11    1    3    3    0    0 -0.27606511957E+01 -0.41371446350E+01 -0.12481371792E+02  0.13435840236E+02  0.51100000000E-03 0.  1.
         12    1    3    3    0    0 -0.48817351190E+00 -0.49549636057E+01 -0.61465142229E+01  0.79100957519E+01  0.00000000000E+00 0. -1.
</event>
<event>
 7    1  0.2328810E-008  0.4614232E+02  0.7816164E-02  0.1320468E+00
        -11   -1    0    0    0    0  0.00000000000E+00  0.00000000000E+00  0.45593999997E+02  0.45594000000E+02  0.51100000000E-03 0. -1.
         11   -1    0    0    0    0 -0.00000000000E+00 -0.00000000000E+00 -0.45593999997E+02  0.45594000000E+02  0.51100000000E-03 0.  1.
    9900012    2    1    2    0    0 -0.20422133119E+02  0.19299498029E+02 -0.35207660923E+02  0.46142317266E+02  0.99999954880E+01 0.  0.
         12    1    1    2    0    0  0.20422133119E+02 -0.19299498029E+02  0.35207660923E+02  0.45045682734E+02  0.00000000000E+00 0. -1.
         11    1    3    3    0    0 -0.39634616933E+01  0.90526518788E+01 -0.94622038780E+01  0.13681843338E+02  0.51100000000E-03 0. -1.
        -11    1    3    3    0    0 -0.34015909657E+01  0.40487795795E+01 -0.61417859385E+01  0.81046265773E+01  0.51100000000E-03 0.  1.
        -12    1    3    3    0    0 -0.13057080460E+02  0.61980665704E+01 -0.19603671106E+02  0.24355847351E+02  0.00000000000E+00 0.  1.
</event>
<event>
 7    1  0.2328810E-008  0.4614232E+02  0.7816164E-02  0.1320468E+00
        -11   -1    0    0    0    0  0.00000000000E+00  0.00000000000E+00  0.45593999997E+02  0.45594000000E+02  0.51100000000E-03 0.  1.
         11   -1    0    0    0    0 -0.00000000000E+00 -0.00000000000E+00 -0.45593999997E+02  0.45594000000E+02  0.51100000000E-03 0. -1.
    9900012    2    1    2    0    0 -0.70757457394E+00  0.19336993591E+02  0.40677924761E+02  0.46142317123E+02  0.99999941850E+01 0.  0.
         12    1    1    2    0    0  0.70757457394E+00 -0.19336993591E+02 -0.40677924761E+02  0.45045682877E+02  0.00000000000E+00 0. -1.
         11    1    3    3    0    0  0.30845641076E+01  0.11736330447E+02  0.20810272116E+02  0.24089902737E+02  0.51100000000E-03 0. -1.
        -11    1    3    3    0    0 -0.13312245997E+01  0.55934472766E+01  0.85938898105E+01  0.10339910721E+02  0.51100000000E-03 0.  1.
         12    1    3    3    0    0 -0.24609140819E+01  0.20072158677E+01  0.11273762835E+02  0.11712503666E+02  0.00000000000E+00 0. -1.
</event>
<event>
 7    1  0.2328810E-008  0.4614232E+02  0.7816164E-02  0.1320468E+00
        -11   -1    0    0    0    0  0.00000000000E+00  0.00000000000E+00  0.45593999997E+02  0.45594000000E+02  0.51100000000E-03 0.  1.
         11   -1    0    0    0    0 -0.00000000000E+00 -0.00000000000E+00 -0.45593999997E+02  0.45594000000E+02  0.51100000000E-03 0. -1.
    9900012    2    1    2    0    0 -0.24164715868E+02  0.30558577162E+02  0.22613123155E+02  0.46142317965E+02  0.10000001863E+02 0.  0.
         12    1    1    2    0    0  0.24164715868E+02 -0.30558577162E+02 -0.22613123155E+02  0.45045682035E+02  0.00000000000E+00 0. -1.
         11    1    3    3    0    0 -0.36916146006E+01  0.62668946324E+01  0.80697319188E+00  0.73180046930E+01  0.51100000000E-03 0. -1.
        -11    1    3    3    0    0 -0.67579276654E+01  0.96772632212E+01  0.56743261069E+01  0.13096449397E+02  0.51100000000E-03 0.  1.
        -12    1    3    3    0    0 -0.13715173602E+02  0.14614419308E+02  0.16131823857E+02  0.25727863875E+02  0.00000000000E+00 0.  1.
</event>
<event>
 7    1  0.2328810E-008  0.4614232E+02  0.7816164E-02  0.1320468E+00
        -11   -1    0    0    0    0  0.00000000000E+00  0.00000000000E+00  0.45593999997E+02  0.45594000000E+02  0.51100000000E-03 0. -1.
         11   -1    0    0    0    0 -0.00000000000E+00 -0.00000000000E+00 -0.45593999997E+02  0.45594000000E+02  0.51100000000E-03 0.  1.
    9900012    2    1    2    0    0 -0.12606001679E+02  0.43180405738E+02  0.23779742715E+01  0.46142317858E+02  0.10000000882E+02 0.  0.
         12    1    1    2    0    0  0.12606001679E+02 -0.43180405738E+02 -0.23779742715E+01  0.45045682142E+02  0.00000000000E+00 0. -1.
         11    1    3    3    0    0 -0.11545138818E+01  0.35471453744E+01 -0.94458173080E+00  0.38480355401E+01  0.51100000000E-03 0. -1.
        -11    1    3    3    0    0 -0.12109640563E+02  0.27935395667E+02  0.23713094601E+01  0.30539365325E+02  0.51100000000E-03 0.  1.
         12    1    3    3    0    0  0.65815276589E+00  0.11697864697E+02  0.95124654226E+00  0.11754916993E+02  0.00000000000E+00 0. -1.
</event>
<event>
 7    1  0.2328810E-008  0.4614232E+02  0.7816164E-02  0.1320468E+00
        -11   -1    0    0    0    0  0.00000000000E+00  0.00000000000E+00  0.45593999997E+02  0.45594000000E+02  0.51100000000E-03 0.  1.
         11   -1    0    0    0    0 -0.00000000000E+00 -0.00000000000E+00 -0.45593999997E+02  0.45594000000E+02  0.51100000000E-03 0. -1.
    9900012    2    1    2    0    0  0.25067499726E+02 -0.31980601346E+02  0.19441580788E+02  0.46142317981E+02  0.10000002007E+02 0.  0.
         12    1    1    2    0    0 -0.25067499726E+02  0.31980601346E+02 -0.19441580788E+02  0.45045682019E+02  0.00000000000E+00 0. -1.
         11    1    3    3    0    0  0.15108950715E+02 -0.18887226119E+02  0.10976825952E+02  0.26561220048E+02  0.51100000000E-03 0. -1.
        -11    1    3    3    0    0  0.60746236646E+01 -0.51408720021E+01  0.70237904238E+01  0.10614294597E+02  0.51100000000E-03 0.  1.
         12    1    3    3    0    0  0.38839253472E+01 -0.79525032249E+01  0.14409644120E+01  0.89668033368E+01  0.00000000000E+00 0. -1.
</event>
<event>
 7    1  0.2328810E-008  0.4614232E+02  0.7816164E-02  0.1320468E+00
        -11   -1    0    0    0    0  0.00000000000E+00  0.00000000000E+00  0.45593999997E+02  0.45594000000E+02  0.51100000000E-03 0. -1.
         11   -1    0    0    0    0 -0.00000000000E+00 -0.00000000000E+00 -0.45593999997E+02  0.45594000000E+02  0.51100000000E-03 0.  1.
    9900012    2    1    2    0    0  0.37752047884E+02  0.49982834399E+01 -0.24060620876E+02  0.46142318368E+02  0.10000005532E+02 0.  0.
         12    1    1    2    0    0 -0.37752047884E+02 -0.49982834399E+01  0.24060620876E+02  0.45045681632E+02  0.00000000000E+00 0. -1.
         11    1    3    3    0    0  0.40876342883E+01  0.11425780089E+01 -0.13294469459E+00  0.42464000206E+01  0.51100000000E-03 0. -1.
        -11    1    3    3    0    0  0.16772783835E+02  0.18786258059E+01 -0.83382992791E+01  0.18825056378E+02  0.51100000000E-03 0.  1.
         12    1    3    3    0    0  0.16891629760E+02  0.19770796251E+01 -0.15589376902E+02  0.23070861969E+02  0.00000000000E+00 0. -1.
</event>
<event>
 7    1  0.2328810E-008  0.4614232E+02  0.7816164E-02  0.1320468E+00
        -11   -1    0    0    0    0  0.00000000000E+00  0.00000000000E+00  0.45593999997E+02  0.45594000000E+02  0.51100000000E-03 0.  1.
         11   -1    0    0    0    0 -0.00000000000E+00 -0.00000000000E+00 -0.45593999997E+02  0.45594000000E+02  0.51100000000E-03 0. -1.
    9900012    2    1    2    0    0  0.34984717347E+02  0.28476080469E+01  0.28232502101E+02  0.46142317695E+02  0.99999993973E+01 0.  0.
         12    1    1    2    0    0 -0.34984717347E+02 -0.28476080469E+01 -0.28232502101E+02  0.45045682305E+02  0.00000000000E+00 0. -1.
         11    1    3    3    0    0  0.11311164847E+02  0.39103415970E+01  0.10106981551E+02  0.15664746980E+02  0.51100000000E-03 0. -1.
        -11    1    3    3    0    0  0.14925196584E+02 -0.87293377339E+00  0.15019671137E+02  0.21192310581E+02  0.51100000000E-03 0.  1.
        -12    1    3    3    0    0  0.87483559158E+01 -0.18979977672E+00  0.31058494135E+01  0.92852601344E+01  0.00000000000E+00 0.  1.
</event>
<event>
 7    1  0.2328810E-008  0.4614232E+02  0.7816164E-02  0.1320468E+00
        -11   -1    0    0    0    0  0.00000000000E+00  0.00000000000E+00  0.45593999997E+02  0.45594000000E+02  0.51100000000E-03 0.  1.
         11   -1    0    0    0    0 -0.00000000000E+00 -0.00000000000E+00 -0.45593999997E+02  0.45594000000E+02  0.51100000000E-03 0. -1.
    9900012    2    1    2    0    0 -0.86101753879E+01 -0.12996216060E+01  0.44196033863E+02  0.46142317124E+02  0.99999941924E+01 0.  0.
         12    1    1    2    0    0  0.86101753879E+01  0.12996216060E+01 -0.44196033863E+02  0.45045682876E+02  0.00000000000E+00 0. -1.
         11    1    3    3    0    0 -0.61439553493E-01 -0.22171734116E+01  0.17976067252E+02  0.18112388768E+02  0.51100000000E-03 0. -1.
        -11    1    3    3    0    0 -0.10034255243E+01 -0.25460070649E+00  0.40885453966E+00  0.11130348594E+01  0.51100000000E-03 0.  1.
        -12    1    3    3    0    0 -0.75453103102E+01  0.11721525121E+01  0.25811112071E+02  0.26916893497E+02  0.00000000000E+00 0.  1.
</event>
<event>
 7    1  0.2328810E-008  0.4614232E+02  0.7816164E-02  0.1320468E+00
        -11   -1    0    0    0    0  0.00000000000E+00  0.00000000000E+00  0.45593999997E+02  0.45594000000E+02  0.51100000000E-03 0. -1.
         11   -1    0    0    0    0 -0.00000000000E+00 -0.00000000000E+00 -0.45593999997E+02  0.45594000000E+02  0.51100000000E-03 0.  1.
    9900012    2    1    2    0    0 -0.17789939207E+02  0.30572582599E+02 -0.27891733477E+02  0.46142317187E+02  0.99999947681E+01 0.  0.
         12    1    1    2    0    0  0.17789939207E+02 -0.30572582599E+02  0.27891733477E+02  0.45045682813E+02  0.00000000000E+00 0. -1.
         11    1    3    3    0    0 -0.70594036235E+01  0.18836659994E+02 -0.13574478807E+02  0.24267703113E+02  0.51100000000E-03 0. -1.
        -11    1    3    3    0    0 -0.22732103895E+01  0.35610920473E+00 -0.13936369767E+01  0.26900787209E+01  0.51100000000E-03 0.  1.
        -12    1    3    3    0    0 -0.84573251936E+01  0.11379813400E+02 -0.12923617693E+02  0.19184535353E+02  0.00000000000E+00 0.  1.
</event>
<event>
 7    1  0.2328810E-008  0.4614232E+02  0.7816164E-02  0.1320468E+00
        -11   -1    0    0    0    0  0.00000000000E+00  0.00000000000E+00  0.45593999997E+02  0.45594000000E+02  0.51100000000E-03 0.  1.
         11   -1    0    0    0    0 -0.00000000000E+00 -0.00000000000E+00 -0.45593999997E+02  0.45594000000E+02  0.51100000000E-03 0. -1.
    9900012    2    1    2    0    0 -0.30660266793E+02  0.63481102609E+01  0.32384612249E+02  0.46142316808E+02  0.99999913091E+01 0.  0.
         12    1    1    2    0    0  0.30660266793E+02 -0.63481102609E+01 -0.32384612249E+02  0.45045683192E+02  0.00000000000E+00 0. -1.
         11    1    3    3    0    0 -0.83588199121E+01  0.45070227817E+01  0.93673639674E+01  0.13339064159E+02  0.51100000000E-03 0. -1.
        -11    1    3    3    0    0 -0.22743580735E+02  0.21124123703E+01  0.22339264137E+02  0.31949577041E+02  0.51100000000E-03 0.  1.
         12    1    3    3    0    0  0.44213385475E+00 -0.27132489107E+00  0.67798414514E+00  0.85367560765E+00  0.00000000000E+00 0. -1.
</event>
<event>
 7    1  0.2328810E-008  0.4614232E+02  0.7816164E-02  0.1320468E+00
        -11   -1    0    0    0    0  0.00000000000E+00  0.00000000000E+00  0.45593999997E+02  0.45594000000E+02  0.51100000000E-03 0. -1.
         11   -1    0    0    0    0 -0.00000000000E+00 -0.00000000000E+00 -0.45593999997E+02  0.45594000000E+02  0.51100000000E-03 0.  1.
    9900012    2    1    2    0    0  0.13638720505E+02  0.26062589794E+02 -0.34115103810E+02  0.46142316614E+02  0.99999895374E+01 0.  0.
         12    1    1    2    0    0 -0.13638720505E+02 -0.26062589794E+02  0.34115103810E+02  0.45045683386E+02  0.00000000000E+00 0. -1.
         11    1    3    3    0    0  0.27357155086E+00  0.16613624529E+01  0.21361374882E+00  0.16972323613E+01  0.51100000000E-03 0. -1.
        -11    1    3    3    0    0  0.18940594505E+00  0.28942983005E+01 -0.24601568335E+01  0.38033155498E+01  0.51100000000E-03 0.  1.
         12    1    3    3    0    0  0.13175743009E+02  0.21506929041E+02 -0.31868560725E+02  0.40641768703E+02  0.00000000000E+00 0. -1.
</event>
<event>
 7    1  0.2328810E-008  0.4614232E+02  0.7816164E-02  0.1320468E+00
        -11   -1    0    0    0    0  0.00000000000E+00  0.00000000000E+00  0.45593999997E+02  0.45594000000E+02  0.51100000000E-03 0. -1.
         11   -1    0    0    0    0 -0.00000000000E+00 -0.00000000000E+00 -0.45593999997E+02  0.45594000000E+02  0.51100000000E-03 0.  1.
    9900012    2    1    2    0    0  0.10204525370E+02 -0.29116287544E+02 -0.32821071411E+02  0.46142320219E+02  0.10000022409E+02 0.  0.
         12    1    1    2    0    0 -0.10204525370E+02  0.29116287544E+02  0.32821071411E+02  0.45045679781E+02  0.00000000000E+00 0. -1.
         11    1    3    3    0    0  0.88852224733E+00 -0.26736272221E+01 -0.80786562189E+00  0.29309386604E+01  0.51100000000E-03 0. -1.
        -11    1    3    3    0    0  0.44883215116E+01 -0.96899584078E+01 -0.17619174479E+02  0.20602806448E+02  0.51100000000E-03 0.  1.
        -12    1    3    3    0    0  0.48276816109E+01 -0.16752701914E+02 -0.14394031310E+02  0.22608575111E+02  0.00000000000E+00 0.  1.
</event>
<event>
 7    1  0.2328810E-008  0.4614232E+02  0.7816164E-02  0.1320468E+00
        -11   -1    0    0    0    0  0.00000000000E+00  0.00000000000E+00  0.45593999997E+02  0.45594000000E+02  0.51100000000E-03 0. -1.
         11   -1    0    0    0    0 -0.00000000000E+00 -0.00000000000E+00 -0.45593999997E+02  0.45594000000E+02  0.51100000000E-03 0.  1.
    9900012    2    1    2    0    0 -0.17241774565E+02  0.58688850161E+01 -0.41199404378E+02  0.46142317381E+02  0.99999965349E+01 0.  0.
         12    1    1    2    0    0  0.17241774565E+02 -0.58688850161E+01  0.41199404378E+02  0.45045682619E+02  0.00000000000E+00 0. -1.
         11    1    3    3    0    0 -0.24243139871E+01 -0.17415289248E+01 -0.65330077011E+01  0.71826465309E+01  0.51100000000E-03 0. -1.
        -11    1    3    3    0    0 -0.57901442866E+01  0.43719603075E+01 -0.21350023567E+02  0.22549131122E+02  0.51100000000E-03 0.  1.
        -12    1    3    3    0    0 -0.90273162917E+01  0.32384536335E+01 -0.13316373110E+02  0.16410539729E+02  0.00000000000E+00 0.  1.
</event>
<event>
 7    1  0.2328810E-008  0.4614232E+02  0.7816164E-02  0.1320468E+00
        -11   -1    0    0    0    0  0.00000000000E+00  0.00000000000E+00  0.45593999997E+02  0.45594000000E+02  0.51100000000E-03 0. -1.
         11   -1    0    0    0    0 -0.00000000000E+00 -0.00000000000E+00 -0.45593999997E+02  0.45594000000E+02  0.51100000000E-03 0.  1.
    9900012    2    1    2    0    0  0.16039136888E+02 -0.15411630919E+02 -0.39170668401E+02  0.46142317158E+02  0.99999945017E+01 0.  0.
         12    1    1    2    0    0 -0.16039136888E+02  0.15411630919E+02  0.39170668401E+02  0.45045682842E+02  0.00000000000E+00 0. -1.
         11    1    3    3    0    0  0.16210787723E+01  0.10834211193E+01 -0.20126310735E+01  0.28022101647E+01  0.51100000000E-03 0. -1.
        -11    1    3    3    0    0  0.61401135422E+01 -0.45474773723E+01 -0.15111061939E+02  0.16932948294E+02  0.51100000000E-03 0.  1.
        -12    1    3    3    0    0  0.82779445734E+01 -0.11947574666E+02 -0.22046975389E+02  0.26407158699E+02  0.00000000000E+00 0.  1.
</event>
<event>
 7    1  0.2328810E-008  0.4614232E+02  0.7816164E-02  0.1320468E+00
        -11   -1    0    0    0    0  0.00000000000E+00  0.00000000000E+00  0.45593999997E+02  0.45594000000E+02  0.51100000000E-03 0. -1.
         11   -1    0    0    0    0 -0.00000000000E+00 -0.00000000000E+00 -0.45593999997E+02  0.45594000000E+02  0.51100000000E-03 0.  1.
    9900012    2    1    2    0    0 -0.43681872121E+02 -0.59734087852E+01 -0.92372092409E+01  0.46142316532E+02  0.99999887938E+01 0.  0.
         12    1    1    2    0    0  0.43681872121E+02  0.59734087852E+01  0.92372092409E+01  0.45045683468E+02  0.00000000000E+00 0. -1.
         11    1    3    3    0    0 -0.23090288464E+02 -0.50025442425E+01 -0.79125301481E+01  0.24915758143E+02  0.51100000000E-03 0. -1.
        -11    1    3    3    0    0 -0.20860685461E+02 -0.93597056814E+00 -0.11704790379E+01  0.20914450991E+02  0.51100000000E-03 0.  1.
         12    1    3    3    0    0  0.26910180451E+00 -0.34893974504E-01 -0.15420005486E+00  0.31210739749E+00  0.00000000000E+00 0. -1.
</event>
<event>
 7    1  0.2328810E-008  0.4614232E+02  0.7816164E-02  0.1320468E+00
        -11   -1    0    0    0    0  0.00000000000E+00  0.00000000000E+00  0.45593999997E+02  0.45594000000E+02  0.51100000000E-03 0.  1.
         11   -1    0    0    0    0 -0.00000000000E+00 -0.00000000000E+00 -0.45593999997E+02  0.45594000000E+02  0.51100000000E-03 0. -1.
    9900012    2    1    2    0    0 -0.20647367189E+02  0.14280591082E+02  0.37401397131E+02  0.46142316956E+02  0.99999926615E+01 0.  0.
         12    1    1    2    0    0  0.20647367189E+02 -0.14280591082E+02 -0.37401397131E+02  0.45045683044E+02  0.00000000000E+00 0. -1.
         11    1    3    3    0    0 -0.40136897085E+01  0.46960782004E+01  0.15867234293E+02  0.17027389110E+02  0.51100000000E-03 0. -1.
        -11    1    3    3    0    0 -0.53796344601E+01  0.17587276162E+01  0.84130949072E+01  0.10139711827E+02  0.51100000000E-03 0.  1.
         12    1    3    3    0    0 -0.11254043021E+02  0.78257852656E+01  0.13121067931E+02  0.18975216020E+02  0.00000000000E+00 0. -1.
</event>
<event>
 7    1  0.2328810E-008  0.4614232E+02  0.7816164E-02  0.1320468E+00
        -11   -1    0    0    0    0  0.00000000000E+00  0.00000000000E+00  0.45593999997E+02  0.45594000000E+02  0.51100000000E-03 0.  1.
         11   -1    0    0    0    0 -0.00000000000E+00 -0.00000000000E+00 -0.45593999997E+02  0.45594000000E+02  0.51100000000E-03 0. -1.
    9900012    2    1    2    0    0  0.10347163604E+02  0.15169486294E+01  0.43814934958E+02  0.46142318152E+02  0.10000003564E+02 0.  0.
         12    1    1    2    0    0 -0.10347163604E+02 -0.15169486294E+01 -0.43814934958E+02  0.45045681848E+02  0.00000000000E+00 0. -1.
         11    1    3    3    0    0  0.64553832063E+01  0.32394679291E+01  0.21458953756E+02  0.22641837853E+02  0.51100000000E-03 0. -1.
        -11    1    3    3    0    0  0.50220040730E+01 -0.27392801602E+01  0.17348635087E+02  0.18267438801E+02  0.51100000000E-03 0.  1.
         12    1    3    3    0    0 -0.11302236754E+01  0.10167608605E+01  0.50073461147E+01  0.52330414977E+01  0.00000000000E+00 0. -1.
</event>
<event>
 7    1  0.2328810E-008  0.4614232E+02  0.7816164E-02  0.1320468E+00
        -11   -1    0    0    0    0  0.00000000000E+00  0.00000000000E+00  0.45593999997E+02  0.45594000000E+02  0.51100000000E-03 0.  1.
         11   -1    0    0    0    0 -0.00000000000E+00 -0.00000000000E+00 -0.45593999997E+02  0.45594000000E+02  0.51100000000E-03 0. -1.
    9900012    2    1    2    0    0 -0.24054767174E+02 -0.24517782279E+02  0.29143781587E+02  0.46142317889E+02  0.10000001163E+02 0.  0.
         12    1    1    2    0    0  0.24054767174E+02  0.24517782279E+02 -0.29143781587E+02  0.45045682111E+02  0.00000000000E+00 0. -1.
         11    1    3    3    0    0 -0.12667652540E+02 -0.10459942861E+02  0.12146993606E+02  0.20431086105E+02  0.51100000000E-03 0. -1.
        -11    1    3    3    0    0 -0.10942300506E+02 -0.10817631017E+02  0.16204705821E+02  0.22346086283E+02  0.51100000000E-03 0.  1.
         12    1    3    3    0    0 -0.44481412934E+00 -0.32402084005E+01  0.79208216042E+00  0.33651455002E+01  0.00000000000E+00 0. -1.
</event>
<event>
 7    1  0.2328810E-008  0.4614232E+02  0.7816164E-02  0.1320468E+00
        -11   -1    0    0    0    0  0.00000000000E+00  0.00000000000E+00  0.45593999997E+02  0.45594000000E+02  0.51100000000E-03 0.  1.
         11   -1    0    0    0    0 -0.00000000000E+00 -0.00000000000E+00 -0.45593999997E+02  0.45594000000E+02  0.51100000000E-03 0. -1.
    9900012    2    1    2    0    0  0.10075764952E+02 -0.18653109020E+02  0.39744860486E+02  0.46142318181E+02  0.10000003833E+02 0.  0.
         12    1    1    2    0    0 -0.10075764952E+02  0.18653109020E+02 -0.39744860486E+02  0.45045681819E+02  0.00000000000E+00 0. -1.
         11    1    3    3    0    0  0.18956762859E+00 -0.12307432202E+01  0.36186983936E+00  0.12967709134E+01  0.51100000000E-03 0. -1.
        -11    1    3    3    0    0  0.18970016016E+01 -0.10816035039E+02  0.22436718102E+02  0.24979822828E+02  0.51100000000E-03 0.  1.
         12    1    3    3    0    0  0.79891957220E+01 -0.66063307603E+01  0.16946272544E+02  0.19865724440E+02  0.00000000000E+00 0. -1.
</event>
<event>
 7    1  0.2328810E-008  0.4614232E+02  0.7816164E-02  0.1320468E+00
        -11   -1    0    0    0    0  0.00000000000E+00  0.00000000000E+00  0.45593999997E+02  0.45594000000E+02  0.51100000000E-03 0.  1.
         11   -1    0    0    0    0 -0.00000000000E+00 -0.00000000000E+00 -0.45593999997E+02  0.45594000000E+02  0.51100000000E-03 0. -1.
    9900012    2    1    2    0    0 -0.43018252147E+02 -0.87367642635E+00  0.13333424423E+02  0.46142317242E+02  0.99999952659E+01 0.  0.
         12    1    1    2    0    0  0.43018252147E+02  0.87367642635E+00 -0.13333424423E+02  0.45045682758E+02  0.00000000000E+00 0. -1.
         11    1    3    3    0    0 -0.85950105776E+01 -0.13427923461E+01  0.27572101927E+01  0.91257605941E+01  0.51100000000E-03 0. -1.
        -11    1    3    3    0    0 -0.17223752661E+02 -0.15307384150E+01  0.93504340379E+01  0.19657859313E+02  0.51100000000E-03 0.  1.
         12    1    3    3    0    0 -0.17199488908E+02  0.19998543347E+01  0.12257801928E+01  0.17358697334E+02  0.00000000000E+00 0. -1.
</event>
<event>
 7    1  0.2328810E-008  0.4614232E+02  0.7816164E-02  0.1320468E+00
        -11   -1    0    0    0    0  0.00000000000E+00  0.00000000000E+00  0.45593999997E+02  0.45594000000E+02  0.51100000000E-03 0.  1.
         11   -1    0    0    0    0 -0.00000000000E+00 -0.00000000000E+00 -0.45593999997E+02  0.45594000000E+02  0.51100000000E-03 0. -1.
    9900012    2    1    2    0    0 -0.11161973011E+02  0.40285459552E+02  0.16781108745E+02  0.46142317593E+02  0.99999984657E+01 0.  0.
         12    1    1    2    0    0  0.11161973011E+02 -0.40285459552E+02 -0.16781108745E+02  0.45045682407E+02  0.00000000000E+00 0. -1.
         11    1    3    3    0    0 -0.44623012367E+01  0.27373100158E+02  0.10167528873E+02  0.29539420919E+02  0.51100000000E-03 0. -1.
        -11    1    3    3    0    0  0.15339171412E+00  0.12191033459E+01 -0.46318385582E+00  0.13131190088E+01  0.51100000000E-03 0.  1.
        -12    1    3    3    0    0 -0.68530634887E+01  0.11693256048E+02  0.70767637281E+01  0.15289777665E+02  0.00000000000E+00 0.  1.
</event>
<event>
 7    1  0.2328810E-008  0.4614232E+02  0.7816164E-02  0.1320468E+00
        -11   -1    0    0    0    0  0.00000000000E+00  0.00000000000E+00  0.45593999997E+02  0.45594000000E+02  0.51100000000E-03 0. -1.
         11   -1    0    0    0    0 -0.00000000000E+00 -0.00000000000E+00 -0.45593999997E+02  0.45594000000E+02  0.51100000000E-03 0.  1.
    9900012    2    1    2    0    0  0.30372265051E+02 -0.33117620251E+02  0.31404356856E+01  0.46142316615E+02  0.99999895456E+01 0.  0.
         12    1    1    2    0    0 -0.30372265051E+02  0.33117620251E+02 -0.31404356856E+01  0.45045683385E+02  0.00000000000E+00 0. -1.
         11    1    3    3    0    0  0.20922424215E+02 -0.19322480340E+02  0.34344006726E+01  0.28686254370E+02  0.51100000000E-03 0. -1.
        -11    1    3    3    0    0  0.28400870581E+01 -0.67778823909E+01  0.18550332207E+01  0.75793754831E+01  0.51100000000E-03 0.  1.
        -12    1    3    3    0    0  0.66097537774E+01 -0.70172575197E+01 -0.21489982077E+01  0.98766867619E+01  0.00000000000E+00 0.  1.
</event>
<event>
 7    1  0.2328810E-008  0.4614232E+02  0.7816164E-02  0.1320468E+00
        -11   -1    0    0    0    0  0.00000000000E+00  0.00000000000E+00  0.45593999997E+02  0.45594000000E+02  0.51100000000E-03 0.  1.
         11   -1    0    0    0    0 -0.00000000000E+00 -0.00000000000E+00 -0.45593999997E+02  0.45594000000E+02  0.51100000000E-03 0. -1.
    9900012    2    1    2    0    0  0.28297771441E+02 -0.31879865270E+02  0.14561039006E+02  0.46142317243E+02  0.99999952724E+01 0.  0.
         12    1    1    2    0    0 -0.28297771441E+02  0.31879865270E+02 -0.14561039006E+02  0.45045682757E+02  0.00000000000E+00 0. -1.
         11    1    3    3    0    0  0.86280060531E+01 -0.79266439307E+01  0.20104188561E+01  0.11887638819E+02  0.51100000000E-03 0. -1.
        -11    1    3    3    0    0  0.18046382190E+02 -0.20557749100E+02  0.83198796658E+01  0.28592190474E+02  0.51100000000E-03 0.  1.
         12    1    3    3    0    0  0.16233831980E+01 -0.33954722391E+01  0.42307404838E+01  0.56624879492E+01  0.00000000000E+00 0. -1.
</event>
<event>
 7    1  0.2328810E-008  0.4614232E+02  0.7816164E-02  0.1320468E+00
        -11   -1    0    0    0    0  0.00000000000E+00  0.00000000000E+00  0.45593999997E+02  0.45594000000E+02  0.51100000000E-03 0.  1.
         11   -1    0    0    0    0 -0.00000000000E+00 -0.00000000000E+00 -0.45593999997E+02  0.45594000000E+02  0.51100000000E-03 0. -1.
    9900012    2    1    2    0    0 -0.26087447431E+02 -0.22330704128E+02  0.29153014756E+02  0.46142317303E+02  0.99999958184E+01 0.  0.
         12    1    1    2    0    0  0.26087447431E+02  0.22330704128E+02 -0.29153014756E+02  0.45045682697E+02  0.00000000000E+00 0. -1.
         11    1    3    3    0    0 -0.61588435070E+01 -0.81503487433E+01  0.41155081926E+01  0.11013489271E+02  0.51100000000E-03 0. -1.
        -11    1    3    3    0    0 -0.16018500412E+02 -0.11988187844E+02  0.18854746577E+02  0.27492007420E+02  0.51100000000E-03 0.  1.
        -12    1    3    3    0    0 -0.39101035117E+01 -0.21921675402E+01  0.61827599865E+01  0.76368206112E+01  0.00000000000E+00 0.  1.
</event>
<event>
 7    1  0.2328810E-008  0.4614232E+02  0.7816164E-02  0.1320468E+00
        -11   -1    0    0    0    0  0.00000000000E+00  0.00000000000E+00  0.45593999997E+02  0.45594000000E+02  0.51100000000E-03 0. -1.
         11   -1    0    0    0    0 -0.00000000000E+00 -0.00000000000E+00 -0.45593999997E+02  0.45594000000E+02  0.51100000000E-03 0.  1.
    9900012    2    1    2    0    0 -0.39347871396E+02 -0.92739518153E+01 -0.19870891522E+02  0.46142317681E+02  0.99999992719E+01 0.  0.
         12    1    1    2    0    0  0.39347871396E+02  0.92739518153E+01  0.19870891522E+02  0.45045682319E+02  0.00000000000E+00 0. -1.
         11    1    3    3    0    0 -0.15611766223E+02 -0.58884507699E+01 -0.50708999424E+01  0.17438896856E+02  0.51100000000E-03 0. -1.
        -11    1    3    3    0    0 -0.20104503700E+02 -0.48435458735E+01 -0.12514324402E+02  0.24171456745E+02  0.51100000000E-03 0.  1.
        -12    1    3    3    0    0 -0.36316014726E+01  0.14580448282E+01 -0.22856671781E+01  0.45319640804E+01  0.00000000000E+00 0.  1.
</event>
<event>
 7    1  0.2328810E-008  0.4614232E+02  0.7816164E-02  0.1320468E+00
        -11   -1    0    0    0    0  0.00000000000E+00  0.00000000000E+00  0.45593999997E+02  0.45594000000E+02  0.51100000000E-03 0. -1.
         11   -1    0    0    0    0 -0.00000000000E+00 -0.00000000000E+00 -0.45593999997E+02  0.45594000000E+02  0.51100000000E-03 0.  1.
    9900012    2    1    2    0    0 -0.11195403189E+02  0.26419281325E+02 -0.34724602460E+02  0.46142317696E+02  0.99999994054E+01 0.  0.
         12    1    1    2    0    0  0.11195403189E+02 -0.26419281325E+02  0.34724602460E+02  0.45045682304E+02  0.00000000000E+00 0. -1.
         11    1    3    3    0    0 -0.82191174443E+00  0.42999782142E+01 -0.37473668765E+01  0.57626478572E+01  0.51100000000E-03 0. -1.
        -11    1    3    3    0    0 -0.39108665742E+01  0.12704544341E+02 -0.10523935078E+02  0.16954454697E+02  0.51100000000E-03 0.  1.
         12    1    3    3    0    0 -0.64626248701E+01  0.94147587694E+01 -0.20453300505E+02  0.23425215142E+02  0.00000000000E+00 0. -1.
</event>
<event>
 7    1  0.2328810E-008  0.4614232E+02  0.7816164E-02  0.1320468E+00
        -11   -1    0    0    0    0  0.00000000000E+00  0.00000000000E+00  0.45593999997E+02  0.45594000000E+02  0.51100000000E-03 0. -1.
         11   -1    0    0    0    0 -0.00000000000E+00 -0.00000000000E+00 -0.45593999997E+02  0.45594000000E+02  0.51100000000E-03 0.  1.
    9900012    2    1    2    0    0 -0.26508669139E+02 -0.19663252225E+02 -0.30655515409E+02  0.46142315938E+02  0.99999833793E+01 0.  0.
         12    1    1    2    0    0  0.26508669139E+02  0.19663252225E+02  0.30655515409E+02  0.45045684062E+02  0.00000000000E+00 0. -1.
         11    1    3    3    0    0 -0.62346733693E+01 -0.60837076688E+01 -0.41278229819E+01  0.96395836971E+01  0.51100000000E-03 0. -1.
        -11    1    3    3    0    0 -0.18323103346E+02 -0.10375332488E+02 -0.20400367742E+02  0.29318230587E+02  0.51100000000E-03 0.  1.
        -12    1    3    3    0    0 -0.19508924231E+01 -0.32042120682E+01 -0.61273246852E+01  0.71845016544E+01  0.00000000000E+00 0.  1.
</event>
<event>
 7    1  0.2328810E-008  0.4614232E+02  0.7816164E-02  0.1320468E+00
        -11   -1    0    0    0    0  0.00000000000E+00  0.00000000000E+00  0.45593999997E+02  0.45594000000E+02  0.51100000000E-03 0.  1.
         11   -1    0    0    0    0 -0.00000000000E+00 -0.00000000000E+00 -0.45593999997E+02  0.45594000000E+02  0.51100000000E-03 0. -1.
    9900012    2    1    2    0    0  0.42665320958E+02  0.55115654874E+01  0.13356891113E+02  0.46142317557E+02  0.99999981379E+01 0.  0.
         12    1    1    2    0    0 -0.42665320958E+02 -0.55115654874E+01 -0.13356891113E+02  0.45045682443E+02  0.00000000000E+00 0. -1.
         11    1    3    3    0    0  0.18428636611E+01  0.17439402033E+01  0.10609349062E+01  0.27501012786E+01  0.51100000000E-03 0. -1.
        -11    1    3    3    0    0  0.24106691308E+02  0.48656267880E+01  0.97178020967E+01  0.26443195112E+02  0.51100000000E-03 0.  1.
         12    1    3    3    0    0  0.16715765989E+02 -0.10980015040E+01  0.25781541101E+01  0.16949021166E+02  0.00000000000E+00 0. -1.
</event>
<event>
 7    1  0.2328810E-008  0.4614232E+02  0.7816164E-02  0.1320468E+00
        -11   -1    0    0    0    0  0.00000000000E+00  0.00000000000E+00  0.45593999997E+02  0.45594000000E+02  0.51100000000E-03 0.  1.
         11   -1    0    0    0    0 -0.00000000000E+00 -0.00000000000E+00 -0.45593999997E+02  0.45594000000E+02  0.51100000000E-03 0. -1.
    9900012    2    1    2    0    0  0.29014409609E+02 -0.34357871727E+02  0.26104025729E+01  0.46142317453E+02  0.99999971866E+01 0.  0.
         12    1    1    2    0    0 -0.29014409609E+02  0.34357871727E+02 -0.26104025729E+01  0.45045682547E+02  0.00000000000E+00 0. -1.
         11    1    3    3    0    0  0.13535347617E+02 -0.19638035813E+02  0.34735238415E+01  0.24102353699E+02  0.51100000000E-03 0. -1.
        -11    1    3    3    0    0  0.10894456109E+02 -0.75913421099E+01  0.11515610768E+01  0.13328306048E+02  0.51100000000E-03 0.  1.
         12    1    3    3    0    0  0.45846058836E+01 -0.71284938039E+01 -0.20146823454E+01  0.87116577052E+01  0.00000000000E+00 0. -1.
</event>
<event>
 7    1  0.2328810E-008  0.4614232E+02  0.7816164E-02  0.1320468E+00
        -11   -1    0    0    0    0  0.00000000000E+00  0.00000000000E+00  0.45593999997E+02  0.45594000000E+02  0.51100000000E-03 0. -1.
         11   -1    0    0    0    0 -0.00000000000E+00 -0.00000000000E+00 -0.45593999997E+02  0.45594000000E+02  0.51100000000E-03 0.  1.
    9900012    2    1    2    0    0 -0.32723672131E+02  0.15211266897E+02  0.26960939330E+02  0.46142316434E+02  0.99999878980E+01 0.  0.
         12    1    1    2    0    0  0.32723672131E+02 -0.15211266897E+02 -0.26960939330E+02  0.45045683566E+02  0.00000000000E+00 0. -1.
         11    1    3    3    0    0 -0.13109614800E+02  0.52713869176E+01  0.85461746957E+01  0.16513225682E+02  0.51100000000E-03 0. -1.
        -11    1    3    3    0    0 -0.16984199572E+02  0.52000139798E+01  0.14720225579E+02  0.23069205054E+02  0.51100000000E-03 0.  1.
         12    1    3    3    0    0 -0.26298577594E+01  0.47398659998E+01  0.36945390557E+01  0.65598856975E+01  0.00000000000E+00 0. -1.
</event>
<event>
 7    1  0.2328810E-008  0.4614232E+02  0.7816164E-02  0.1320468E+00
        -11   -1    0    0    0    0  0.00000000000E+00  0.00000000000E+00  0.45593999997E+02  0.45594000000E+02  0.51100000000E-03 0.  1.
         11   -1    0    0    0    0 -0.00000000000E+00 -0.00000000000E+00 -0.45593999997E+02  0.45594000000E+02  0.51100000000E-03 0. -1.
    9900012    2    1    2    0    0 -0.36325618693E+01 -0.27101084882E+02  0.35797335312E+02  0.46142317377E+02  0.99999964946E+01 0.  0.
         12    1    1    2    0    0  0.36325618693E+01  0.27101084882E+02 -0.35797335312E+02  0.45045682623E+02  0.00000000000E+00 0. -1.
         11    1    3    3    0    0 -0.11901831565E+00  0.60646852904E+00  0.72262161505E+00  0.95086891622E+00  0.51100000000E-03 0. -1.
        -11    1    3    3    0    0 -0.37713368545E+01 -0.27902190137E+02  0.34487589042E+02  0.44521331902E+02  0.51100000000E-03 0.  1.
        -12    1    3    3    0    0  0.25779330081E+00  0.19463672608E+00  0.58712465543E+00  0.67011655858E+00  0.00000000000E+00 0.  1.
</event>
<event>
 7    1  0.2328810E-008  0.4614232E+02  0.7816164E-02  0.1320468E+00
        -11   -1    0    0    0    0  0.00000000000E+00  0.00000000000E+00  0.45593999997E+02  0.45594000000E+02  0.51100000000E-03 0.  1.
         11   -1    0    0    0    0 -0.00000000000E+00 -0.00000000000E+00 -0.45593999997E+02  0.45594000000E+02  0.51100000000E-03 0. -1.
    9900012    2    1    2    0    0 -0.26974332460E-01 -0.71378706300E+01  0.44476548923E+02  0.46142319531E+02  0.10000016143E+02 0.  0.
         12    1    1    2    0    0  0.26974332460E-01  0.71378706300E+01 -0.44476548923E+02  0.45045680469E+02  0.00000000000E+00 0. -1.
         11    1    3    3    0    0  0.32660978687E+01 -0.44676928164E+00  0.57345085814E+01  0.66144982433E+01  0.51100000000E-03 0.  1.
        -11    1    3    3    0    0 -0.62499169956E+00 -0.40804868094E+00  0.16237350229E+01  0.17870741552E+01  0.51100000000E-03 0. -1.
        -12    1    3    3    0    0 -0.26680805016E+01 -0.62830526675E+01  0.37118305319E+02  0.37740747133E+02  0.00000000000E+00 0.  1.
</event>
<event>
 7    1  0.2328810E-008  0.4614232E+02  0.7816164E-02  0.1320468E+00
        -11   -1    0    0    0    0  0.00000000000E+00  0.00000000000E+00  0.45593999997E+02  0.45594000000E+02  0.51100000000E-03 0.  1.
         11   -1    0    0    0    0 -0.00000000000E+00 -0.00000000000E+00 -0.45593999997E+02  0.45594000000E+02  0.51100000000E-03 0. -1.
    9900012    2    1    2    0    0 -0.43343317619E+02  0.10265194257E+02  0.67153642148E+01  0.46142317499E+02  0.99999976141E+01 0.  0.
         12    1    1    2    0    0  0.43343317619E+02 -0.10265194257E+02 -0.67153642148E+01  0.45045682501E+02  0.00000000000E+00 0. -1.
         11    1    3    3    0    0 -0.26459040297E+02  0.17920788924E+01  0.17121170276E+01  0.26574869805E+02  0.51100000000E-03 0.  1.
        -11    1    3    3    0    0 -0.12370914809E+02  0.66095707292E+01  0.34590515703E+01  0.14446141231E+02  0.51100000000E-03 0. -1.
        -12    1    3    3    0    0 -0.45133625136E+01  0.18635446358E+01  0.15441956169E+01  0.51213064634E+01  0.00000000000E+00 0.  1.
</event>
<event>
 7    1  0.2328810E-008  0.4614232E+02  0.7816164E-02  0.1320468E+00
        -11   -1    0    0    0    0  0.00000000000E+00  0.00000000000E+00  0.45593999997E+02  0.45594000000E+02  0.51100000000E-03 0. -1.
         11   -1    0    0    0    0 -0.00000000000E+00 -0.00000000000E+00 -0.45593999997E+02  0.45594000000E+02  0.51100000000E-03 0.  1.
    9900012    2    1    2    0    0 -0.83066970192E+01 -0.34046416979E+02  0.28301126429E+02  0.46142317836E+02  0.10000000681E+02 0.  0.
         12    1    1    2    0    0  0.83066970192E+01  0.34046416979E+02 -0.28301126429E+02  0.45045682164E+02  0.00000000000E+00 0. -1.
         11    1    3    3    0    0 -0.48022724433E-01 -0.50018804318E+01  0.17950065020E+01  0.53144296627E+01  0.51100000000E-03 0. -1.
        -11    1    3    3    0    0 -0.44182910477E+01 -0.10287160235E+02  0.57375860157E+01  0.12580415535E+02  0.51100000000E-03 0.  1.
         12    1    3    3    0    0 -0.38403832470E+01 -0.18757376312E+02  0.20768533912E+02  0.28247472638E+02  0.00000000000E+00 0. -1.
</event>
<event>
 7    1  0.2328810E-008  0.4614232E+02  0.7816164E-02  0.1320468E+00
        -11   -1    0    0    0    0  0.00000000000E+00  0.00000000000E+00  0.45593999997E+02  0.45594000000E+02  0.51100000000E-03 0.  1.
         11   -1    0    0    0    0 -0.00000000000E+00 -0.00000000000E+00 -0.45593999997E+02  0.45594000000E+02  0.51100000000E-03 0. -1.
    9900012    2    1    2    0    0  0.20521705860E+02  0.29926947155E+02  0.26689907264E+02  0.46142315110E+02  0.99999758273E+01 0.  0.
         12    1    1    2    0    0 -0.20521705860E+02 -0.29926947155E+02 -0.26689907264E+02  0.45045684890E+02  0.00000000000E+00 0. -1.
         11    1    3    3    0    0  0.99747405392E+01  0.18364523640E+02  0.10870746310E+02  0.23556831344E+02  0.51100000000E-03 0. -1.
        -11    1    3    3    0    0  0.71796977966E+01  0.88550595407E+01  0.90526036418E+01  0.14557121037E+02  0.51100000000E-03 0.  1.
         12    1    3    3    0    0  0.33672675242E+01  0.27073639744E+01  0.67665573118E+01  0.80283627299E+01  0.00000000000E+00 0. -1.
</event>
<event>
 7    1  0.2328810E-008  0.4614232E+02  0.7816164E-02  0.1320468E+00
        -11   -1    0    0    0    0  0.00000000000E+00  0.00000000000E+00  0.45593999997E+02  0.45594000000E+02  0.51100000000E-03 0. -1.
         11   -1    0    0    0    0 -0.00000000000E+00 -0.00000000000E+00 -0.45593999997E+02  0.45594000000E+02  0.51100000000E-03 0.  1.
    9900012    2    1    2    0    0  0.23256023464E+02 -0.16274301603E+02 -0.34977393115E+02  0.46142317086E+02  0.99999938470E+01 0.  0.
         12    1    1    2    0    0 -0.23256023464E+02  0.16274301603E+02  0.34977393115E+02  0.45045682914E+02  0.00000000000E+00 0. -1.
         11    1    3    3    0    0  0.26940977090E+01 -0.18428565869E+01 -0.34157791379E+01  0.47245984216E+01  0.51100000000E-03 0. -1.
        -11    1    3    3    0    0  0.18576071676E+02 -0.13231646471E+02 -0.31747317943E+02  0.39090140753E+02  0.51100000000E-03 0.  1.
        -12    1    3    3    0    0  0.19858540789E+01 -0.11997985446E+01  0.18570396607E+00  0.23275779113E+01  0.00000000000E+00 0.  1.
</event>
<event>
 7    1  0.2328810E-008  0.4614232E+02  0.7816164E-02  0.1320468E+00
        -11   -1    0    0    0    0  0.00000000000E+00  0.00000000000E+00  0.45593999997E+02  0.45594000000E+02  0.51100000000E-03 0.  1.
         11   -1    0    0    0    0 -0.00000000000E+00 -0.00000000000E+00 -0.45593999997E+02  0.45594000000E+02  0.51100000000E-03 0. -1.
    9900012    2    1    2    0    0 -0.31594052123E+01  0.33891176413E+02  0.29504571655E+02  0.46142318426E+02  0.10000006060E+02 0.  0.
         12    1    1    2    0    0  0.31594052123E+01 -0.33891176413E+02 -0.29504571655E+02  0.45045681574E+02  0.00000000000E+00 0. -1.
         11    1    3    3    0    0  0.10923482637E+01  0.63172214079E+01  0.49258480780E+01  0.80848308946E+01  0.51100000000E-03 0.  1.
        -11    1    3    3    0    0  0.23795748175E+01  0.58879197629E+01  0.60848587175E+01  0.87951964913E+01  0.51100000000E-03 0. -1.
        -12    1    3    3    0    0 -0.66313282936E+01  0.21686035242E+02  0.18493864859E+02  0.29262291040E+02  0.00000000000E+00 0.  1.
</event>
<event>
 7    1  0.2328810E-008  0.4614232E+02  0.7816164E-02  0.1320468E+00
        -11   -1    0    0    0    0  0.00000000000E+00  0.00000000000E+00  0.45593999997E+02  0.45594000000E+02  0.51100000000E-03 0.  1.
         11   -1    0    0    0    0 -0.00000000000E+00 -0.00000000000E+00 -0.45593999997E+02  0.45594000000E+02  0.51100000000E-03 0. -1.
    9900012    2    1    2    0    0  0.41705061049E+02 -0.21597666544E+01  0.16885994309E+02  0.46142317489E+02  0.99999975145E+01 0.  0.
         12    1    1    2    0    0 -0.41705061049E+02  0.21597666544E+01 -0.16885994309E+02  0.45045682511E+02  0.00000000000E+00 0. -1.
         11    1    3    3    0    0  0.22009462285E+02 -0.27881510104E+01  0.73004376077E+01  0.23355654683E+02  0.51100000000E-03 0.  1.
        -11    1    3    3    0    0  0.63689149520E+01  0.15395925542E+01  0.37865999650E+00  0.65632923561E+01  0.51100000000E-03 0. -1.
         12    1    3    3    0    0  0.13326683812E+02 -0.91120819816E+00  0.92068967052E+01  0.16223370450E+02  0.00000000000E+00 0. -1.
</event>
<event>
 7    1  0.2328810E-008  0.4614232E+02  0.7816164E-02  0.1320468E+00
        -11   -1    0    0    0    0  0.00000000000E+00  0.00000000000E+00  0.45593999997E+02  0.45594000000E+02  0.51100000000E-03 0.  1.
         11   -1    0    0    0    0 -0.00000000000E+00 -0.00000000000E+00 -0.45593999997E+02  0.45594000000E+02  0.51100000000E-03 0. -1.
    9900012    2    1    2    0    0  0.13661768253E+02 -0.42896023463E+02  0.15494081888E+01  0.46142318670E+02  0.10000008286E+02 0.  0.
         12    1    1    2    0    0 -0.13661768253E+02  0.42896023463E+02 -0.15494081888E+01  0.45045681330E+02  0.00000000000E+00 0. -1.
         11    1    3    3    0    0  0.47641375752E+01 -0.42787815035E+01  0.17081688727E+00  0.64057908692E+01  0.51100000000E-03 0. -1.
        -11    1    3    3    0    0  0.15959433455E+01 -0.35359346303E+01  0.11303930698E+00  0.38810626145E+01  0.51100000000E-03 0.  1.
         12    1    3    3    0    0  0.73016873325E+01 -0.35081307330E+02  0.12655519946E+01  0.35855465186E+02  0.00000000000E+00 0. -1.
</event>
<event>
 7    1  0.2328810E-008  0.4614232E+02  0.7816164E-02  0.1320468E+00
        -11   -1    0    0    0    0  0.00000000000E+00  0.00000000000E+00  0.45593999997E+02  0.45594000000E+02  0.51100000000E-03 0.  1.
         11   -1    0    0    0    0 -0.00000000000E+00 -0.00000000000E+00 -0.45593999997E+02  0.45594000000E+02  0.51100000000E-03 0. -1.
    9900012    2    1    2    0    0  0.42905653416E+01  0.11694204188E+02  0.43289146401E+02  0.46142316981E+02  0.99999928847E+01 0.  0.
         12    1    1    2    0    0 -0.42905653416E+01 -0.11694204188E+02 -0.43289146401E+02  0.45045683019E+02  0.00000000000E+00 0. -1.
         11    1    3    3    0    0  0.48003449219E+01  0.52799155425E+01  0.21156632127E+02  0.22327648840E+02  0.51100000000E-03 0. -1.
        -11    1    3    3    0    0 -0.40462706809E+00  0.20935782002E+01  0.16872835435E+02  0.17007038796E+02  0.51100000000E-03 0.  1.
         12    1    3    3    0    0 -0.10515251221E+00  0.43207104454E+01  0.52596788396E+01  0.68076293451E+01  0.00000000000E+00 0. -1.
</event>
<event>
 7    1  0.2328810E-008  0.4614232E+02  0.7816164E-02  0.1320468E+00
        -11   -1    0    0    0    0  0.00000000000E+00  0.00000000000E+00  0.45593999997E+02  0.45594000000E+02  0.51100000000E-03 0. -1.
         11   -1    0    0    0    0 -0.00000000000E+00 -0.00000000000E+00 -0.45593999997E+02  0.45594000000E+02  0.51100000000E-03 0.  1.
    9900012    2    1    2    0    0  0.41737173956E+02 -0.76824811874E+01 -0.15103021537E+02  0.46142318003E+02  0.10000002207E+02 0.  0.
         12    1    1    2    0    0 -0.41737173956E+02  0.76824811874E+01  0.15103021537E+02  0.45045681997E+02  0.00000000000E+00 0. -1.
         11    1    3    3    0    0  0.43712021871E+01 -0.24709115984E+01  0.38582232307E+00  0.50360373126E+01  0.51100000000E-03 0. -1.
        -11    1    3    3    0    0  0.10786646276E+01  0.62935914359E+00 -0.76375334592E-01  0.12511769512E+01  0.51100000000E-03 0.  1.
        -12    1    3    3    0    0  0.36287307141E+02 -0.58409287326E+01 -0.15412468525E+02  0.39855103739E+02  0.00000000000E+00 0.  1.
</event>
<event>
 7    1  0.2328810E-008  0.4614232E+02  0.7816164E-02  0.1320468E+00
        -11   -1    0    0    0    0  0.00000000000E+00  0.00000000000E+00  0.45593999997E+02  0.45594000000E+02  0.51100000000E-03 0.  1.
         11   -1    0    0    0    0 -0.00000000000E+00 -0.00000000000E+00 -0.45593999997E+02  0.45594000000E+02  0.51100000000E-03 0. -1.
    9900012    2    1    2    0    0  0.24540100065E+02  0.37461111356E+02  0.48540760887E+01  0.46142318410E+02  0.10000005917E+02 0.  0.
         12    1    1    2    0    0 -0.24540100065E+02 -0.37461111356E+02 -0.48540760887E+01  0.45045681590E+02  0.00000000000E+00 0. -1.
         11    1    3    3    0    0  0.88598224169E+00  0.55610808076E+01  0.17176659576E+01  0.58873560181E+01  0.51100000000E-03 0.  1.
        -11    1    3    3    0    0 -0.32838390351E+00  0.56742825892E+00 -0.10754660289E+00  0.66436236349E+00  0.51100000000E-03 0. -1.
        -12    1    3    3    0    0  0.23982501727E+02  0.31332602289E+02  0.32439567340E+01  0.39590600028E+02  0.00000000000E+00 0.  1.
</event>
<event>
 7    1  0.2328810E-008  0.4614232E+02  0.7816164E-02  0.1320468E+00
        -11   -1    0    0    0    0  0.00000000000E+00  0.00000000000E+00  0.45593999997E+02  0.45594000000E+02  0.51100000000E-03 0.  1.
         11   -1    0    0    0    0 -0.00000000000E+00 -0.00000000000E+00 -0.45593999997E+02  0.45594000000E+02  0.51100000000E-03 0. -1.
    9900012    2    1    2    0    0  0.28108159535E+02 -0.10972125494E+02  0.33446334028E+02  0.46142318407E+02  0.10000005887E+02 0.  0.
         12    1    1    2    0    0 -0.28108159535E+02  0.10972125494E+02 -0.33446334028E+02  0.45045681593E+02  0.00000000000E+00 0. -1.
         11    1    3    3    0    0  0.37874635328E+01 -0.17911600983E+01  0.52350893520E+01  0.67051692965E+01  0.51100000000E-03 0. -1.
        -11    1    3    3    0    0  0.17513862732E+02 -0.10512050156E+02  0.18918648235E+02  0.27841584681E+02  0.51100000000E-03 0.  1.
         12    1    3    3    0    0  0.68068332707E+01  0.13310847601E+01  0.92925964411E+01  0.11595564429E+02  0.00000000000E+00 0. -1.
</event>
<event>
 7    1  0.2328810E-008  0.4614232E+02  0.7816164E-02  0.1320468E+00
        -11   -1    0    0    0    0  0.00000000000E+00  0.00000000000E+00  0.45593999997E+02  0.45594000000E+02  0.51100000000E-03 0.  1.
         11   -1    0    0    0    0 -0.00000000000E+00 -0.00000000000E+00 -0.45593999997E+02  0.45594000000E+02  0.51100000000E-03 0. -1.
    9900012    2    1    2    0    0  0.42972989447E+02 -0.71135513418E+01  0.11481851018E+02  0.46142319436E+02  0.10000015273E+02 0.  0.
         12    1    1    2    0    0 -0.42972989447E+02  0.71135513418E+01 -0.11481851018E+02  0.45045680564E+02  0.00000000000E+00 0. -1.
         11    1    3    3    0    0  0.68539582977E+01 -0.24544102278E+01  0.38562345051E+01  0.82384111777E+01  0.51100000000E-03 0. -1.
        -11    1    3    3    0    0  0.22741813115E+02 -0.62867013616E+01  0.38289333313E+01  0.23903418343E+02  0.51100000000E-03 0.  1.
         12    1    3    3    0    0  0.13377218034E+02  0.16275602476E+01  0.37966831817E+01  0.14000489915E+02  0.00000000000E+00 0. -1.
</event>
<event>
 7    1  0.2328810E-008  0.4614232E+02  0.7816164E-02  0.1320468E+00
        -11   -1    0    0    0    0  0.00000000000E+00  0.00000000000E+00  0.45593999997E+02  0.45594000000E+02  0.51100000000E-03 0.  1.
         11   -1    0    0    0    0 -0.00000000000E+00 -0.00000000000E+00 -0.45593999997E+02  0.45594000000E+02  0.51100000000E-03 0. -1.
    9900012    2    1    2    0    0 -0.26928181262E+02 -0.50045086518E+01  0.35762290597E+02  0.46142317835E+02  0.10000000675E+02 0.  0.
         12    1    1    2    0    0  0.26928181262E+02  0.50045086518E+01 -0.35762290597E+02  0.45045682165E+02  0.00000000000E+00 0. -1.
         11    1    3    3    0    0 -0.34913702142E+01  0.75076108282E+00  0.61510145472E+01  0.71125444391E+01  0.51100000000E-03 0. -1.
        -11    1    3    3    0    0 -0.60859107710E+01 -0.34910183722E+01  0.42014726968E+01  0.81778904536E+01  0.51100000000E-03 0.  1.
        -12    1    3    3    0    0 -0.17350900277E+02 -0.22642513624E+01  0.25409803353E+02  0.30851882942E+02  0.00000000000E+00 0.  1.
</event>
<event>
 7    1  0.2328810E-008  0.4614232E+02  0.7816164E-02  0.1320468E+00
        -11   -1    0    0    0    0  0.00000000000E+00  0.00000000000E+00  0.45593999997E+02  0.45594000000E+02  0.51100000000E-03 0. -1.
         11   -1    0    0    0    0 -0.00000000000E+00 -0.00000000000E+00 -0.45593999997E+02  0.45594000000E+02  0.51100000000E-03 0.  1.
    9900012    2    1    2    0    0 -0.15658792874E+02  0.29977745381E+02 -0.29753158658E+02  0.46142318048E+02  0.10000002616E+02 0.  0.
         12    1    1    2    0    0  0.15658792874E+02 -0.29977745381E+02  0.29753158658E+02  0.45045681952E+02  0.00000000000E+00 0. -1.
         11    1    3    3    0    0 -0.53067511882E+01  0.57277361043E+01 -0.60848029309E+01  0.98991613798E+01  0.51100000000E-03 0. -1.
        -11    1    3    3    0    0 -0.56314715155E+01  0.59400134503E+01 -0.99399269822E+01  0.12876310803E+02  0.51100000000E-03 0.  1.
        -12    1    3    3    0    0 -0.47205701703E+01  0.18309995827E+02 -0.13728428745E+02  0.23366845865E+02  0.00000000000E+00 0.  1.
</event>
<event>
 7    1  0.2328810E-008  0.4614232E+02  0.7816164E-02  0.1320468E+00
        -11   -1    0    0    0    0  0.00000000000E+00  0.00000000000E+00  0.45593999997E+02  0.45594000000E+02  0.51100000000E-03 0. -1.
         11   -1    0    0    0    0 -0.00000000000E+00 -0.00000000000E+00 -0.45593999997E+02  0.45594000000E+02  0.51100000000E-03 0.  1.
    9900012    2    1    2    0    0  0.31632003518E+02  0.30564835487E+02 -0.97118829699E+01  0.46142317791E+02  0.10000000272E+02 0.  0.
         12    1    1    2    0    0 -0.31632003518E+02 -0.30564835487E+02  0.97118829699E+01  0.45045682209E+02  0.00000000000E+00 0. -1.
         11    1    3    3    0    0  0.70365285370E+01  0.10339404886E+02 -0.37600430763E+01  0.13059630601E+02  0.51100000000E-03 0. -1.
        -11    1    3    3    0    0  0.53283071702E+01  0.66764899796E+01 -0.40453381720E+01  0.94515150603E+01  0.51100000000E-03 0.  1.
        -12    1    3    3    0    0  0.19267167810E+02  0.13548940621E+02 -0.19065017216E+01  0.23631172129E+02  0.00000000000E+00 0.  1.
</event>
<event>
 7    1  0.2328810E-008  0.4614232E+02  0.7816164E-02  0.1320468E+00
        -11   -1    0    0    0    0  0.00000000000E+00  0.00000000000E+00  0.45593999997E+02  0.45594000000E+02  0.51100000000E-03 0.  1.
         11   -1    0    0    0    0 -0.00000000000E+00 -0.00000000000E+00 -0.45593999997E+02  0.45594000000E+02  0.51100000000E-03 0. -1.
    9900012    2    1    2    0    0  0.35967661501E+02  0.10533962432E+02  0.24989528014E+02  0.46142317091E+02  0.99999938856E+01 0.  0.
         12    1    1    2    0    0 -0.35967661501E+02 -0.10533962432E+02 -0.24989528014E+02  0.45045682909E+02  0.00000000000E+00 0. -1.
         11    1    3    3    0    0  0.16841606193E+02  0.20676858826E+01  0.11101646408E+02  0.20277119551E+02  0.51100000000E-03 0. -1.
        -11    1    3    3    0    0  0.90704686467E+01  0.42238014783E+01  0.10341409653E+02  0.14389532802E+02  0.51100000000E-03 0.  1.
        -12    1    3    3    0    0  0.10055586662E+02  0.42424750714E+01  0.35464719537E+01  0.11475664737E+02  0.00000000000E+00 0.  1.
</event>
<event>
 7    1  0.2328810E-008  0.4614232E+02  0.7816164E-02  0.1320468E+00
        -11   -1    0    0    0    0  0.00000000000E+00  0.00000000000E+00  0.45593999997E+02  0.45594000000E+02  0.51100000000E-03 0.  1.
         11   -1    0    0    0    0 -0.00000000000E+00 -0.00000000000E+00 -0.45593999997E+02  0.45594000000E+02  0.51100000000E-03 0. -1.
    9900012    2    1    2    0    0 -0.24658836269E+02  0.13717628359E+02  0.35112413478E+02  0.46142321914E+02  0.10000037874E+02 0.  0.
         12    1    1    2    0    0  0.24658836269E+02 -0.13717628359E+02 -0.35112413478E+02  0.45045678086E+02  0.00000000000E+00 0. -1.
         11    1    3    3    0    0 -0.87749366923E+01  0.54526933918E+00  0.90237881388E+01  0.12598634261E+02  0.51100000000E-03 0. -1.
        -11    1    3    3    0    0 -0.10480680411E+02  0.62034909660E+01  0.13608045625E+02  0.18262170409E+02  0.51100000000E-03 0.  1.
        -12    1    3    3    0    0 -0.54032191660E+01  0.69688680538E+01  0.12480579714E+02  0.15281517245E+02  0.00000000000E+00 0.  1.
</event>
<event>
 7    1  0.2328810E-008  0.4614232E+02  0.7816164E-02  0.1320468E+00
        -11   -1    0    0    0    0  0.00000000000E+00  0.00000000000E+00  0.45593999997E+02  0.45594000000E+02  0.51100000000E-03 0.  1.
         11   -1    0    0    0    0 -0.00000000000E+00 -0.00000000000E+00 -0.45593999997E+02  0.45594000000E+02  0.51100000000E-03 0. -1.
    9900012    2    1    2    0    0 -0.30552459769E+02 -0.47193693195E+01  0.32762600897E+02  0.46142320271E+02  0.10000022892E+02 0.  0.
         12    1    1    2    0    0  0.30552459769E+02  0.47193693195E+01 -0.32762600897E+02  0.45045679729E+02  0.00000000000E+00 0. -1.
         11    1    3    3    0    0 -0.87315037309E+01 -0.17329661222E+01  0.55736111791E+01  0.10502736349E+02  0.51100000000E-03 0. -1.
        -11    1    3    3    0    0 -0.14273340349E+02 -0.50011607433E+01  0.19508281584E+02  0.24684264302E+02  0.51100000000E-03 0.  1.
         12    1    3    3    0    0 -0.75476156891E+01  0.20147575459E+01  0.76807081332E+01  0.10955319620E+02  0.00000000000E+00 0. -1.
</event>
<event>
 7    1  0.2328810E-008  0.4614232E+02  0.7816164E-02  0.1320468E+00
        -11   -1    0    0    0    0  0.00000000000E+00  0.00000000000E+00  0.45593999997E+02  0.45594000000E+02  0.51100000000E-03 0.  1.
         11   -1    0    0    0    0 -0.00000000000E+00 -0.00000000000E+00 -0.45593999997E+02  0.45594000000E+02  0.51100000000E-03 0. -1.
    9900012    2    1    2    0    0 -0.14203773944E+02 -0.35039773591E+02  0.24486334849E+02  0.46142317389E+02  0.99999966066E+01 0.  0.
         12    1    1    2    0    0  0.14203773944E+02  0.35039773591E+02 -0.24486334849E+02  0.45045682611E+02  0.00000000000E+00 0. -1.
         11    1    3    3    0    0 -0.31122447544E+01 -0.18623626808E+02  0.96777337589E+01  0.21217541654E+02  0.51100000000E-03 0. -1.
        -11    1    3    3    0    0 -0.13329341871E+01 -0.39687791141E+01  0.38014553732E+01  0.56549964119E+01  0.51100000000E-03 0.  1.
        -12    1    3    3    0    0 -0.97585950025E+01 -0.12447367669E+02  0.11007145717E+02  0.19269779323E+02  0.00000000000E+00 0.  1.
</event>
<event>
 7    1  0.2328810E-008  0.4614232E+02  0.7816164E-02  0.1320468E+00
        -11   -1    0    0    0    0  0.00000000000E+00  0.00000000000E+00  0.45593999997E+02  0.45594000000E+02  0.51100000000E-03 0. -1.
         11   -1    0    0    0    0 -0.00000000000E+00 -0.00000000000E+00 -0.45593999997E+02  0.45594000000E+02  0.51100000000E-03 0.  1.
    9900012    2    1    2    0    0 -0.29660752390E+02  0.33136297891E+02 -0.71651179601E+01  0.46142318902E+02  0.10000010400E+02 0.  0.
         12    1    1    2    0    0  0.29660752390E+02 -0.33136297891E+02  0.71651179601E+01  0.45045681098E+02  0.00000000000E+00 0. -1.
         11    1    3    3    0    0 -0.20925283426E+01  0.59607847720E+00  0.13101982142E+01  0.25398039367E+01  0.51100000000E-03 0. -1.
        -11    1    3    3    0    0 -0.13139476686E+02  0.14757048474E+02 -0.23583548376E+01  0.19899200111E+02  0.51100000000E-03 0.  1.
        -12    1    3    3    0    0 -0.14428747361E+02  0.17783170939E+02 -0.61169613367E+01  0.23703314854E+02  0.00000000000E+00 0.  1.
</event>
<event>
 7    1  0.2328810E-008  0.4614232E+02  0.7816164E-02  0.1320468E+00
        -11   -1    0    0    0    0  0.00000000000E+00  0.00000000000E+00  0.45593999997E+02  0.45594000000E+02  0.51100000000E-03 0.  1.
         11   -1    0    0    0    0 -0.00000000000E+00 -0.00000000000E+00 -0.45593999997E+02  0.45594000000E+02  0.51100000000E-03 0. -1.
    9900012    2    1    2    0    0  0.13539527432E+02  0.94242208822E+01  0.41916328807E+02  0.46142319153E+02  0.10000012695E+02 0.  0.
         12    1    1    2    0    0 -0.13539527432E+02 -0.94242208822E+01 -0.41916328807E+02  0.45045680847E+02  0.00000000000E+00 0. -1.
         11    1    3    3    0    0  0.31413434749E+01 -0.69965765688E+00  0.14169090360E+02  0.14529992483E+02  0.51100000000E-03 0. -1.
        -11    1    3    3    0    0  0.59355644560E+01  0.79438893835E+01  0.15552240991E+02  0.18444741908E+02  0.51100000000E-03 0.  1.
         12    1    3    3    0    0  0.44626195009E+01  0.21799891556E+01  0.12194997455E+02  0.13167584762E+02  0.00000000000E+00 0. -1.
</event>
<event>
 7    1  0.2328810E-008  0.4614232E+02  0.7816164E-02  0.1320468E+00
        -11   -1    0    0    0    0  0.00000000000E+00  0.00000000000E+00  0.45593999997E+02  0.45594000000E+02  0.51100000000E-03 0. -1.
         11   -1    0    0    0    0 -0.00000000000E+00 -0.00000000000E+00 -0.45593999997E+02  0.45594000000E+02  0.51100000000E-03 0.  1.
    9900012    2    1    2    0    0  0.35404510416E+02 -0.12572376759E+02 -0.24850940832E+02  0.46142320125E+02  0.10000021556E+02 0.  0.
         12    1    1    2    0    0 -0.35404510416E+02  0.12572376759E+02  0.24850940832E+02  0.45045679875E+02  0.00000000000E+00 0. -1.
         11    1    3    3    0    0  0.41968193538E+01 -0.30967052283E+01 -0.44581120446E+01  0.68613146861E+01  0.51100000000E-03 0. -1.
        -11    1    3    3    0    0  0.30993951482E+02 -0.89892480031E+01 -0.20978195179E+02  0.38490470007E+02  0.51100000000E-03 0.  1.
         12    1    3    3    0    0  0.21373958012E+00 -0.48642352774E+00  0.58536639168E+00  0.79053543182E+00  0.00000000000E+00 0. -1.
</event>
<event>
 7    1  0.2328810E-008  0.4614232E+02  0.7816164E-02  0.1320468E+00
        -11   -1    0    0    0    0  0.00000000000E+00  0.00000000000E+00  0.45593999997E+02  0.45594000000E+02  0.51100000000E-03 0. -1.
         11   -1    0    0    0    0 -0.00000000000E+00 -0.00000000000E+00 -0.45593999997E+02  0.45594000000E+02  0.51100000000E-03 0.  1.
    9900012    2    1    2    0    0  0.32619364173E+02  0.31064186142E+02  0.32704036422E+00  0.46142317242E+02  0.99999952647E+01 0.  0.
         12    1    1    2    0    0 -0.32619364173E+02 -0.31064186142E+02 -0.32704036422E+00  0.45045682758E+02  0.00000000000E+00 0. -1.
         11    1    3    3    0    0  0.59312742220E+01  0.32800594197E+01  0.18853181123E+01  0.70351423823E+01  0.51100000000E-03 0. -1.
        -11    1    3    3    0    0  0.26036816853E+02  0.24658459964E+02 -0.17989863009E+01  0.35905317595E+02  0.51100000000E-03 0.  1.
        -12    1    3    3    0    0  0.65127309809E+00  0.31256667584E+01  0.24070855283E+00  0.32018572642E+01  0.00000000000E+00 0.  1.
</event>
<event>
 7    1  0.2328810E-008  0.4614232E+02  0.7816164E-02  0.1320468E+00
        -11   -1    0    0    0    0  0.00000000000E+00  0.00000000000E+00  0.45593999997E+02  0.45594000000E+02  0.51100000000E-03 0.  1.
         11   -1    0    0    0    0 -0.00000000000E+00 -0.00000000000E+00 -0.45593999997E+02  0.45594000000E+02  0.51100000000E-03 0. -1.
    9900012    2    1    2    0    0  0.22989900007E+01  0.21835034569E+02  0.39332674847E+02  0.46142318739E+02  0.10000008916E+02 0.  0.
         12    1    1    2    0    0 -0.22989900007E+01 -0.21835034569E+02 -0.39332674847E+02  0.45045681261E+02  0.00000000000E+00 0. -1.
         11    1    3    3    0    0 -0.34218413941E+00  0.56343934583E+01  0.46099893838E+01  0.72880369104E+01  0.51100000000E-03 0. -1.
        -11    1    3    3    0    0  0.22034429034E+00  0.30016092654E+01  0.23759806602E+01  0.38345135477E+01  0.51100000000E-03 0.  1.
        -12    1    3    3    0    0  0.24208298498E+01  0.13199031845E+02  0.32346704803E+02  0.35019768281E+02  0.00000000000E+00 0.  1.
</event>
<event>
 7    1  0.2328810E-008  0.4614232E+02  0.7816164E-02  0.1320468E+00
        -11   -1    0    0    0    0  0.00000000000E+00  0.00000000000E+00  0.45593999997E+02  0.45594000000E+02  0.51100000000E-03 0.  1.
         11   -1    0    0    0    0 -0.00000000000E+00 -0.00000000000E+00 -0.45593999997E+02  0.45594000000E+02  0.51100000000E-03 0. -1.
    9900012    2    1    2    0    0  0.42027163049E+02  0.16053179704E+02  0.22641646985E+01  0.46142318139E+02  0.10000003447E+02 0.  0.
         12    1    1    2    0    0 -0.42027163049E+02 -0.16053179704E+02 -0.22641646985E+01  0.45045681861E+02  0.00000000000E+00 0. -1.
         11    1    3    3    0    0  0.74726878724E+01  0.28205321662E+01 -0.62269413102E+00  0.80115051009E+01  0.51100000000E-03 0. -1.
        -11    1    3    3    0    0  0.33077898074E+02  0.13679254125E+02  0.11576910837E+01  0.35813539107E+02  0.51100000000E-03 0.  1.
        -12    1    3    3    0    0  0.14765771018E+01 -0.44660658707E+00  0.17291677458E+01  0.23172739316E+01  0.00000000000E+00 0.  1.
</event>
<event>
 7    1  0.2328810E-008  0.4614232E+02  0.7816164E-02  0.1320468E+00
        -11   -1    0    0    0    0  0.00000000000E+00  0.00000000000E+00  0.45593999997E+02  0.45594000000E+02  0.51100000000E-03 0.  1.
         11   -1    0    0    0    0 -0.00000000000E+00 -0.00000000000E+00 -0.45593999997E+02  0.45594000000E+02  0.51100000000E-03 0. -1.
    9900012    2    1    2    0    0  0.14914075048E+02  0.15251103656E+02  0.39674774426E+02  0.46142317377E+02  0.99999964959E+01 0.  0.
         12    1    1    2    0    0 -0.14914075048E+02 -0.15251103656E+02 -0.39674774426E+02  0.45045682623E+02  0.00000000000E+00 0. -1.
         11    1    3    3    0    0  0.74911804149E+00  0.45160943032E+01  0.39324443218E+01  0.60349319963E+01  0.51100000000E-03 0. -1.
        -11    1    3    3    0    0  0.83980576621E+01  0.42936649493E+01  0.16359312814E+02  0.18883592010E+02  0.51100000000E-03 0.  1.
         12    1    3    3    0    0  0.57668993441E+01  0.64413444038E+01  0.19383017290E+02  0.21223793371E+02  0.00000000000E+00 0. -1.
</event>
<event>
 7    1  0.2328810E-008  0.4614232E+02  0.7816164E-02  0.1320468E+00
        -11   -1    0    0    0    0  0.00000000000E+00  0.00000000000E+00  0.45593999997E+02  0.45594000000E+02  0.51100000000E-03 0.  1.
         11   -1    0    0    0    0 -0.00000000000E+00 -0.00000000000E+00 -0.45593999997E+02  0.45594000000E+02  0.51100000000E-03 0. -1.
    9900012    2    1    2    0    0 -0.17658134855E+02  0.16929621358E+02  0.37824484649E+02  0.46142318244E+02  0.10000004402E+02 0.  0.
         12    1    1    2    0    0  0.17658134855E+02 -0.16929621358E+02 -0.37824484649E+02  0.45045681756E+02  0.00000000000E+00 0. -1.
         11    1    3    3    0    0 -0.19624785504E+01  0.54243987652E+01  0.92509783554E+01  0.10902111026E+02  0.51100000000E-03 0. -1.
        -11    1    3    3    0    0 -0.85034305703E+01  0.38359339323E+01  0.18298218867E+02  0.20538927298E+02  0.51100000000E-03 0.  1.
         12    1    3    3    0    0 -0.71922257348E+01  0.76692886607E+01  0.10275287427E+02  0.14701279920E+02  0.00000000000E+00 0. -1.
</event>
<event>
 7    1  0.2328810E-008  0.4614232E+02  0.7816164E-02  0.1320468E+00
        -11   -1    0    0    0    0  0.00000000000E+00  0.00000000000E+00  0.45593999997E+02  0.45594000000E+02  0.51100000000E-03 0.  1.
         11   -1    0    0    0    0 -0.00000000000E+00 -0.00000000000E+00 -0.45593999997E+02  0.45594000000E+02  0.51100000000E-03 0. -1.
    9900012    2    1    2    0    0  0.25020232642E+02  0.37388422660E+02  0.22819441589E+01  0.46142318080E+02  0.10000002910E+02 0.  0.
         12    1    1    2    0    0 -0.25020232642E+02 -0.37388422660E+02 -0.22819441589E+01  0.45045681920E+02  0.00000000000E+00 0. -1.
         11    1    3    3    0    0  0.19249744217E+00  0.53559789701E+00 -0.13636802312E+01  0.14776821060E+01  0.51100000000E-03 0. -1.
        -11    1    3    3    0    0  0.33010130280E+01  0.64294556105E+01  0.10900354106E+00  0.72281718637E+01  0.51100000000E-03 0.  1.
        -12    1    3    3    0    0  0.21526722171E+02  0.30423369153E+02  0.35366208490E+01  0.37436464110E+02  0.00000000000E+00 0.  1.
</event>
<event>
 7    1  0.2328810E-008  0.4614232E+02  0.7816164E-02  0.1320468E+00
        -11   -1    0    0    0    0  0.00000000000E+00  0.00000000000E+00  0.45593999997E+02  0.45594000000E+02  0.51100000000E-03 0.  1.
         11   -1    0    0    0    0 -0.00000000000E+00 -0.00000000000E+00 -0.45593999997E+02  0.45594000000E+02  0.51100000000E-03 0. -1.
    9900012    2    1    2    0    0 -0.77411321798E+01 -0.43806036376E+02  0.70865728025E+01  0.46142318026E+02  0.10000002414E+02 0.  0.
         12    1    1    2    0    0  0.77411321798E+01  0.43806036376E+02 -0.70865728025E+01  0.45045681974E+02  0.00000000000E+00 0. -1.
         11    1    3    3    0    0 -0.64928831014E+01 -0.13528976461E+02  0.98068802949E+00  0.15038367076E+02  0.51100000000E-03 0. -1.
        -11    1    3    3    0    0 -0.23583483775E+01 -0.19790011681E+02  0.34160819627E+01  0.20220682126E+02  0.51100000000E-03 0.  1.
         12    1    3    3    0    0  0.11100992991E+01 -0.10487048235E+02  0.26898028103E+01  0.10883268824E+02  0.00000000000E+00 0. -1.
</event>
<event>
 7    1  0.2328810E-008  0.4614232E+02  0.7816164E-02  0.1320468E+00
        -11   -1    0    0    0    0  0.00000000000E+00  0.00000000000E+00  0.45593999997E+02  0.45594000000E+02  0.51100000000E-03 0.  1.
         11   -1    0    0    0    0 -0.00000000000E+00 -0.00000000000E+00 -0.45593999997E+02  0.45594000000E+02  0.51100000000E-03 0. -1.
    9900012    2    1    2    0    0  0.18481016309E+02 -0.84363924677E+01  0.40204388058E+02  0.46142317624E+02  0.99999987454E+01 0.  0.
         12    1    1    2    0    0 -0.18481016309E+02  0.84363924677E+01 -0.40204388058E+02  0.45045682376E+02  0.00000000000E+00 0. -1.
         11    1    3    3    0    0  0.12010836380E+01 -0.33796974646E+01  0.98164995365E+01  0.10451249699E+02  0.51100000000E-03 0. -1.
        -11    1    3    3    0    0  0.44835776938E+01 -0.37425533181E+01  0.88192747915E+01  0.10577749401E+02  0.51100000000E-03 0.  1.
         12    1    3    3    0    0  0.12796354977E+02 -0.13141416849E+01  0.21568613730E+02  0.25113318524E+02  0.00000000000E+00 0. -1.
</event>
<event>
 7    1  0.2328810E-008  0.4614231E+02  0.7816164E-02  0.1320468E+00
        -11   -1    0    0    0    0  0.00000000000E+00  0.00000000000E+00  0.45593999997E+02  0.45594000000E+02  0.51100000000E-03 0. -1.
         11   -1    0    0    0    0 -0.00000000000E+00 -0.00000000000E+00 -0.45593999997E+02  0.45594000000E+02  0.51100000000E-03 0.  1.
    9900012    2    1    2    0    0 -0.75164519632E+01 -0.32983150203E+02 -0.29744396689E+02  0.46142307843E+02  0.99999095605E+01 0.  0.
         12    1    1    2    0    0  0.75164519632E+01  0.32983150203E+02  0.29744396689E+02  0.45045692157E+02  0.00000000000E+00 0. -1.
         11    1    3    3    0    0  0.96035281047E+00 -0.73847306201E+01 -0.97008806702E+01  0.12229620186E+02  0.51100000000E-03 0. -1.
        -11    1    3    3    0    0  0.97074138562E-01 -0.17062007913E+01 -0.25743250939E+00  0.17282408069E+01  0.51100000000E-03 0.  1.
        -12    1    3    3    0    0 -0.85738789123E+01 -0.23892218792E+02 -0.19786083510E+02  0.32184446850E+02  0.00000000000E+00 0.  1.
</event>
<event>
 7    1  0.2328810E-008  0.4614232E+02  0.7816164E-02  0.1320468E+00
        -11   -1    0    0    0    0  0.00000000000E+00  0.00000000000E+00  0.45593999997E+02  0.45594000000E+02  0.51100000000E-03 0.  1.
         11   -1    0    0    0    0 -0.00000000000E+00 -0.00000000000E+00 -0.45593999997E+02  0.45594000000E+02  0.51100000000E-03 0. -1.
    9900012    2    1    2    0    0  0.23526765982E+02 -0.25003259165E+02  0.29162336487E+02  0.46142317012E+02  0.99999931731E+01 0.  0.
         12    1    1    2    0    0 -0.23526765982E+02  0.25003259165E+02 -0.29162336487E+02  0.45045682988E+02  0.00000000000E+00 0. -1.
         11    1    3    3    0    0 -0.39126426597E+00 -0.49984667650E+00  0.58351257575E+00  0.86221900525E+00  0.51100000000E-03 0. -1.
        -11    1    3    3    0    0  0.19692286340E+02 -0.19827273641E+02  0.18921294522E+02  0.33747923018E+02  0.51100000000E-03 0.  1.
        -12    1    3    3    0    0  0.42257439079E+01 -0.46761388472E+01  0.96575293888E+01  0.11532174990E+02  0.00000000000E+00 0.  1.
</event>
<event>
 7    1  0.2328810E-008  0.4614232E+02  0.7816164E-02  0.1320468E+00
        -11   -1    0    0    0    0  0.00000000000E+00  0.00000000000E+00  0.45593999997E+02  0.45594000000E+02  0.51100000000E-03 0.  1.
         11   -1    0    0    0    0 -0.00000000000E+00 -0.00000000000E+00 -0.45593999997E+02  0.45594000000E+02  0.51100000000E-03 0. -1.
    9900012    2    1    2    0    0  0.22990713595E+02  0.24711736494E+02  0.29830700177E+02  0.46142317575E+02  0.99999982995E+01 0.  0.
         12    1    1    2    0    0 -0.22990713595E+02 -0.24711736494E+02 -0.29830700177E+02  0.45045682425E+02  0.00000000000E+00 0. -1.
         11    1    3    3    0    0  0.23511731330E+01  0.10484582457E+01  0.46878653435E+01  0.53482110593E+01  0.51100000000E-03 0. -1.
        -11    1    3    3    0    0  0.13456096282E+02  0.18852828525E+02  0.20746083592E+02  0.31094945814E+02  0.51100000000E-03 0.  1.
         12    1    3    3    0    0  0.71834441801E+01  0.48104497227E+01  0.43967512413E+01  0.96991607009E+01  0.00000000000E+00 0. -1.
</event>
<event>
 7    1  0.2328810E-008  0.4614231E+02  0.7816164E-02  0.1320468E+00
        -11   -1    0    0    0    0  0.00000000000E+00  0.00000000000E+00  0.45593999997E+02  0.45594000000E+02  0.51100000000E-03 0.  1.
         11   -1    0    0    0    0 -0.00000000000E+00 -0.00000000000E+00 -0.45593999997E+02  0.45594000000E+02  0.51100000000E-03 0. -1.
    9900012    2    1    2    0    0  0.19327682775E+01  0.39586019276E+02  0.21408534782E+02  0.46142313449E+02  0.99999606815E+01 0.  0.
         12    1    1    2    0    0 -0.19327682775E+01 -0.39586019276E+02 -0.21408534782E+02  0.45045686551E+02  0.00000000000E+00 0. -1.
         11    1    3    3    0    0  0.33223602402E-01  0.19101502670E+00  0.18109675974E+01  0.18213166798E+01  0.51100000000E-03 0. -1.
        -11    1    3    3    0    0  0.15402606542E+01  0.23198226558E+02  0.88364744682E+01  0.24871940005E+02  0.51100000000E-03 0.  1.
         12    1    3    3    0    0  0.35928402080E+00  0.16196777690E+02  0.10761092717E+02  0.19449056764E+02  0.00000000000E+00 0. -1.
</event>
<event>
 7    1  0.2328810E-008  0.4614232E+02  0.7816164E-02  0.1320468E+00
        -11   -1    0    0    0    0  0.00000000000E+00  0.00000000000E+00  0.45593999997E+02  0.45594000000E+02  0.51100000000E-03 0. -1.
         11   -1    0    0    0    0 -0.00000000000E+00 -0.00000000000E+00 -0.45593999997E+02  0.45594000000E+02  0.51100000000E-03 0.  1.
    9900012    2    1    2    0    0  0.92277863586E+01 -0.40207072542E+02 -0.18092891516E+02  0.46142318222E+02  0.10000004201E+02 0.  0.
         12    1    1    2    0    0 -0.92277863586E+01  0.40207072542E+02  0.18092891516E+02  0.45045681778E+02  0.00000000000E+00 0. -1.
         11    1    3    3    0    0  0.74174206837E+00 -0.16824868789E+01 -0.10611256918E+00  0.18417935639E+01  0.51100000000E-03 0. -1.
        -11    1    3    3    0    0  0.21181890990E+01 -0.28636537347E+02 -0.12337823790E+02  0.31253158119E+02  0.51100000000E-03 0.  1.
        -12    1    3    3    0    0  0.63678551912E+01 -0.98880483159E+01 -0.56489551568E+01  0.13047366539E+02  0.00000000000E+00 0.  1.
</event>
<event>
 7    1  0.2328810E-008  0.4614232E+02  0.7816164E-02  0.1320468E+00
        -11   -1    0    0    0    0  0.00000000000E+00  0.00000000000E+00  0.45593999997E+02  0.45594000000E+02  0.51100000000E-03 0.  1.
         11   -1    0    0    0    0 -0.00000000000E+00 -0.00000000000E+00 -0.45593999997E+02  0.45594000000E+02  0.51100000000E-03 0. -1.
    9900012    2    1    2    0    0  0.41217758248E+02 -0.14251675606E+02  0.11273847499E+02  0.46142317743E+02  0.99999998357E+01 0.  0.
         12    1    1    2    0    0 -0.41217758248E+02  0.14251675606E+02 -0.11273847499E+02  0.45045682257E+02  0.00000000000E+00 0. -1.
         11    1    3    3    0    0  0.16462293049E+02 -0.76710030906E+01  0.65801355720E+01  0.19317079625E+02  0.51100000000E-03 0. -1.
        -11    1    3    3    0    0  0.11453808725E+02 -0.58488559601E+01  0.40679549260E+01  0.13488777109E+02  0.51100000000E-03 0.  1.
         12    1    3    3    0    0  0.13301656474E+02 -0.73181655549E+00  0.62575700129E+00  0.13336461009E+02  0.00000000000E+00 0. -1.
</event>
<event>
 7    1  0.2328810E-008  0.4614232E+02  0.7816164E-02  0.1320468E+00
        -11   -1    0    0    0    0  0.00000000000E+00  0.00000000000E+00  0.45593999997E+02  0.45594000000E+02  0.51100000000E-03 0.  1.
         11   -1    0    0    0    0 -0.00000000000E+00 -0.00000000000E+00 -0.45593999997E+02  0.45594000000E+02  0.51100000000E-03 0. -1.
    9900012    2    1    2    0    0 -0.23845400377E+02  0.29762443181E+02 -0.23973053429E+02  0.46142318365E+02  0.10000005507E+02 0.  0.
         12    1    1    2    0    0  0.23845400377E+02 -0.29762443181E+02  0.23973053429E+02  0.45045681635E+02  0.00000000000E+00 0. -1.
         11    1    3    3    0    0  0.46926587892E+00  0.51438485465E-01  0.92462501941E-01  0.48104673192E+00  0.51100000000E-03 0. -1.
        -11    1    3    3    0    0 -0.15242184712E+01  0.16568049293E+01 -0.24435446615E-01  0.22514088642E+01  0.51100000000E-03 0.  1.
        -12    1    3    3    0    0 -0.22790447785E+02  0.28054199766E+02 -0.24041080484E+02  0.43409862769E+02  0.00000000000E+00 0.  1.
</event>
<event>
 7    1  0.2328810E-008  0.4614232E+02  0.7816164E-02  0.1320468E+00
        -11   -1    0    0    0    0  0.00000000000E+00  0.00000000000E+00  0.45593999997E+02  0.45594000000E+02  0.51100000000E-03 0.  1.
         11   -1    0    0    0    0 -0.00000000000E+00 -0.00000000000E+00 -0.45593999997E+02  0.45594000000E+02  0.51100000000E-03 0. -1.
    9900012    2    1    2    0    0 -0.16714650640E+02 -0.45098346892E+01  0.41585999877E+02  0.46142317181E+02  0.99999947056E+01 0.  0.
         12    1    1    2    0    0  0.16714650640E+02  0.45098346892E+01 -0.41585999877E+02  0.45045682819E+02  0.00000000000E+00 0. -1.
         11    1    3    3    0    0 -0.79861054562E+01  0.10882690374E+00  0.93992215106E+01  0.12334305368E+02  0.51100000000E-03 0.  1.
        -11    1    3    3    0    0  0.10411846040E+00  0.91570153988E-01  0.20001351080E+01  0.20049355247E+01  0.51100000000E-03 0. -1.
        -12    1    3    3    0    0 -0.88326636439E+01 -0.47102317469E+01  0.30186643258E+02  0.31803076287E+02  0.00000000000E+00 0.  1.
</event>
<event>
 7    1  0.2328810E-008  0.4614232E+02  0.7816164E-02  0.1320468E+00
        -11   -1    0    0    0    0  0.00000000000E+00  0.00000000000E+00  0.45593999997E+02  0.45594000000E+02  0.51100000000E-03 0.  1.
         11   -1    0    0    0    0 -0.00000000000E+00 -0.00000000000E+00 -0.45593999997E+02  0.45594000000E+02  0.51100000000E-03 0. -1.
    9900012    2    1    2    0    0  0.40696396579E+02 -0.17262224315E+02  0.86563526271E+01  0.46142317370E+02  0.99999964308E+01 0.  0.
         12    1    1    2    0    0 -0.40696396579E+02  0.17262224315E+02 -0.86563526271E+01  0.45045682630E+02  0.00000000000E+00 0. -1.
         11    1    3    3    0    0  0.46555870324E+00  0.20276240957E-01 -0.52344134993E+00  0.70081890674E+00  0.51100000000E-03 0. -1.
        -11    1    3    3    0    0  0.16418940614E+02 -0.48530240099E+01  0.69852687925E+01  0.18491279926E+02  0.51100000000E-03 0.  1.
        -12    1    3    3    0    0  0.23811897262E+02 -0.12429476546E+02  0.21945251845E+01  0.26950218537E+02  0.00000000000E+00 0.  1.
</event>
<event>
 7    1  0.2328810E-008  0.4614232E+02  0.7816164E-02  0.1320468E+00
        -11   -1    0    0    0    0  0.00000000000E+00  0.00000000000E+00  0.45593999997E+02  0.45594000000E+02  0.51100000000E-03 0. -1.
         11   -1    0    0    0    0 -0.00000000000E+00 -0.00000000000E+00 -0.45593999997E+02  0.45594000000E+02  0.51100000000E-03 0.  1.
    9900012    2    1    2    0    0  0.12238644123E+02 -0.38263634194E+02 -0.20377028997E+02  0.46142318493E+02  0.10000006671E+02 0.  0.
         12    1    1    2    0    0 -0.12238644123E+02  0.38263634194E+02  0.20377028997E+02  0.45045681507E+02  0.00000000000E+00 0. -1.
         11    1    3    3    0    0  0.10833070463E+01 -0.82312622822E+01 -0.52521874735E+01  0.98240880714E+01  0.51100000000E-03 0. -1.
        -11    1    3    3    0    0  0.61493384780E+01 -0.17172381456E+02 -0.12898027952E+02  0.22339744266E+02  0.51100000000E-03 0.  1.
        -12    1    3    3    0    0  0.50059985985E+01 -0.12859990456E+02 -0.22268135716E+01  0.13978486155E+02  0.00000000000E+00 0.  1.
</event>
<event>
 7    1  0.2328810E-008  0.4614232E+02  0.7816164E-02  0.1320468E+00
        -11   -1    0    0    0    0  0.00000000000E+00  0.00000000000E+00  0.45593999997E+02  0.45594000000E+02  0.51100000000E-03 0.  1.
         11   -1    0    0    0    0 -0.00000000000E+00 -0.00000000000E+00 -0.45593999997E+02  0.45594000000E+02  0.51100000000E-03 0. -1.
    9900012    2    1    2    0    0 -0.11943560398E+02  0.36597551868E+02  0.23389824964E+02  0.46142319302E+02  0.10000014055E+02 0.  0.
         12    1    1    2    0    0  0.11943560398E+02 -0.36597551868E+02 -0.23389824964E+02  0.45045680698E+02  0.00000000000E+00 0. -1.
         11    1    3    3    0    0  0.65805064647E+00  0.54329056992E+01  0.54893893993E+01  0.77513154515E+01  0.51100000000E-03 0. -1.
        -11    1    3    3    0    0 -0.68043710206E+01  0.18009167247E+02  0.12881900071E+02  0.23164043680E+02  0.51100000000E-03 0.  1.
        -12    1    3    3    0    0 -0.57972400237E+01  0.13155478922E+02  0.50185354933E+01  0.15226960171E+02  0.00000000000E+00 0.  1.
</event>
<event>
 7    1  0.2328810E-008  0.4614232E+02  0.7816164E-02  0.1320468E+00
        -11   -1    0    0    0    0  0.00000000000E+00  0.00000000000E+00  0.45593999997E+02  0.45594000000E+02  0.51100000000E-03 0.  1.
         11   -1    0    0    0    0 -0.00000000000E+00 -0.00000000000E+00 -0.45593999997E+02  0.45594000000E+02  0.51100000000E-03 0. -1.
    9900012    2    1    2    0    0  0.12517171039E+01  0.43983769235E+02  0.96423404206E+01  0.46142317847E+02  0.10000000783E+02 0.  0.
         12    1    1    2    0    0 -0.12517171039E+01 -0.43983769235E+02 -0.96423404206E+01  0.45045682153E+02  0.00000000000E+00 0. -1.
         11    1    3    3    0    0  0.46519545075E+01  0.19183782964E+02  0.68325438409E+01  0.20888797599E+02  0.51100000000E-03 0. -1.
        -11    1    3    3    0    0 -0.12704368843E+01  0.15485096639E+02  0.15120885204E+01  0.15610529771E+02  0.51100000000E-03 0.  1.
         12    1    3    3    0    0 -0.21298005193E+01  0.93148896331E+01  0.12977080593E+01  0.96429904768E+01  0.00000000000E+00 0. -1.
</event>
<event>
 7    1  0.2328810E-008  0.4614232E+02  0.7816164E-02  0.1320468E+00
        -11   -1    0    0    0    0  0.00000000000E+00  0.00000000000E+00  0.45593999997E+02  0.45594000000E+02  0.51100000000E-03 0. -1.
         11   -1    0    0    0    0 -0.00000000000E+00 -0.00000000000E+00 -0.45593999997E+02  0.45594000000E+02  0.51100000000E-03 0.  1.
    9900012    2    1    2    0    0 -0.37657957301E+02 -0.13282713619E+01 -0.24682533735E+02  0.46142317361E+02  0.99999963470E+01 0.  0.
         12    1    1    2    0    0  0.37657957301E+02  0.13282713619E+01  0.24682533735E+02  0.45045682639E+02  0.00000000000E+00 0. -1.
         11    1    3    3    0    0 -0.25314550396E+02 -0.68501327078E+00 -0.12756464221E+02  0.28355300821E+02  0.51100000000E-03 0. -1.
        -11    1    3    3    0    0 -0.10857134864E+02 -0.20697592936E+01 -0.10732776730E+02  0.15406290195E+02  0.51100000000E-03 0.  1.
         12    1    3    3    0    0 -0.14862720413E+01  0.14265012025E+01 -0.11932927833E+01  0.23807263446E+01  0.00000000000E+00 0. -1.
</event>
<event>
 7    1  0.2328810E-008  0.4614231E+02  0.7816164E-02  0.1320468E+00
        -11   -1    0    0    0    0  0.00000000000E+00  0.00000000000E+00  0.45593999997E+02  0.45594000000E+02  0.51100000000E-03 0.  1.
         11   -1    0    0    0    0 -0.00000000000E+00 -0.00000000000E+00 -0.45593999997E+02  0.45594000000E+02  0.51100000000E-03 0. -1.
    9900012    2    1    2    0    0 -0.94205859962E+01  0.14485551867E+02  0.41599703104E+02  0.46142312618E+02  0.99999531004E+01 0.  0.
         12    1    1    2    0    0  0.94205859962E+01 -0.14485551867E+02 -0.41599703104E+02  0.45045687382E+02  0.00000000000E+00 0. -1.
         11    1    3    3    0    0 -0.95454626510E+01  0.12223094068E+02  0.25925668075E+02  0.30210265659E+02  0.51100000000E-03 0. -1.
        -11    1    3    3    0    0 -0.52012752482E+00  0.31863704802E+00  0.66793727155E+01  0.67071664915E+01  0.51100000000E-03 0.  1.
         12    1    3    3    0    0  0.64500417955E+00  0.19438207511E+01  0.89946623131E+01  0.92248804670E+01  0.00000000000E+00 0. -1.
</event>
<event>
 7    1  0.2328810E-008  0.4614232E+02  0.7816164E-02  0.1320468E+00
        -11   -1    0    0    0    0  0.00000000000E+00  0.00000000000E+00  0.45593999997E+02  0.45594000000E+02  0.51100000000E-03 0. -1.
         11   -1    0    0    0    0 -0.00000000000E+00 -0.00000000000E+00 -0.45593999997E+02  0.45594000000E+02  0.51100000000E-03 0.  1.
    9900012    2    1    2    0    0 -0.19027888405E+02 -0.20824726618E+02 -0.35119563138E+02  0.46142317733E+02  0.99999997461E+01 0.  0.
         12    1    1    2    0    0  0.19027888405E+02  0.20824726618E+02  0.35119563138E+02  0.45045682267E+02  0.00000000000E+00 0. -1.
         11    1    3    3    0    0 -0.23523878061E+01 -0.40160732106E+01 -0.94949373562E+01  0.10574327784E+02  0.51100000000E-03 0. -1.
        -11    1    3    3    0    0 -0.53909051551E+01 -0.70216716031E+01 -0.14319039325E+02  0.16834506763E+02  0.51100000000E-03 0.  1.
         12    1    3    3    0    0 -0.11284595444E+02 -0.97869818040E+01 -0.11305586457E+02  0.18733483187E+02  0.00000000000E+00 0. -1.
</event>
<event>
 7    1  0.2328810E-008  0.4614232E+02  0.7816164E-02  0.1320468E+00
        -11   -1    0    0    0    0  0.00000000000E+00  0.00000000000E+00  0.45593999997E+02  0.45594000000E+02  0.51100000000E-03 0. -1.
         11   -1    0    0    0    0 -0.00000000000E+00 -0.00000000000E+00 -0.45593999997E+02  0.45594000000E+02  0.51100000000E-03 0.  1.
    9900012    2    1    2    0    0  0.16186493102E+02 -0.22666033698E+02 -0.35402850994E+02  0.46142317621E+02  0.99999987181E+01 0.  0.
         12    1    1    2    0    0 -0.16186493102E+02  0.22666033698E+02  0.35402850994E+02  0.45045682379E+02  0.00000000000E+00 0. -1.
         11    1    3    3    0    0  0.19457596421E+01  0.78038274149E+00 -0.23360674624E+01  0.31388197237E+01  0.51100000000E-03 0. -1.
        -11    1    3    3    0    0  0.59209289781E+01 -0.84247644388E+01 -0.13279774376E+02  0.16804358469E+02  0.51100000000E-03 0.  1.
         12    1    3    3    0    0  0.83198044817E+01 -0.15021652000E+02 -0.19787009156E+02  0.26199139428E+02  0.00000000000E+00 0. -1.
</event>
<event>
 7    1  0.2328810E-008  0.4614232E+02  0.7816164E-02  0.1320468E+00
        -11   -1    0    0    0    0  0.00000000000E+00  0.00000000000E+00  0.45593999997E+02  0.45594000000E+02  0.51100000000E-03 0. -1.
         11   -1    0    0    0    0 -0.00000000000E+00 -0.00000000000E+00 -0.45593999997E+02  0.45594000000E+02  0.51100000000E-03 0.  1.
    9900012    2    1    2    0    0 -0.26822286655E+02 -0.32747735915E+02 -0.15403380984E+02  0.46142318578E+02  0.10000007451E+02 0.  0.
         12    1    1    2    0    0  0.26822286655E+02  0.32747735915E+02  0.15403380984E+02  0.45045681422E+02  0.00000000000E+00 0. -1.
         11    1    3    3    0    0 -0.88561148475E+01 -0.16237243610E+02 -0.33371065484E+01  0.18794018479E+02  0.51100000000E-03 0. -1.
        -11    1    3    3    0    0 -0.84499470823E+01 -0.74309546566E+01 -0.41296018298E+01  0.11986421665E+02  0.51100000000E-03 0.  1.
         12    1    3    3    0    0 -0.95162247257E+01 -0.90795376492E+01 -0.79366726058E+01  0.15361878433E+02  0.00000000000E+00 0. -1.
</event>
<event>
 7    1  0.2328810E-008  0.4614231E+02  0.7816164E-02  0.1320468E+00
        -11   -1    0    0    0    0  0.00000000000E+00  0.00000000000E+00  0.45593999997E+02  0.45594000000E+02  0.51100000000E-03 0.  1.
         11   -1    0    0    0    0 -0.00000000000E+00 -0.00000000000E+00 -0.45593999997E+02  0.45594000000E+02  0.51100000000E-03 0. -1.
    9900012    2    1    2    0    0 -0.44197434195E+02  0.32353502330E-01  0.87005562257E+01  0.46142313027E+02  0.99999568348E+01 0.  0.
         12    1    1    2    0    0  0.44197434195E+02 -0.32353502330E-01 -0.87005562257E+01  0.45045686973E+02  0.00000000000E+00 0. -1.
         11    1    3    3    0    0 -0.87021244928E+01 -0.17413076954E+01  0.27403800774E+01  0.92881002583E+01  0.51100000000E-03 0. -1.
        -11    1    3    3    0    0 -0.25998326638E+02 -0.21573299978E+01  0.40623709947E+01  0.26402081719E+02  0.51100000000E-03 0.  1.
         12    1    3    3    0    0 -0.94969830640E+01  0.39309911955E+01  0.18978051537E+01  0.10452131051E+02  0.00000000000E+00 0. -1.
</event>
<event>
 7    1  0.2328810E-008  0.4614232E+02  0.7816164E-02  0.1320468E+00
        -11   -1    0    0    0    0  0.00000000000E+00  0.00000000000E+00  0.45593999997E+02  0.45594000000E+02  0.51100000000E-03 0.  1.
         11   -1    0    0    0    0 -0.00000000000E+00 -0.00000000000E+00 -0.45593999997E+02  0.45594000000E+02  0.51100000000E-03 0. -1.
    9900012    2    1    2    0    0 -0.21926740579E+02  0.19035177249E+02  0.34438257937E+02  0.46142317243E+02  0.99999952712E+01 0.  0.
         12    1    1    2    0    0  0.21926740579E+02 -0.19035177249E+02 -0.34438257937E+02  0.45045682757E+02  0.00000000000E+00 0. -1.
         11    1    3    3    0    0 -0.24226204409E+01  0.14804449374E+01  0.20711356073E+01  0.35143150084E+01  0.51100000000E-03 0. -1.
        -11    1    3    3    0    0 -0.17296574523E+02  0.11885125032E+02  0.28593563117E+02  0.35468571148E+02  0.51100000000E-03 0.  1.
        -12    1    3    3    0    0 -0.22075456148E+01  0.56696072798E+01  0.37735592132E+01  0.71594310866E+01  0.00000000000E+00 0.  1.
</event>
<event>
 7    1  0.2328810E-008  0.4614232E+02  0.7816164E-02  0.1320468E+00
        -11   -1    0    0    0    0  0.00000000000E+00  0.00000000000E+00  0.45593999997E+02  0.45594000000E+02  0.51100000000E-03 0.  1.
         11   -1    0    0    0    0 -0.00000000000E+00 -0.00000000000E+00 -0.45593999997E+02  0.45594000000E+02  0.51100000000E-03 0. -1.
    9900012    2    1    2    0    0 -0.84650538185E+01 -0.21595208475E+02  0.38614806853E+02  0.46142317926E+02  0.10000001499E+02 0.  0.
         12    1    1    2    0    0  0.84650538185E+01  0.21595208475E+02 -0.38614806853E+02  0.45045682074E+02  0.00000000000E+00 0. -1.
         11    1    3    3    0    0 -0.71346373083E+01 -0.71801655162E+01  0.12724457395E+02  0.16259447795E+02  0.51100000000E-03 0. -1.
        -11    1    3    3    0    0 -0.18347191061E+01 -0.41019650173E+01  0.63053370730E+01  0.77427118677E+01  0.51100000000E-03 0.  1.
        -12    1    3    3    0    0  0.50430259594E+00 -0.10313077941E+02  0.19585012386E+02  0.22140158262E+02  0.00000000000E+00 0.  1.
</event>
<event>
 7    1  0.2328810E-008  0.4614232E+02  0.7816164E-02  0.1320468E+00
        -11   -1    0    0    0    0  0.00000000000E+00  0.00000000000E+00  0.45593999997E+02  0.45594000000E+02  0.51100000000E-03 0.  1.
         11   -1    0    0    0    0 -0.00000000000E+00 -0.00000000000E+00 -0.45593999997E+02  0.45594000000E+02  0.51100000000E-03 0. -1.
    9900012    2    1    2    0    0  0.19089207258E+02  0.24704943402E+02  0.32471240236E+02  0.46142317580E+02  0.99999983496E+01 0.  0.
         12    1    1    2    0    0 -0.19089207258E+02 -0.24704943402E+02 -0.32471240236E+02  0.45045682420E+02  0.00000000000E+00 0. -1.
         11    1    3    3    0    0  0.51285568352E+01  0.95110126821E+01  0.11880323950E+02  0.16059375918E+02  0.51100000000E-03 0.  1.
        -11    1    3    3    0    0  0.13724760251E+01 -0.31783919529E-01 -0.21773928651E+00  0.13900040702E+01  0.51100000000E-03 0. -1.
        -12    1    3    3    0    0  0.12588174398E+02  0.15225714639E+02  0.20808655572E+02  0.28692937592E+02  0.00000000000E+00 0.  1.
</event>
<event>
 7    1  0.2328810E-008  0.4614232E+02  0.7816164E-02  0.1320468E+00
        -11   -1    0    0    0    0  0.00000000000E+00  0.00000000000E+00  0.45593999997E+02  0.45594000000E+02  0.51100000000E-03 0.  1.
         11   -1    0    0    0    0 -0.00000000000E+00 -0.00000000000E+00 -0.45593999997E+02  0.45594000000E+02  0.51100000000E-03 0. -1.
    9900012    2    1    2    0    0 -0.29194424622E+02 -0.12662107890E+01  0.34281128742E+02  0.46142317559E+02  0.99999981575E+01 0.  0.
         12    1    1    2    0    0  0.29194424622E+02  0.12662107890E+01 -0.34281128742E+02  0.45045682441E+02  0.00000000000E+00 0. -1.
         11    1    3    3    0    0 -0.27108037644E+01  0.60060658590E+00  0.36365954790E+01  0.45753701772E+01  0.51100000000E-03 0. -1.
        -11    1    3    3    0    0 -0.21600399919E+02  0.16425465383E+01  0.26667292429E+02  0.34357236815E+02  0.51100000000E-03 0.  1.
         12    1    3    3    0    0 -0.48832209384E+01 -0.35093639133E+01  0.39772408333E+01  0.72097105666E+01  0.00000000000E+00 0. -1.
</event>
<event>
 7    1  0.2328810E-008  0.4614232E+02  0.7816164E-02  0.1320468E+00
        -11   -1    0    0    0    0  0.00000000000E+00  0.00000000000E+00  0.45593999997E+02  0.45594000000E+02  0.51100000000E-03 0. -1.
         11   -1    0    0    0    0 -0.00000000000E+00 -0.00000000000E+00 -0.45593999997E+02  0.45594000000E+02  0.51100000000E-03 0.  1.
    9900012    2    1    2    0    0 -0.29545306399E+01  0.64413360475E+01 -0.44484753828E+02  0.46142318914E+02  0.10000010512E+02 0.  0.
         12    1    1    2    0    0  0.29545306399E+01 -0.64413360475E+01  0.44484753828E+02  0.45045681086E+02  0.00000000000E+00 0. -1.
         11    1    3    3    0    0 -0.38653669739E+01  0.11137255910E+01 -0.81476587969E+01  0.90865719976E+01  0.51100000000E-03 0. -1.
        -11    1    3    3    0    0  0.85456304827E+00  0.56457552867E+01 -0.36281295001E+02  0.36727880390E+02  0.51100000000E-03 0.  1.
        -12    1    3    3    0    0  0.56273285731E-01 -0.31814483022E+00 -0.55800030320E-01  0.32786652629E+00  0.00000000000E+00 0.  1.
</event>
<event>
 7    1  0.2328810E-008  0.4614232E+02  0.7816164E-02  0.1320468E+00
        -11   -1    0    0    0    0  0.00000000000E+00  0.00000000000E+00  0.45593999997E+02  0.45594000000E+02  0.51100000000E-03 0. -1.
         11   -1    0    0    0    0 -0.00000000000E+00 -0.00000000000E+00 -0.45593999997E+02  0.45594000000E+02  0.51100000000E-03 0.  1.
    9900012    2    1    2    0    0 -0.17562936971E+02 -0.22276440504E+02 -0.34991670324E+02  0.46142317092E+02  0.99999938989E+01 0.  0.
         12    1    1    2    0    0  0.17562936971E+02  0.22276440504E+02  0.34991670324E+02  0.45045682908E+02  0.00000000000E+00 0. -1.
         11    1    3    3    0    0 -0.19493915012E+01 -0.32533165647E+01 -0.36726594942E+01  0.52794529941E+01  0.51100000000E-03 0. -1.
        -11    1    3    3    0    0 -0.16774505502E+02 -0.18183098560E+02 -0.28814919534E+02  0.37977739481E+02  0.51100000000E-03 0.  1.
         12    1    3    3    0    0  0.11609600329E+01 -0.84002537975E+00 -0.25040912963E+01  0.28851246172E+01  0.00000000000E+00 0. -1.
</event>
<event>
 7    1  0.2328810E-008  0.4614232E+02  0.7816164E-02  0.1320468E+00
        -11   -1    0    0    0    0  0.00000000000E+00  0.00000000000E+00  0.45593999997E+02  0.45594000000E+02  0.51100000000E-03 0.  1.
         11   -1    0    0    0    0 -0.00000000000E+00 -0.00000000000E+00 -0.45593999997E+02  0.45594000000E+02  0.51100000000E-03 0. -1.
    9900012    2    1    2    0    0 -0.95874608654E+01  0.41779482483E+02  0.13844451113E+02  0.46142318864E+02  0.10000010059E+02 0.  0.
         12    1    1    2    0    0  0.95874608654E+01 -0.41779482483E+02 -0.13844451113E+02  0.45045681136E+02  0.00000000000E+00 0. -1.
         11    1    3    3    0    0  0.63092858834E+00  0.79296627752E+01  0.21545274071E+01  0.82413355241E+01  0.51100000000E-03 0. -1.
        -11    1    3    3    0    0 -0.75120662775E+01  0.13780701456E+02  0.65571981271E+01  0.17009871249E+02  0.51100000000E-03 0.  1.
        -12    1    3    3    0    0 -0.27063231762E+01  0.20069118252E+02  0.51327255791E+01  0.20891112091E+02  0.00000000000E+00 0.  1.
</event>
<event>
 7    1  0.2328810E-008  0.4614232E+02  0.7816164E-02  0.1320468E+00
        -11   -1    0    0    0    0  0.00000000000E+00  0.00000000000E+00  0.45593999997E+02  0.45594000000E+02  0.51100000000E-03 0. -1.
         11   -1    0    0    0    0 -0.00000000000E+00 -0.00000000000E+00 -0.45593999997E+02  0.45594000000E+02  0.51100000000E-03 0.  1.
    9900012    2    1    2    0    0 -0.28482936959E+01  0.28314890610E+02 -0.34918013769E+02  0.46142317712E+02  0.99999995515E+01 0.  0.
         12    1    1    2    0    0  0.28482936959E+01 -0.28314890610E+02  0.34918013769E+02  0.45045682288E+02  0.00000000000E+00 0. -1.
         11    1    3    3    0    0  0.58940812012E+00  0.96006142769E+01 -0.14466897330E+02  0.17372688768E+02  0.51100000000E-03 0. -1.
        -11    1    3    3    0    0 -0.11408401402E+01  0.15750922883E+02 -0.19102814480E+02  0.24785290178E+02  0.51100000000E-03 0.  1.
         12    1    3    3    0    0 -0.22968616758E+01  0.29633534503E+01 -0.13483019596E+01  0.39843387661E+01  0.00000000000E+00 0. -1.
</event>
<event>
 7    1  0.2328810E-008  0.4614232E+02  0.7816164E-02  0.1320468E+00
        -11   -1    0    0    0    0  0.00000000000E+00  0.00000000000E+00  0.45593999997E+02  0.45594000000E+02  0.51100000000E-03 0. -1.
         11   -1    0    0    0    0 -0.00000000000E+00 -0.00000000000E+00 -0.45593999997E+02  0.45594000000E+02  0.51100000000E-03 0.  1.
    9900012    2    1    2    0    0  0.21152790611E+02  0.20949369377E+02 -0.33805277945E+02  0.46142318244E+02  0.10000004399E+02 0.  0.
         12    1    1    2    0    0 -0.21152790611E+02 -0.20949369377E+02  0.33805277945E+02  0.45045681756E+02  0.00000000000E+00 0. -1.
         11    1    3    3    0    0  0.23774761683E+01  0.58108153113E+01 -0.10708194224E+02  0.12413033123E+02  0.51100000000E-03 0. -1.
        -11    1    3    3    0    0  0.47050048596E+01  0.17948378712E+01 -0.33203242603E+01  0.60318377936E+01  0.51100000000E-03 0.  1.
         12    1    3    3    0    0  0.14070309583E+02  0.13343716195E+02 -0.19776759461E+02  0.27697447327E+02  0.00000000000E+00 0. -1.
</event>
<event>
 7    1  0.2328810E-008  0.4614232E+02  0.7816164E-02  0.1320468E+00
        -11   -1    0    0    0    0  0.00000000000E+00  0.00000000000E+00  0.45593999997E+02  0.45594000000E+02  0.51100000000E-03 0.  1.
         11   -1    0    0    0    0 -0.00000000000E+00 -0.00000000000E+00 -0.45593999997E+02  0.45594000000E+02  0.51100000000E-03 0. -1.
    9900012    2    1    2    0    0 -0.36073681286E+02 -0.13423067872E+02  0.23401367093E+02  0.46142320802E+02  0.10000027727E+02 0.  0.
         12    1    1    2    0    0  0.36073681286E+02  0.13423067872E+02 -0.23401367093E+02  0.45045679198E+02  0.00000000000E+00 0. -1.
         11    1    3    3    0    0 -0.13169561986E+02 -0.35194183351E+01  0.12207968195E+02  0.18299129925E+02  0.51100000000E-03 0. -1.
        -11    1    3    3    0    0 -0.12217773096E+02 -0.76537145543E+01  0.78846564199E+01  0.16432319770E+02  0.51100000000E-03 0.  1.
         12    1    3    3    0    0 -0.10686346204E+02 -0.22499349829E+01  0.33087424784E+01  0.11410871106E+02  0.00000000000E+00 0. -1.
</event>
<event>
 7    1  0.2328810E-008  0.4614232E+02  0.7816164E-02  0.1320468E+00
        -11   -1    0    0    0    0  0.00000000000E+00  0.00000000000E+00  0.45593999997E+02  0.45594000000E+02  0.51100000000E-03 0.  1.
         11   -1    0    0    0    0 -0.00000000000E+00 -0.00000000000E+00 -0.45593999997E+02  0.45594000000E+02  0.51100000000E-03 0. -1.
    9900012    2    1    2    0    0 -0.30374823443E+02 -0.33021309469E+02  0.40095758706E+01  0.46142317889E+02  0.10000001162E+02 0.  0.
         12    1    1    2    0    0  0.30374823443E+02  0.33021309469E+02 -0.40095758706E+01  0.45045682111E+02  0.00000000000E+00 0. -1.
         11    1    3    3    0    0 -0.85833846137E+01 -0.80745513260E+01 -0.15791160164E+01  0.11889763589E+02  0.51100000000E-03 0. -1.
        -11    1    3    3    0    0 -0.16685792719E+02 -0.15514752765E+02  0.58531087033E+01  0.23524075195E+02  0.51100000000E-03 0.  1.
        -12    1    3    3    0    0 -0.51056461102E+01 -0.94320053777E+01 -0.26441681634E+00  0.10728479105E+02  0.00000000000E+00 0.  1.
</event>
<event>
 7    1  0.2328810E-008  0.4614232E+02  0.7816164E-02  0.1320468E+00
        -11   -1    0    0    0    0  0.00000000000E+00  0.00000000000E+00  0.45593999997E+02  0.45594000000E+02  0.51100000000E-03 0.  1.
         11   -1    0    0    0    0 -0.00000000000E+00 -0.00000000000E+00 -0.45593999997E+02  0.45594000000E+02  0.51100000000E-03 0. -1.
    9900012    2    1    2    0    0  0.73120045800E+00 -0.41090444148E+01  0.44851918272E+02  0.46142317934E+02  0.10000001578E+02 0.  0.
         12    1    1    2    0    0 -0.73120045800E+00  0.41090444148E+01 -0.44851918272E+02  0.45045682066E+02  0.00000000000E+00 0. -1.
         11    1    3    3    0    0 -0.16871315465E+01  0.17882887935E+01  0.58579353602E+01  0.63529360621E+01  0.51100000000E-03 0. -1.
        -11    1    3    3    0    0 -0.60520307935E+00 -0.12616291952E+01  0.18760180173E+02  0.18812292241E+02  0.51100000000E-03 0.  1.
        -12    1    3    3    0    0  0.30235350839E+01 -0.46357040131E+01  0.20233802739E+02  0.20977089631E+02  0.00000000000E+00 0.  1.
</event>
<event>
 7    1  0.2328810E-008  0.4614232E+02  0.7816164E-02  0.1320468E+00
        -11   -1    0    0    0    0  0.00000000000E+00  0.00000000000E+00  0.45593999997E+02  0.45594000000E+02  0.51100000000E-03 0.  1.
         11   -1    0    0    0    0 -0.00000000000E+00 -0.00000000000E+00 -0.45593999997E+02  0.45594000000E+02  0.51100000000E-03 0. -1.
    9900012    2    1    2    0    0 -0.25730812592E+02 -0.26438824444E+02  0.25846214450E+02  0.46142323671E+02  0.10000053889E+02 0.  0.
         12    1    1    2    0    0  0.25730812592E+02  0.26438824444E+02 -0.25846214450E+02  0.45045676329E+02  0.00000000000E+00 0. -1.
         11    1    3    3    0    0 -0.30301420823E+01 -0.51426312674E+01  0.32251889289E+01  0.67845605075E+01  0.51100000000E-03 0. -1.
        -11    1    3    3    0    0 -0.68649693014E+01 -0.21868881683E+01  0.33992899754E+01  0.79665209450E+01  0.51100000000E-03 0.  1.
        -12    1    3    3    0    0 -0.15835701208E+02 -0.19109305008E+02  0.19221735545E+02  0.31391242218E+02  0.00000000000E+00 0.  1.
</event>
<event>
 7    1  0.2328810E-008  0.4614232E+02  0.7816164E-02  0.1320468E+00
        -11   -1    0    0    0    0  0.00000000000E+00  0.00000000000E+00  0.45593999997E+02  0.45594000000E+02  0.51100000000E-03 0. -1.
         11   -1    0    0    0    0 -0.00000000000E+00 -0.00000000000E+00 -0.45593999997E+02  0.45594000000E+02  0.51100000000E-03 0.  1.
    9900012    2    1    2    0    0  0.28501142271E+02  0.26883580613E+02 -0.22227722268E+02  0.46142315916E+02  0.99999831780E+01 0.  0.
         12    1    1    2    0    0 -0.28501142271E+02 -0.26883580613E+02  0.22227722268E+02  0.45045684084E+02  0.00000000000E+00 0. -1.
         11    1    3    3    0    0  0.84827959444E+01  0.68920827166E+01 -0.45947245166E+01  0.11856227260E+02  0.51100000000E-03 0. -1.
        -11    1    3    3    0    0  0.14238977251E+02  0.86706467064E+01 -0.93404321604E+01  0.19109480910E+02  0.51100000000E-03 0.  1.
        -12    1    3    3    0    0  0.57793690760E+01  0.11320851190E+02 -0.82925655908E+01  0.15176607745E+02  0.00000000000E+00 0.  1.
</event>
<event>
 7    1  0.2328810E-008  0.4614232E+02  0.7816164E-02  0.1320468E+00
        -11   -1    0    0    0    0  0.00000000000E+00  0.00000000000E+00  0.45593999997E+02  0.45594000000E+02  0.51100000000E-03 0. -1.
         11   -1    0    0    0    0 -0.00000000000E+00 -0.00000000000E+00 -0.45593999997E+02  0.45594000000E+02  0.51100000000E-03 0.  1.
    9900012    2    1    2    0    0 -0.27727979233E+02  0.17274867091E+02 -0.31013733423E+02  0.46142317341E+02  0.99999961675E+01 0.  0.
         12    1    1    2    0    0  0.27727979233E+02 -0.17274867091E+02  0.31013733423E+02  0.45045682659E+02  0.00000000000E+00 0. -1.
         11    1    3    3    0    0 -0.16917060425E+02  0.14468612534E+02 -0.17113442447E+02  0.28078418665E+02  0.51100000000E-03 0. -1.
        -11    1    3    3    0    0  0.10747391560E-01 -0.25876852888E-01 -0.95384028429E+00  0.95425188865E+00  0.51100000000E-03 0.  1.
        -12    1    3    3    0    0 -0.10821666200E+02  0.28321314103E+01 -0.12946450692E+02  0.17109646787E+02  0.00000000000E+00 0.  1.
</event>
<event>
 7    1  0.2328810E-008  0.4614232E+02  0.7816164E-02  0.1320468E+00
        -11   -1    0    0    0    0  0.00000000000E+00  0.00000000000E+00  0.45593999997E+02  0.45594000000E+02  0.51100000000E-03 0.  1.
         11   -1    0    0    0    0 -0.00000000000E+00 -0.00000000000E+00 -0.45593999997E+02  0.45594000000E+02  0.51100000000E-03 0. -1.
    9900012    2    1    2    0    0 -0.10598256074E+01  0.43835684028E+02  0.10316155147E+02  0.46142317837E+02  0.10000000690E+02 0.  0.
         12    1    1    2    0    0  0.10598256074E+01 -0.43835684028E+02 -0.10316155147E+02  0.45045682163E+02  0.00000000000E+00 0. -1.
         11    1    3    3    0    0  0.66985087661E+00  0.37430325682E+01  0.29880581540E+01  0.48360608760E+01  0.51100000000E-03 0. -1.
        -11    1    3    3    0    0  0.91276151270E-01  0.11316621224E+02  0.50200691183E+01  0.12380441893E+02  0.51100000000E-03 0.  1.
         12    1    3    3    0    0 -0.18209526352E+01  0.28776030236E+02  0.23080278752E+01  0.28925815067E+02  0.00000000000E+00 0. -1.
</event>
<event>
 7    1  0.2328810E-008  0.4614232E+02  0.7816164E-02  0.1320468E+00
        -11   -1    0    0    0    0  0.00000000000E+00  0.00000000000E+00  0.45593999997E+02  0.45594000000E+02  0.51100000000E-03 0. -1.
         11   -1    0    0    0    0 -0.00000000000E+00 -0.00000000000E+00 -0.45593999997E+02  0.45594000000E+02  0.51100000000E-03 0.  1.
    9900012    2    1    2    0    0  0.21042033429E+02  0.34317986966E+02 -0.20214401476E+02  0.46142318439E+02  0.10000006184E+02 0.  0.
         12    1    1    2    0    0 -0.21042033429E+02 -0.34317986966E+02  0.20214401476E+02  0.45045681561E+02  0.00000000000E+00 0. -1.
         11    1    3    3    0    0  0.17823457990E+00  0.35667308158E+01 -0.13417514173E+00  0.35737010938E+01  0.51100000000E-03 0. -1.
        -11    1    3    3    0    0  0.19569633230E+02  0.29940271539E+02 -0.20123406854E+02  0.41040734743E+02  0.51100000000E-03 0.  1.
        -12    1    3    3    0    0  0.12941656191E+01  0.81098461163E+00  0.43180519364E-01  0.15278826026E+01  0.00000000000E+00 0.  1.
</event>
<event>
 7    1  0.2328810E-008  0.4614232E+02  0.7816164E-02  0.1320468E+00
        -11   -1    0    0    0    0  0.00000000000E+00  0.00000000000E+00  0.45593999997E+02  0.45594000000E+02  0.51100000000E-03 0.  1.
         11   -1    0    0    0    0 -0.00000000000E+00 -0.00000000000E+00 -0.45593999997E+02  0.45594000000E+02  0.51100000000E-03 0. -1.
    9900012    2    1    2    0    0 -0.70778622435E+01 -0.41601342877E+02  0.15758986281E+02  0.46142317502E+02  0.99999976361E+01 0.  0.
         12    1    1    2    0    0  0.70778622435E+01  0.41601342877E+02 -0.15758986281E+02  0.45045682498E+02  0.00000000000E+00 0. -1.
         11    1    3    3    0    0 -0.20195385990E+01 -0.10791417597E+02  0.19508004557E-01  0.10978780020E+02  0.51100000000E-03 0. -1.
        -11    1    3    3    0    0 -0.72700083833E+00 -0.65665012332E+00  0.42471886407E+00  0.10677574528E+01  0.51100000000E-03 0.  1.
        -12    1    3    3    0    0 -0.43313228062E+01 -0.30153275157E+02  0.15314759412E+02  0.34095780029E+02  0.00000000000E+00 0.  1.
</event>
<event>
 7    1  0.2328810E-008  0.4614232E+02  0.7816164E-02  0.1320468E+00
        -11   -1    0    0    0    0  0.00000000000E+00  0.00000000000E+00  0.45593999997E+02  0.45594000000E+02  0.51100000000E-03 0.  1.
         11   -1    0    0    0    0 -0.00000000000E+00 -0.00000000000E+00 -0.45593999997E+02  0.45594000000E+02  0.51100000000E-03 0. -1.
    9900012    2    1    2    0    0 -0.69538497039E+00  0.58566342103E+01  0.44657919270E+02  0.46142317876E+02  0.10000001046E+02 0.  0.
         12    1    1    2    0    0  0.69538497039E+00 -0.58566342103E+01 -0.44657919270E+02  0.45045682124E+02  0.00000000000E+00 0. -1.
         11    1    3    3    0    0  0.49951763042E+00  0.22465983803E+01  0.71546359470E+01  0.75156861257E+01  0.51100000000E-03 0. -1.
        -11    1    3    3    0    0 -0.43160465880E+01 -0.18350811048E-01  0.14405032596E+02  0.15037737837E+02  0.51100000000E-03 0.  1.
        -12    1    3    3    0    0  0.31211439872E+01  0.36283866410E+01  0.23098250727E+02  0.23588893913E+02  0.00000000000E+00 0.  1.
</event>
<event>
 7    1  0.2328810E-008  0.4614232E+02  0.7816164E-02  0.1320468E+00
        -11   -1    0    0    0    0  0.00000000000E+00  0.00000000000E+00  0.45593999997E+02  0.45594000000E+02  0.51100000000E-03 0.  1.
         11   -1    0    0    0    0 -0.00000000000E+00 -0.00000000000E+00 -0.45593999997E+02  0.45594000000E+02  0.51100000000E-03 0. -1.
    9900012    2    1    2    0    0  0.19971558056E+02  0.85886835582E+01  0.39452312035E+02  0.46142317173E+02  0.99999946382E+01 0.  0.
         12    1    1    2    0    0 -0.19971558056E+02 -0.85886835582E+01 -0.39452312035E+02  0.45045682827E+02  0.00000000000E+00 0. -1.
         11    1    3    3    0    0  0.56615556826E+01  0.46242881153E+01  0.92154936185E+01  0.11762762270E+02  0.51100000000E-03 0. -1.
        -11    1    3    3    0    0  0.13415344280E+02  0.41563601108E+01  0.22057336024E+02  0.26149050924E+02  0.51100000000E-03 0.  1.
         12    1    3    3    0    0  0.89465809347E+00 -0.19196466788E+00  0.81794823926E+01  0.82305039791E+01  0.00000000000E+00 0. -1.
</event>
<event>
 7    1  0.2328810E-008  0.4614232E+02  0.7816164E-02  0.1320468E+00
        -11   -1    0    0    0    0  0.00000000000E+00  0.00000000000E+00  0.45593999997E+02  0.45594000000E+02  0.51100000000E-03 0.  1.
         11   -1    0    0    0    0 -0.00000000000E+00 -0.00000000000E+00 -0.45593999997E+02  0.45594000000E+02  0.51100000000E-03 0. -1.
    9900012    2    1    2    0    0  0.30930277043E+02  0.31336523859E+01  0.32597724556E+02  0.46142318060E+02  0.10000002722E+02 0.  0.
         12    1    1    2    0    0 -0.30930277043E+02 -0.31336523859E+01 -0.32597724556E+02  0.45045681940E+02  0.00000000000E+00 0. -1.
         11    1    3    3    0    0  0.66709232503E+00  0.13175492075E+01  0.23337071468E+01  0.27617272480E+01  0.51100000000E-03 0. -1.
        -11    1    3    3    0    0  0.16652962378E+02 -0.24146192760E+01  0.16471986942E+02  0.23547354338E+02  0.51100000000E-03 0.  1.
         12    1    3    3    0    0  0.13610222341E+02  0.42307224544E+01  0.13792030467E+02  0.19833236474E+02  0.00000000000E+00 0. -1.
</event>
<event>
 7    1  0.2328810E-008  0.4614232E+02  0.7816164E-02  0.1320468E+00
        -11   -1    0    0    0    0  0.00000000000E+00  0.00000000000E+00  0.45593999997E+02  0.45594000000E+02  0.51100000000E-03 0.  1.
         11   -1    0    0    0    0 -0.00000000000E+00 -0.00000000000E+00 -0.45593999997E+02  0.45594000000E+02  0.51100000000E-03 0. -1.
    9900012    2    1    2    0    0 -0.25269437578E+00 -0.37967855173E+02  0.24238225491E+02  0.46142318122E+02  0.10000003292E+02 0.  0.
         12    1    1    2    0    0  0.25269437578E+00  0.37967855173E+02 -0.24238225491E+02  0.45045681878E+02  0.00000000000E+00 0. -1.
         11    1    3    3    0    0  0.33172597434E+01 -0.19160487167E+02  0.15780138150E+02  0.25042788202E+02  0.51100000000E-03 0. -1.
        -11    1    3    3    0    0 -0.61467915129E+00 -0.30931019351E+01  0.25415985046E+01  0.40502880465E+01  0.51100000000E-03 0.  1.
        -12    1    3    3    0    0 -0.29552749679E+01 -0.15714266071E+02  0.59164888369E+01  0.17049241873E+02  0.00000000000E+00 0.  1.
</event>
<event>
 7    1  0.2328810E-008  0.4614232E+02  0.7816164E-02  0.1320468E+00
        -11   -1    0    0    0    0  0.00000000000E+00  0.00000000000E+00  0.45593999997E+02  0.45594000000E+02  0.51100000000E-03 0. -1.
         11   -1    0    0    0    0 -0.00000000000E+00 -0.00000000000E+00 -0.45593999997E+02  0.45594000000E+02  0.51100000000E-03 0.  1.
    9900012    2    1    2    0    0 -0.69238263354E+01 -0.39984070040E+02 -0.19556285476E+02  0.46142317302E+02  0.99999958176E+01 0.  0.
         12    1    1    2    0    0  0.69238263354E+01  0.39984070040E+02  0.19556285476E+02  0.45045682698E+02  0.00000000000E+00 0. -1.
         11    1    3    3    0    0 -0.15507106249E+01 -0.18270705162E+02 -0.11842160688E+02  0.21827966937E+02  0.51100000000E-03 0. -1.
        -11    1    3    3    0    0 -0.23394161923E+01 -0.81595829129E+01 -0.12970821186E+00  0.84893159863E+01  0.51100000000E-03 0.  1.
        -12    1    3    3    0    0 -0.30336995183E+01 -0.13553781965E+02 -0.75844165763E+01  0.15825034380E+02  0.00000000000E+00 0.  1.
</event>
<event>
 7    1  0.2328810E-008  0.4614232E+02  0.7816164E-02  0.1320468E+00
        -11   -1    0    0    0    0  0.00000000000E+00  0.00000000000E+00  0.45593999997E+02  0.45594000000E+02  0.51100000000E-03 0.  1.
         11   -1    0    0    0    0 -0.00000000000E+00 -0.00000000000E+00 -0.45593999997E+02  0.45594000000E+02  0.51100000000E-03 0. -1.
    9900012    2    1    2    0    0 -0.35510797894E+01 -0.10519970562E+02  0.43655851951E+02  0.46142319210E+02  0.10000013212E+02 0.  0.
         12    1    1    2    0    0  0.35510797894E+01  0.10519970562E+02 -0.43655851951E+02  0.45045680790E+02  0.00000000000E+00 0. -1.
         11    1    3    3    0    0  0.23550566886E+00 -0.40321472176E+01  0.10706205559E+02  0.11442749313E+02  0.51100000000E-03 0. -1.
        -11    1    3    3    0    0 -0.27116715427E+01 -0.82873060752E+01  0.24947590005E+02  0.26427539648E+02  0.51100000000E-03 0.  1.
         12    1    3    3    0    0 -0.10749139156E+01  0.17994827306E+01  0.80020563866E+01  0.82720302488E+01  0.00000000000E+00 0. -1.
</event>
<event>
 7    1  0.2328810E-008  0.4614232E+02  0.7816164E-02  0.1320468E+00
        -11   -1    0    0    0    0  0.00000000000E+00  0.00000000000E+00  0.45593999997E+02  0.45594000000E+02  0.51100000000E-03 0. -1.
         11   -1    0    0    0    0 -0.00000000000E+00 -0.00000000000E+00 -0.45593999997E+02  0.45594000000E+02  0.51100000000E-03 0.  1.
    9900012    2    1    2    0    0  0.15152882367E+02 -0.42153510058E+02  0.47523939609E+01  0.46142317604E+02  0.99999985636E+01 0.  0.
         12    1    1    2    0    0 -0.15152882367E+02  0.42153510058E+02 -0.47523939609E+01  0.45045682396E+02  0.00000000000E+00 0. -1.
         11    1    3    3    0    0  0.12253748794E+01 -0.36833990406E+01 -0.15903117405E+01  0.41950046222E+01  0.51100000000E-03 0. -1.
        -11    1    3    3    0    0  0.26005375783E+01 -0.39557175970E+01 -0.11164882360E+01  0.48638507014E+01  0.51100000000E-03 0.  1.
        -12    1    3    3    0    0  0.11326969909E+02 -0.34514393420E+02  0.74591939374E+01  0.37083462280E+02  0.00000000000E+00 0.  1.
</event>
<event>
 7    1  0.2328810E-008  0.4614232E+02  0.7816164E-02  0.1320468E+00
        -11   -1    0    0    0    0  0.00000000000E+00  0.00000000000E+00  0.45593999997E+02  0.45594000000E+02  0.51100000000E-03 0.  1.
         11   -1    0    0    0    0 -0.00000000000E+00 -0.00000000000E+00 -0.45593999997E+02  0.45594000000E+02  0.51100000000E-03 0. -1.
    9900012    2    1    2    0    0  0.89921822828E+01  0.25606431497E+02  0.35952257837E+02  0.46142317412E+02  0.99999968188E+01 0.  0.
         12    1    1    2    0    0 -0.89921822828E+01 -0.25606431497E+02 -0.35952257837E+02  0.45045682588E+02  0.00000000000E+00 0. -1.
         11    1    3    3    0    0  0.66832566876E+00  0.91199921954E+01  0.86629591636E+01  0.12596339888E+02  0.51100000000E-03 0. -1.
        -11    1    3    3    0    0  0.62733169917E+01  0.16193677416E+02  0.23408515786E+02  0.29147011955E+02  0.51100000000E-03 0.  1.
         12    1    3    3    0    0  0.20505396224E+01  0.29276188631E+00  0.38807828873E+01  0.43989655697E+01  0.00000000000E+00 0. -1.
</event>
<event>
 7    1  0.2328810E-008  0.4614232E+02  0.7816164E-02  0.1320468E+00
        -11   -1    0    0    0    0  0.00000000000E+00  0.00000000000E+00  0.45593999997E+02  0.45594000000E+02  0.51100000000E-03 0. -1.
         11   -1    0    0    0    0 -0.00000000000E+00 -0.00000000000E+00 -0.45593999997E+02  0.45594000000E+02  0.51100000000E-03 0.  1.
    9900012    2    1    2    0    0 -0.12978622372E+02 -0.42930246232E+02  0.42027219281E+01  0.46142317057E+02  0.99999935816E+01 0.  0.
         12    1    1    2    0    0  0.12978622372E+02  0.42930246232E+02 -0.42027219281E+01  0.45045682943E+02  0.00000000000E+00 0. -1.
         11    1    3    3    0    0 -0.58065868552E+01 -0.20724207911E+02  0.56475205502E+01  0.22250926567E+02  0.51100000000E-03 0. -1.
        -11    1    3    3    0    0  0.56236579009E+00 -0.25403396413E+01 -0.89761543311E+00  0.27523252900E+01  0.51100000000E-03 0.  1.
        -12    1    3    3    0    0 -0.77344013065E+01 -0.19665698679E+02 -0.54718318894E+00  0.21139065200E+02  0.00000000000E+00 0.  1.
</event>
<event>
 7    1  0.2328810E-008  0.4614232E+02  0.7816164E-02  0.1320468E+00
        -11   -1    0    0    0    0  0.00000000000E+00  0.00000000000E+00  0.45593999997E+02  0.45594000000E+02  0.51100000000E-03 0. -1.
         11   -1    0    0    0    0 -0.00000000000E+00 -0.00000000000E+00 -0.45593999997E+02  0.45594000000E+02  0.51100000000E-03 0.  1.
    9900012    2    1    2    0    0  0.21109069224E+02  0.26798458563E+02 -0.29417058723E+02  0.46142317313E+02  0.99999959126E+01 0.  0.
         12    1    1    2    0    0 -0.21109069224E+02 -0.26798458563E+02  0.29417058723E+02  0.45045682687E+02  0.00000000000E+00 0. -1.
         11    1    3    3    0    0  0.11709797038E+02  0.12878591381E+02 -0.10238777931E+02  0.20194307029E+02  0.51100000000E-03 0. -1.
        -11    1    3    3    0    0  0.82623204660E+01  0.88961908018E+01 -0.11651154929E+02  0.16827286225E+02  0.51100000000E-03 0.  1.
        -12    1    3    3    0    0  0.11369517200E+01  0.50236763802E+01 -0.75271258635E+01  0.91207240585E+01  0.00000000000E+00 0.  1.
</event>
<event>
 7    1  0.2328810E-008  0.4614232E+02  0.7816164E-02  0.1320468E+00
        -11   -1    0    0    0    0  0.00000000000E+00  0.00000000000E+00  0.45593999997E+02  0.45594000000E+02  0.51100000000E-03 0. -1.
         11   -1    0    0    0    0 -0.00000000000E+00 -0.00000000000E+00 -0.45593999997E+02  0.45594000000E+02  0.51100000000E-03 0.  1.
    9900012    2    1    2    0    0  0.38663917383E+02  0.10670582782E+02  0.20502529224E+02  0.46142317089E+02  0.99999938723E+01 0.  0.
         12    1    1    2    0    0 -0.38663917383E+02 -0.10670582782E+02 -0.20502529224E+02  0.45045682911E+02  0.00000000000E+00 0. -1.
         11    1    3    3    0    0  0.88409018636E+01  0.68223425912E+00  0.53286169557E+01  0.10345102622E+02  0.51100000000E-03 0. -1.
        -11    1    3    3    0    0  0.27812316577E+02  0.81023360628E+01  0.11416494742E+02  0.31136941974E+02  0.51100000000E-03 0.  1.
         12    1    3    3    0    0  0.20106989428E+01  0.18860124606E+01  0.37574175260E+01  0.46602724925E+01  0.00000000000E+00 0. -1.
</event>
<event>
 7    1  0.2328810E-008  0.4614232E+02  0.7816164E-02  0.1320468E+00
        -11   -1    0    0    0    0  0.00000000000E+00  0.00000000000E+00  0.45593999997E+02  0.45594000000E+02  0.51100000000E-03 0.  1.
         11   -1    0    0    0    0 -0.00000000000E+00 -0.00000000000E+00 -0.45593999997E+02  0.45594000000E+02  0.51100000000E-03 0. -1.
    9900012    2    1    2    0    0  0.10499268765E+02  0.27647517309E+02  0.33977841411E+02  0.46142316912E+02  0.99999922556E+01 0.  0.
         12    1    1    2    0    0 -0.10499268765E+02 -0.27647517309E+02 -0.33977841411E+02  0.45045683088E+02  0.00000000000E+00 0. -1.
         11    1    3    3    0    0  0.23734300064E+01  0.21392305929E+01  0.24924376155E+01  0.40523725216E+01  0.51100000000E-03 0. -1.
        -11    1    3    3    0    0  0.80043294745E+01  0.25984705950E+02  0.29825819307E+02  0.40359060089E+02  0.51100000000E-03 0.  1.
        -12    1    3    3    0    0  0.12150928376E+00 -0.47641923375E+00  0.16595844882E+01  0.17308843017E+01  0.00000000000E+00 0.  1.
</event>
<event>
 7    1  0.2328810E-008  0.4614232E+02  0.7816164E-02  0.1320468E+00
        -11   -1    0    0    0    0  0.00000000000E+00  0.00000000000E+00  0.45593999997E+02  0.45594000000E+02  0.51100000000E-03 0.  1.
         11   -1    0    0    0    0 -0.00000000000E+00 -0.00000000000E+00 -0.45593999997E+02  0.45594000000E+02  0.51100000000E-03 0. -1.
    9900012    2    1    2    0    0 -0.35680997091E+02  0.14209595691E+02  0.23538634556E+02  0.46142317855E+02  0.10000000859E+02 0.  0.
         12    1    1    2    0    0  0.35680997091E+02 -0.14209595691E+02 -0.23538634556E+02  0.45045682145E+02  0.00000000000E+00 0. -1.
         11    1    3    3    0    0 -0.62136494380E+01  0.54431530733E+01  0.77108953864E+01  0.11300232858E+02  0.51100000000E-03 0. -1.
        -11    1    3    3    0    0 -0.11108656780E+02  0.54819633218E+01  0.61385372548E+01  0.13825187782E+02  0.51100000000E-03 0.  1.
         12    1    3    3    0    0 -0.18358690873E+02  0.32844792959E+01  0.96892019148E+01  0.21016897216E+02  0.00000000000E+00 0. -1.
</event>
<event>
 7    1  0.2328810E-008  0.4614232E+02  0.7816164E-02  0.1320468E+00
        -11   -1    0    0    0    0  0.00000000000E+00  0.00000000000E+00  0.45593999997E+02  0.45594000000E+02  0.51100000000E-03 0.  1.
         11   -1    0    0    0    0 -0.00000000000E+00 -0.00000000000E+00 -0.45593999997E+02  0.45594000000E+02  0.51100000000E-03 0. -1.
    9900012    2    1    2    0    0 -0.27907005818E+02 -0.35359339178E+02  0.17175520962E+00  0.46142319400E+02  0.10000014946E+02 0.  0.
         12    1    1    2    0    0  0.27907005818E+02  0.35359339178E+02 -0.17175520962E+00  0.45045680600E+02  0.00000000000E+00 0. -1.
         11    1    3    3    0    0 -0.11536336531E+02 -0.84816743547E+01 -0.50157495771E+00  0.14327506347E+02  0.51100000000E-03 0. -1.
        -11    1    3    3    0    0 -0.10879184737E+02 -0.15573084102E+02 -0.15182224008E+01  0.19057350511E+02  0.51100000000E-03 0.  1.
         12    1    3    3    0    0 -0.54914845499E+01 -0.11304580722E+02  0.21915525681E+01  0.12757462542E+02  0.00000000000E+00 0. -1.
</event>
<event>
 7    1  0.2328810E-008  0.4614232E+02  0.7816164E-02  0.1320468E+00
        -11   -1    0    0    0    0  0.00000000000E+00  0.00000000000E+00  0.45593999997E+02  0.45594000000E+02  0.51100000000E-03 0.  1.
         11   -1    0    0    0    0 -0.00000000000E+00 -0.00000000000E+00 -0.45593999997E+02  0.45594000000E+02  0.51100000000E-03 0. -1.
    9900012    2    1    2    0    0 -0.25360703533E+02 -0.20264652601E+02  0.31229668469E+02  0.46142316284E+02  0.99999865291E+01 0.  0.
         12    1    1    2    0    0  0.25360703533E+02  0.20264652601E+02 -0.31229668469E+02  0.45045683716E+02  0.00000000000E+00 0. -1.
         11    1    3    3    0    0 -0.52941251900E+01 -0.77836319777E+01  0.11930459639E+02  0.15196991667E+02  0.51100000000E-03 0. -1.
        -11    1    3    3    0    0  0.30598107172E-01  0.64755181222E-01 -0.23080955537E+00  0.24166669119E+00  0.51100000000E-03 0.  1.
        -12    1    3    3    0    0 -0.20097176451E+02 -0.12545775805E+02  0.19530018386E+02  0.30703657925E+02  0.00000000000E+00 0.  1.
</event>
<event>
 7    1  0.2328810E-008  0.4614232E+02  0.7816164E-02  0.1320468E+00
        -11   -1    0    0    0    0  0.00000000000E+00  0.00000000000E+00  0.45593999997E+02  0.45594000000E+02  0.51100000000E-03 0.  1.
         11   -1    0    0    0    0 -0.00000000000E+00 -0.00000000000E+00 -0.45593999997E+02  0.45594000000E+02  0.51100000000E-03 0. -1.
    9900012    2    1    2    0    0 -0.37693555720E+02  0.24547920343E+02 -0.23893407189E+01  0.46142317798E+02  0.10000000333E+02 0.  0.
         12    1    1    2    0    0  0.37693555720E+02 -0.24547920343E+02  0.23893407189E+01  0.45045682202E+02  0.00000000000E+00 0. -1.
         11    1    3    3    0    0 -0.51169235398E+00  0.15716982163E+01  0.10174344493E+01  0.19409372654E+01  0.51100000000E-03 0. -1.
        -11    1    3    3    0    0 -0.25030254166E+02  0.15867783973E+02 -0.49218076872E+01  0.30042043589E+02  0.51100000000E-03 0.  1.
        -12    1    3    3    0    0 -0.12151609200E+02  0.71084381540E+01  0.15150325190E+01  0.14159336943E+02  0.00000000000E+00 0.  1.
</event>
<event>
 7    1  0.2328810E-008  0.4614231E+02  0.7816164E-02  0.1320468E+00
        -11   -1    0    0    0    0  0.00000000000E+00  0.00000000000E+00  0.45593999997E+02  0.45594000000E+02  0.51100000000E-03 0. -1.
         11   -1    0    0    0    0 -0.00000000000E+00 -0.00000000000E+00 -0.45593999997E+02  0.45594000000E+02  0.51100000000E-03 0.  1.
    9900012    2    1    2    0    0 -0.34766598653E+02 -0.61500563412E+01 -0.27974527740E+02  0.46142314555E+02  0.99999707682E+01 0.  0.
         12    1    1    2    0    0  0.34766598653E+02  0.61500563412E+01  0.27974527740E+02  0.45045685445E+02  0.00000000000E+00 0. -1.
         11    1    3    3    0    0 -0.42099540789E+01 -0.28651338382E+01 -0.55751535029E+01  0.75508305569E+01  0.51100000000E-03 0. -1.
        -11    1    3    3    0    0 -0.18331526522E+02  0.72542942958E+00 -0.15351192284E+02  0.23921333936E+02  0.51100000000E-03 0.  1.
        -12    1    3    3    0    0 -0.12225118052E+02 -0.40103519326E+01 -0.70481819532E+01  0.14670150062E+02  0.00000000000E+00 0.  1.
</event>
<event>
 7    1  0.2328810E-008  0.4614232E+02  0.7816164E-02  0.1320468E+00
        -11   -1    0    0    0    0  0.00000000000E+00  0.00000000000E+00  0.45593999997E+02  0.45594000000E+02  0.51100000000E-03 0.  1.
         11   -1    0    0    0    0 -0.00000000000E+00 -0.00000000000E+00 -0.45593999997E+02  0.45594000000E+02  0.51100000000E-03 0. -1.
    9900012    2    1    2    0    0 -0.41496822354E+02  0.13292934537E+02  0.11420386616E+02  0.46142316471E+02  0.99999882370E+01 0.  0.
         12    1    1    2    0    0  0.41496822354E+02 -0.13292934537E+02 -0.11420386616E+02  0.45045683529E+02  0.00000000000E+00 0. -1.
         11    1    3    3    0    0 -0.19558746053E+02  0.54384768255E+01  0.77444541564E+01  0.21727819674E+02  0.51100000000E-03 0. -1.
        -11    1    3    3    0    0 -0.19577147118E+02  0.48500487705E+01  0.40621203391E+01  0.20573975899E+02  0.51100000000E-03 0.  1.
         12    1    3    3    0    0 -0.23609291838E+01  0.30044089412E+01 -0.38618787982E+00  0.38405208989E+01  0.00000000000E+00 0. -1.
</event>
<event>
 7    1  0.2328810E-008  0.4614232E+02  0.7816164E-02  0.1320468E+00
        -11   -1    0    0    0    0  0.00000000000E+00  0.00000000000E+00  0.45593999997E+02  0.45594000000E+02  0.51100000000E-03 0.  1.
         11   -1    0    0    0    0 -0.00000000000E+00 -0.00000000000E+00 -0.45593999997E+02  0.45594000000E+02  0.51100000000E-03 0. -1.
    9900012    2    1    2    0    0 -0.41894765102E+01  0.36510672888E+02  0.26048653713E+02  0.46142319758E+02  0.10000018210E+02 0.  0.
         12    1    1    2    0    0  0.41894765102E+01 -0.36510672888E+02 -0.26048653713E+02  0.45045680242E+02  0.00000000000E+00 0. -1.
         11    1    3    3    0    0 -0.31768616292E+01  0.20954684822E+02  0.11947220186E+02  0.24329556844E+02  0.51100000000E-03 0.  1.
        -11    1    3    3    0    0 -0.35622049776E-02  0.10957831606E+02  0.61322805178E+01  0.12557027945E+02  0.51100000000E-03 0. -1.
        -12    1    3    3    0    0 -0.10090526760E+01  0.45981564609E+01  0.79691530096E+01  0.92557349698E+01  0.00000000000E+00 0.  1.
</event>
<event>
 7    1  0.2328810E-008  0.4614232E+02  0.7816164E-02  0.1320468E+00
        -11   -1    0    0    0    0  0.00000000000E+00  0.00000000000E+00  0.45593999997E+02  0.45594000000E+02  0.51100000000E-03 0. -1.
         11   -1    0    0    0    0 -0.00000000000E+00 -0.00000000000E+00 -0.45593999997E+02  0.45594000000E+02  0.51100000000E-03 0.  1.
    9900012    2    1    2    0    0  0.34226328094E+02  0.98547739736E+00 -0.29269452754E+02  0.46142316911E+02  0.99999922437E+01 0.  0.
         12    1    1    2    0    0 -0.34226328094E+02 -0.98547739736E+00  0.29269452754E+02  0.45045683089E+02  0.00000000000E+00 0. -1.
         11    1    3    3    0    0  0.54939726235E+01 -0.31509650463E+01 -0.69004539086E+01  0.93663536297E+01  0.51100000000E-03 0. -1.
        -11    1    3    3    0    0  0.20993638921E+02  0.17854562537E+01 -0.15365431010E+02  0.26077139405E+02  0.51100000000E-03 0.  1.
         12    1    3    3    0    0  0.77387165491E+01  0.23509861900E+01 -0.70035678358E+01  0.10698823876E+02  0.00000000000E+00 0. -1.
</event>
<event>
 7    1  0.2328810E-008  0.4614232E+02  0.7816164E-02  0.1320468E+00
        -11   -1    0    0    0    0  0.00000000000E+00  0.00000000000E+00  0.45593999997E+02  0.45594000000E+02  0.51100000000E-03 0.  1.
         11   -1    0    0    0    0 -0.00000000000E+00 -0.00000000000E+00 -0.45593999997E+02  0.45594000000E+02  0.51100000000E-03 0. -1.
    9900012    2    1    2    0    0 -0.42840998614E+02 -0.12993940325E+02 -0.49919634530E+01  0.46142319336E+02  0.10000014360E+02 0.  0.
         12    1    1    2    0    0  0.42840998614E+02  0.12993940325E+02  0.49919634530E+01  0.45045680664E+02  0.00000000000E+00 0. -1.
         11    1    3    3    0    0 -0.12346977947E+02 -0.14554217472E+01 -0.19846984509E+01  0.12589882648E+02  0.51100000000E-03 0.  1.
        -11    1    3    3    0    0 -0.15271880881E+02 -0.54398954682E+01 -0.51604106811E+01  0.17013307939E+02  0.51100000000E-03 0. -1.
        -12    1    3    3    0    0 -0.15222139786E+02 -0.60986231093E+01  0.21531456790E+01  0.16539128750E+02  0.00000000000E+00 0.  1.
</event>
<event>
 7    1  0.2328810E-008  0.4614232E+02  0.7816164E-02  0.1320468E+00
        -11   -1    0    0    0    0  0.00000000000E+00  0.00000000000E+00  0.45593999997E+02  0.45594000000E+02  0.51100000000E-03 0. -1.
         11   -1    0    0    0    0 -0.00000000000E+00 -0.00000000000E+00 -0.45593999997E+02  0.45594000000E+02  0.51100000000E-03 0.  1.
    9900012    2    1    2    0    0  0.44278636117E+02  0.37391343142E+01 -0.73847485504E+01  0.46142320374E+02  0.10000023829E+02 0.  0.
         12    1    1    2    0    0 -0.44278636117E+02 -0.37391343142E+01  0.73847485504E+01  0.45045679626E+02  0.00000000000E+00 0. -1.
         11    1    3    3    0    0  0.27820284204E+02  0.44236369763E+01 -0.29795151107E+01  0.28326918078E+02  0.51100000000E-03 0. -1.
        -11    1    3    3    0    0  0.10985796330E+02 -0.28112863302E+01 -0.35477936246E+01  0.11881830318E+02  0.51100000000E-03 0.  1.
        -12    1    3    3    0    0  0.54725555835E+01  0.21267836681E+01 -0.85743981510E+00  0.59335719783E+01  0.00000000000E+00 0.  1.
</event>
<event>
 7    1  0.2328810E-008  0.4614232E+02  0.7816164E-02  0.1320468E+00
        -11   -1    0    0    0    0  0.00000000000E+00  0.00000000000E+00  0.45593999997E+02  0.45594000000E+02  0.51100000000E-03 0.  1.
         11   -1    0    0    0    0 -0.00000000000E+00 -0.00000000000E+00 -0.45593999997E+02  0.45594000000E+02  0.51100000000E-03 0. -1.
    9900012    2    1    2    0    0 -0.28357938364E+02 -0.20075732547E+02  0.28668898999E+02  0.46142317906E+02  0.10000001318E+02 0.  0.
         12    1    1    2    0    0  0.28357938364E+02  0.20075732547E+02 -0.28668898999E+02  0.45045682094E+02  0.00000000000E+00 0. -1.
         11    1    3    3    0    0 -0.20048608738E+02 -0.16887451247E+02  0.22863519834E+02  0.34783232475E+02  0.51100000000E-03 0.  1.
        -11    1    3    3    0    0  0.24459416245E+00 -0.72449375776E+00  0.94939397392E+00  0.12190433496E+01  0.51100000000E-03 0. -1.
        -12    1    3    3    0    0 -0.85539237890E+01 -0.24637875425E+01  0.48559851903E+01  0.10140042081E+02  0.00000000000E+00 0.  1.
</event>
<event>
 7    1  0.2328810E-008  0.4614232E+02  0.7816164E-02  0.1320468E+00
        -11   -1    0    0    0    0  0.00000000000E+00  0.00000000000E+00  0.45593999997E+02  0.45594000000E+02  0.51100000000E-03 0. -1.
         11   -1    0    0    0    0 -0.00000000000E+00 -0.00000000000E+00 -0.45593999997E+02  0.45594000000E+02  0.51100000000E-03 0.  1.
    9900012    2    1    2    0    0 -0.14640738914E+02 -0.14611599953E+02 -0.40015790545E+02  0.46142316721E+02  0.99999905125E+01 0.  0.
         12    1    1    2    0    0  0.14640738914E+02  0.14611599953E+02  0.40015790545E+02  0.45045683279E+02  0.00000000000E+00 0. -1.
         11    1    3    3    0    0 -0.56617409219E+00 -0.47619389579E+00 -0.27380555113E+00  0.78884945965E+00  0.51100000000E-03 0. -1.
        -11    1    3    3    0    0 -0.11278360419E+01  0.24811716804E+00 -0.86789352473E+01  0.87554265204E+01  0.51100000000E-03 0.  1.
        -12    1    3    3    0    0 -0.12946728780E+02 -0.14383523225E+02 -0.31063049747E+02  0.36598040741E+02  0.00000000000E+00 0.  1.
</event>
<event>
 7    1  0.2328810E-008  0.4614232E+02  0.7816164E-02  0.1320468E+00
        -11   -1    0    0    0    0  0.00000000000E+00  0.00000000000E+00  0.45593999997E+02  0.45594000000E+02  0.51100000000E-03 0.  1.
         11   -1    0    0    0    0 -0.00000000000E+00 -0.00000000000E+00 -0.45593999997E+02  0.45594000000E+02  0.51100000000E-03 0. -1.
    9900012    2    1    2    0    0 -0.18951785429E+02  0.53583176561E+01  0.40512118642E+02  0.46142317677E+02  0.99999992374E+01 0.  0.
         12    1    1    2    0    0  0.18951785429E+02 -0.53583176561E+01 -0.40512118642E+02  0.45045682323E+02  0.00000000000E+00 0. -1.
         11    1    3    3    0    0 -0.11091394659E+02  0.36074446729E+01  0.13551449712E+02  0.17879443003E+02  0.51100000000E-03 0. -1.
        -11    1    3    3    0    0 -0.51006578821E+01  0.17053616557E+01  0.13696718633E+02  0.14714790885E+02  0.51100000000E-03 0.  1.
         12    1    3    3    0    0 -0.27597328885E+01  0.45511327561E-01  0.13263950297E+02  0.13548083790E+02  0.00000000000E+00 0. -1.
</event>
<event>
 7    1  0.2328810E-008  0.4614232E+02  0.7816164E-02  0.1320468E+00
        -11   -1    0    0    0    0  0.00000000000E+00  0.00000000000E+00  0.45593999997E+02  0.45594000000E+02  0.51100000000E-03 0.  1.
         11   -1    0    0    0    0 -0.00000000000E+00 -0.00000000000E+00 -0.45593999997E+02  0.45594000000E+02  0.51100000000E-03 0. -1.
    9900012    2    1    2    0    0 -0.34107669722E+02 -0.12147474449E+02  0.26799612513E+02  0.46142317630E+02  0.99999988057E+01 0.  0.
         12    1    1    2    0    0  0.34107669722E+02  0.12147474449E+02 -0.26799612513E+02  0.45045682370E+02  0.00000000000E+00 0. -1.
         11    1    3    3    0    0 -0.96163087538E+01 -0.51713773328E+01  0.87523746735E+01  0.13993591399E+02  0.51100000000E-03 0. -1.
        -11    1    3    3    0    0 -0.99837490914E+01 -0.46310438398E+01  0.37005708601E+01  0.11611030872E+02  0.51100000000E-03 0.  1.
         12    1    3    3    0    0 -0.14507611877E+02 -0.23450532766E+01  0.14346666979E+02  0.20537695358E+02  0.00000000000E+00 0. -1.
</event>
<event>
 7    1  0.2328810E-008  0.4614232E+02  0.7816164E-02  0.1320468E+00
        -11   -1    0    0    0    0  0.00000000000E+00  0.00000000000E+00  0.45593999997E+02  0.45594000000E+02  0.51100000000E-03 0.  1.
         11   -1    0    0    0    0 -0.00000000000E+00 -0.00000000000E+00 -0.45593999997E+02  0.45594000000E+02  0.51100000000E-03 0. -1.
    9900012    2    1    2    0    0 -0.27205354712E+02  0.10274721957E+02  0.34400759709E+02  0.46142317579E+02  0.99999983356E+01 0.  0.
         12    1    1    2    0    0  0.27205354712E+02 -0.10274721957E+02 -0.34400759709E+02  0.45045682421E+02  0.00000000000E+00 0. -1.
         11    1    3    3    0    0 -0.53922196255E+01 -0.17469481420E+01  0.56893266676E+01  0.80309587530E+01  0.51100000000E-03 0. -1.
        -11    1    3    3    0    0 -0.59419429083E+01  0.47369389672E+01  0.86180108800E+01  0.11489794954E+02  0.51100000000E-03 0.  1.
        -12    1    3    3    0    0 -0.15871192178E+02  0.72847311314E+01  0.20093422161E+02  0.26621563871E+02  0.00000000000E+00 0.  1.
</event>
<event>
 7    1  0.2328810E-008  0.4614232E+02  0.7816164E-02  0.1320468E+00
        -11   -1    0    0    0    0  0.00000000000E+00  0.00000000000E+00  0.45593999997E+02  0.45594000000E+02  0.51100000000E-03 0.  1.
         11   -1    0    0    0    0 -0.00000000000E+00 -0.00000000000E+00 -0.45593999997E+02  0.45594000000E+02  0.51100000000E-03 0. -1.
    9900012    2    1    2    0    0 -0.13426062271E+02  0.33253514351E+02  0.27259087978E+02  0.46142320494E+02  0.10000024917E+02 0.  0.
         12    1    1    2    0    0  0.13426062271E+02 -0.33253514351E+02 -0.27259087978E+02  0.45045679506E+02  0.00000000000E+00 0. -1.
         11    1    3    3    0    0 -0.19563400299E+01  0.35328755492E+01  0.28956358358E+00  0.40487434209E+01  0.51100000000E-03 0. -1.
        -11    1    3    3    0    0 -0.99399489709E+01  0.25974685850E+02  0.20858569417E+02  0.34764447485E+02  0.51100000000E-03 0.  1.
        -12    1    3    3    0    0 -0.15297732700E+01  0.37459529516E+01  0.61109549773E+01  0.73291295874E+01  0.00000000000E+00 0.  1.
</event>
<event>
 7    1  0.2663013E-008  0.4614232E+02  0.7816164E-02  0.1320468E+00
        -11   -1    0    0    0    0  0.00000000000E+00  0.00000000000E+00  0.45593999997E+02  0.45594000000E+02  0.51100000000E-03 0. -1.
         11   -1    0    0    0    0 -0.00000000000E+00 -0.00000000000E+00 -0.45593999997E+02  0.45594000000E+02  0.51100000000E-03 0.  1.
    9900012    2    1    2    0    0 -0.20437713505E+02  0.11370989296E+02 -0.38498235167E+02  0.46142316057E+02  0.99999844610E+01 0.  0.
         12    1    1    2    0    0  0.20437713505E+02 -0.11370989296E+02  0.38498235167E+02  0.45045683943E+02  0.00000000000E+00 0. -1.
         11    1    3    3    0    0 -0.28722137384E+01  0.30353559972E+01 -0.31492701075E+01  0.52326762044E+01  0.51100000000E-03 0. -1.
        -11    1    3    3    0    0 -0.10293635699E+02  0.50145753311E+01 -0.13836426613E+02  0.17959721694E+02  0.51100000000E-03 0.  1.
        -12    1    3    3    0    0 -0.72718640675E+01  0.33210579673E+01 -0.21512538447E+02  0.22949918159E+02  0.00000000000E+00 0.  1.
</event>
<event>
 7    1  0.2328810E-008  0.4614232E+02  0.7816164E-02  0.1320468E+00
        -11   -1    0    0    0    0  0.00000000000E+00  0.00000000000E+00  0.45593999997E+02  0.45594000000E+02  0.51100000000E-03 0. -1.
         11   -1    0    0    0    0 -0.00000000000E+00 -0.00000000000E+00 -0.45593999997E+02  0.45594000000E+02  0.51100000000E-03 0.  1.
    9900012    2    1    2    0    0  0.44197379272E+02 -0.87007678505E+01  0.43465772213E-01  0.46142316689E+02  0.99999902231E+01 0.  0.
         12    1    1    2    0    0 -0.44197379272E+02  0.87007678505E+01 -0.43465772213E-01  0.45045683311E+02  0.00000000000E+00 0. -1.
         11    1    3    3    0    0  0.94763694689E+01 -0.13087936036E+01 -0.19408952897E+01  0.97612291130E+01  0.51100000000E-03 0.  1.
        -11    1    3    3    0    0  0.75883158525E+00 -0.16616706612E+01  0.55516508361E+00  0.19092363113E+01  0.51100000000E-03 0. -1.
         12    1    3    3    0    0  0.33962178218E+02 -0.57303035856E+01  0.14291959783E+01  0.34471851265E+02  0.00000000000E+00 0. -1.
</event>
<event>
 7    1  0.2328810E-008  0.4614231E+02  0.7816164E-02  0.1320468E+00
        -11   -1    0    0    0    0  0.00000000000E+00  0.00000000000E+00  0.45593999997E+02  0.45594000000E+02  0.51100000000E-03 0.  1.
         11   -1    0    0    0    0 -0.00000000000E+00 -0.00000000000E+00 -0.45593999997E+02  0.45594000000E+02  0.51100000000E-03 0. -1.
    9900012    2    1    2    0    0 -0.17064487069E+02  0.36077745275E+02  0.20888115168E+02  0.46142314543E+02  0.99999706516E+01 0.  0.
         12    1    1    2    0    0  0.17064487069E+02 -0.36077745275E+02 -0.20888115168E+02  0.45045685457E+02  0.00000000000E+00 0. -1.
         11    1    3    3    0    0 -0.17916186353E+00  0.33820884608E+01  0.25039912605E+01  0.42119584309E+01  0.51100000000E-03 0. -1.
        -11    1    3    3    0    0 -0.52347171536E+01  0.14624348942E+02  0.11592180635E+02  0.19381756829E+02  0.51100000000E-03 0.  1.
         12    1    3    3    0    0 -0.11650608052E+02  0.18071307872E+02  0.67919432731E+01  0.22548599283E+02  0.00000000000E+00 0. -1.
</event>
<event>
 7    1  0.2328810E-008  0.4614232E+02  0.7816164E-02  0.1320468E+00
        -11   -1    0    0    0    0  0.00000000000E+00  0.00000000000E+00  0.45593999997E+02  0.45594000000E+02  0.51100000000E-03 0. -1.
         11   -1    0    0    0    0 -0.00000000000E+00 -0.00000000000E+00 -0.45593999997E+02  0.45594000000E+02  0.51100000000E-03 0.  1.
    9900012    2    1    2    0    0  0.21650369476E+02 -0.36982028473E+02  0.13881806652E+02  0.46142317805E+02  0.10000000404E+02 0.  0.
         12    1    1    2    0    0 -0.21650369476E+02  0.36982028473E+02 -0.13881806652E+02  0.45045682195E+02  0.00000000000E+00 0. -1.
         11    1    3    3    0    0  0.69089232023E+01 -0.95686076940E+01  0.86628105431E+00  0.11833930714E+02  0.51100000000E-03 0.  1.
        -11    1    3    3    0    0  0.26926190021E+01 -0.13122216537E+01  0.11814444328E+01  0.32199276339E+01  0.51100000000E-03 0. -1.
         12    1    3    3    0    0  0.12048827271E+02 -0.26101199126E+02  0.11834081165E+02  0.31088459457E+02  0.00000000000E+00 0. -1.
</event>
<event>
 7    1  0.2328810E-008  0.4614231E+02  0.7816164E-02  0.1320468E+00
        -11   -1    0    0    0    0  0.00000000000E+00  0.00000000000E+00  0.45593999997E+02  0.45594000000E+02  0.51100000000E-03 0.  1.
         11   -1    0    0    0    0 -0.00000000000E+00 -0.00000000000E+00 -0.45593999997E+02  0.45594000000E+02  0.51100000000E-03 0. -1.
    9900012    2    1    2    0    0 -0.22583480561E+02  0.21583254481E+02  0.32454027449E+02  0.46142308021E+02  0.99999111783E+01 0.  0.
         12    1    1    2    0    0  0.22583480561E+02 -0.21583254481E+02 -0.32454027449E+02  0.45045691979E+02  0.00000000000E+00 0. -1.
         11    1    3    3    0    0 -0.57543574777E+01  0.64172370689E+01  0.92245809964E+01  0.12624834906E+02  0.51100000000E-03 0. -1.
        -11    1    3    3    0    0 -0.79401421197E+01  0.99534112247E+01  0.17756307726E+02  0.21849547277E+02  0.51100000000E-03 0.  1.
         12    1    3    3    0    0 -0.88889809638E+01  0.52126061870E+01  0.54731387269E+01  0.11667925838E+02  0.00000000000E+00 0. -1.
</event>
<event>
 7    1  0.2328810E-008  0.4614232E+02  0.7816164E-02  0.1320468E+00
        -11   -1    0    0    0    0  0.00000000000E+00  0.00000000000E+00  0.45593999997E+02  0.45594000000E+02  0.51100000000E-03 0.  1.
         11   -1    0    0    0    0 -0.00000000000E+00 -0.00000000000E+00 -0.45593999997E+02  0.45594000000E+02  0.51100000000E-03 0. -1.
    9900012    2    1    2    0    0 -0.29663357363E+02  0.24459545336E+02 -0.23471872180E+02  0.46142324162E+02  0.10000058366E+02 0.  0.
         12    1    1    2    0    0  0.29663357363E+02 -0.24459545336E+02  0.23471872180E+02  0.45045675838E+02  0.00000000000E+00 0. -1.
         11    1    3    3    0    0 -0.61291761992E+00  0.41930462177E+01 -0.25393981939E+01  0.49402275292E+01  0.51100000000E-03 0. -1.
        -11    1    3    3    0    0 -0.96906202234E+01  0.55891748765E+01 -0.69859228279E+01  0.13189014904E+02  0.51100000000E-03 0.  1.
         12    1    3    3    0    0 -0.19359819519E+02  0.14677324242E+02 -0.13946551158E+02  0.28013081729E+02  0.00000000000E+00 0. -1.
</event>
<event>
 7    1  0.2328810E-008  0.4614232E+02  0.7816164E-02  0.1320468E+00
        -11   -1    0    0    0    0  0.00000000000E+00  0.00000000000E+00  0.45593999997E+02  0.45594000000E+02  0.51100000000E-03 0. -1.
         11   -1    0    0    0    0 -0.00000000000E+00 -0.00000000000E+00 -0.45593999997E+02  0.45594000000E+02  0.51100000000E-03 0.  1.
    9900012    2    1    2    0    0 -0.35256760197E+02 -0.16289555293E+02 -0.22819393308E+02  0.46142318052E+02  0.10000002653E+02 0.  0.
         12    1    1    2    0    0  0.35256760197E+02  0.16289555293E+02  0.22819393308E+02  0.45045681948E+02  0.00000000000E+00 0. -1.
         11    1    3    3    0    0 -0.82361693016E+01 -0.31456943999E+01 -0.28699818401E+01  0.92718215064E+01  0.51100000000E-03 0. -1.
        -11    1    3    3    0    0 -0.15455059144E+02 -0.82156920984E+01 -0.70832076086E+01  0.18881956469E+02  0.51100000000E-03 0.  1.
        -12    1    3    3    0    0 -0.11565531751E+02 -0.49281687946E+01 -0.12866203859E+02  0.17988540077E+02  0.00000000000E+00 0.  1.
</event>
<event>
 7    1  0.2328810E-008  0.4614232E+02  0.7816164E-02  0.1320468E+00
        -11   -1    0    0    0    0  0.00000000000E+00  0.00000000000E+00  0.45593999997E+02  0.45594000000E+02  0.51100000000E-03 0. -1.
         11   -1    0    0    0    0 -0.00000000000E+00 -0.00000000000E+00 -0.45593999997E+02  0.45594000000E+02  0.51100000000E-03 0.  1.
    9900012    2    1    2    0    0 -0.16182843497E+02 -0.39124421064E+02 -0.15378846014E+02  0.46142315945E+02  0.99999834421E+01 0.  0.
         12    1    1    2    0    0  0.16182843497E+02  0.39124421064E+02  0.15378846014E+02  0.45045684055E+02  0.00000000000E+00 0. -1.
         11    1    3    3    0    0 -0.31483346769E+01 -0.11516663486E+02 -0.60964899008E+01  0.13405697984E+02  0.51100000000E-03 0. -1.
        -11    1    3    3    0    0 -0.11187126025E+01 -0.16067463495E+01  0.11751004849E+01  0.22834213648E+01  0.51100000000E-03 0.  1.
        -12    1    3    3    0    0 -0.11915796217E+02 -0.26001011229E+02 -0.10457456598E+02  0.30453196596E+02  0.00000000000E+00 0.  1.
</event>
<event>
 7    1  0.2328810E-008  0.4614232E+02  0.7816164E-02  0.1320468E+00
        -11   -1    0    0    0    0  0.00000000000E+00  0.00000000000E+00  0.45593999997E+02  0.45594000000E+02  0.51100000000E-03 0. -1.
         11   -1    0    0    0    0 -0.00000000000E+00 -0.00000000000E+00 -0.45593999997E+02  0.45594000000E+02  0.51100000000E-03 0.  1.
    9900012    2    1    2    0    0  0.26026502679E+02  0.32760536360E+02 -0.16687777104E+02  0.46142317755E+02  0.99999999432E+01 0.  0.
         12    1    1    2    0    0 -0.26026502679E+02 -0.32760536360E+02  0.16687777104E+02  0.45045682245E+02  0.00000000000E+00 0. -1.
         11    1    3    3    0    0  0.83173102916E+01  0.57585108045E+01 -0.21014391018E+01  0.10332189687E+02  0.51100000000E-03 0. -1.
        -11    1    3    3    0    0  0.36179406550E+01  0.63659624755E+01 -0.57341266261E+01  0.93002785575E+01  0.51100000000E-03 0.  1.
        -12    1    3    3    0    0  0.14091251733E+02  0.20636063080E+02 -0.88522113757E+01  0.26509849510E+02  0.00000000000E+00 0.  1.
</event>
<event>
 7    1  0.2328810E-008  0.4614232E+02  0.7816164E-02  0.1320468E+00
        -11   -1    0    0    0    0  0.00000000000E+00  0.00000000000E+00  0.45593999997E+02  0.45594000000E+02  0.51100000000E-03 0.  1.
         11   -1    0    0    0    0 -0.00000000000E+00 -0.00000000000E+00 -0.45593999997E+02  0.45594000000E+02  0.51100000000E-03 0. -1.
    9900012    2    1    2    0    0 -0.12869897475E+01 -0.67587428144E+01  0.44517150198E+02  0.46142316424E+02  0.99999878089E+01 0.  0.
         12    1    1    2    0    0  0.12869897475E+01  0.67587428144E+01 -0.44517150198E+02  0.45045683576E+02  0.00000000000E+00 0. -1.
         11    1    3    3    0    0  0.31762227056E+01 -0.10259540486E+01  0.13392765614E+02  0.13802432519E+02  0.51100000000E-03 0. -1.
        -11    1    3    3    0    0 -0.14149613579E+01 -0.42485844670E+01  0.24417966696E+02  0.24825182446E+02  0.51100000000E-03 0.  1.
         12    1    3    3    0    0 -0.30482510952E+01 -0.14842042988E+01  0.67064178878E+01  0.75147014595E+01  0.00000000000E+00 0. -1.
</event>
<event>
 7    1  0.2328810E-008  0.4614232E+02  0.7816164E-02  0.1320468E+00
        -11   -1    0    0    0    0  0.00000000000E+00  0.00000000000E+00  0.45593999997E+02  0.45594000000E+02  0.51100000000E-03 0.  1.
         11   -1    0    0    0    0 -0.00000000000E+00 -0.00000000000E+00 -0.45593999997E+02  0.45594000000E+02  0.51100000000E-03 0. -1.
    9900012    2    1    2    0    0  0.14669421511E+02  0.32006847986E+02  0.28097743558E+02  0.46142318314E+02  0.10000005040E+02 0.  0.
         12    1    1    2    0    0 -0.14669421511E+02 -0.32006847986E+02 -0.28097743558E+02  0.45045681686E+02  0.00000000000E+00 0. -1.
         11    1    3    3    0    0  0.27766352690E+01  0.58212675922E+01  0.26831756559E+01  0.69854342498E+01  0.51100000000E-03 0. -1.
        -11    1    3    3    0    0  0.11257980161E+02  0.16662896508E+02  0.18936276989E+02  0.27622035113E+02  0.51100000000E-03 0.  1.
         12    1    3    3    0    0  0.63480608153E+00  0.95226838859E+01  0.64782909139E+01  0.11534848951E+02  0.00000000000E+00 0. -1.
</event>
<event>
 7    1  0.2328810E-008  0.4614232E+02  0.7816164E-02  0.1320468E+00
        -11   -1    0    0    0    0  0.00000000000E+00  0.00000000000E+00  0.45593999997E+02  0.45594000000E+02  0.51100000000E-03 0. -1.
         11   -1    0    0    0    0 -0.00000000000E+00 -0.00000000000E+00 -0.45593999997E+02  0.45594000000E+02  0.51100000000E-03 0.  1.
    9900012    2    1    2    0    0  0.21036829853E+02 -0.65992579171E+01 -0.39281231539E+02  0.46142316894E+02  0.99999920893E+01 0.  0.
         12    1    1    2    0    0 -0.21036829853E+02  0.65992579171E+01  0.39281231539E+02  0.45045683106E+02  0.00000000000E+00 0. -1.
         11    1    3    3    0    0  0.47355616308E+01 -0.80758959716E+00 -0.62803019112E+01  0.79069549938E+01  0.51100000000E-03 0. -1.
        -11    1    3    3    0    0  0.61919397907E+01 -0.60778035966E+01 -0.19701699242E+02  0.21527581569E+02  0.51100000000E-03 0.  1.
        -12    1    3    3    0    0  0.10109328431E+02  0.28613527669E+00 -0.13299230386E+02  0.16707780331E+02  0.00000000000E+00 0.  1.
</event>
<event>
 7    1  0.2328810E-008  0.4614232E+02  0.7816164E-02  0.1320468E+00
        -11   -1    0    0    0    0  0.00000000000E+00  0.00000000000E+00  0.45593999997E+02  0.45594000000E+02  0.51100000000E-03 0.  1.
         11   -1    0    0    0    0 -0.00000000000E+00 -0.00000000000E+00 -0.45593999997E+02  0.45594000000E+02  0.51100000000E-03 0. -1.
    9900012    2    1    2    0    0 -0.10090998965E+02  0.10028925364E+02  0.42739981618E+02  0.46142316158E+02  0.99999853839E+01 0.  0.
         12    1    1    2    0    0  0.10090998965E+02 -0.10028925364E+02 -0.42739981618E+02  0.45045683842E+02  0.00000000000E+00 0. -1.
         11    1    3    3    0    0 -0.53191609333E+01  0.19223929429E+01  0.10667706460E+02  0.12074312777E+02  0.51100000000E-03 0. -1.
        -11    1    3    3    0    0  0.73455103133E+00  0.19139146790E+01  0.14448885837E+02  0.14593592320E+02  0.51100000000E-03 0.  1.
         12    1    3    3    0    0 -0.55063890629E+01  0.61926177426E+01  0.17623389320E+02  0.19474411061E+02  0.00000000000E+00 0. -1.
</event>
<event>
 7    1  0.2328810E-008  0.4614232E+02  0.7816164E-02  0.1320468E+00
        -11   -1    0    0    0    0  0.00000000000E+00  0.00000000000E+00  0.45593999997E+02  0.45594000000E+02  0.51100000000E-03 0. -1.
         11   -1    0    0    0    0 -0.00000000000E+00 -0.00000000000E+00 -0.45593999997E+02  0.45594000000E+02  0.51100000000E-03 0.  1.
    9900012    2    1    2    0    0  0.41307133987E+02  0.16470990603E+02  0.71791798793E+01  0.46142317927E+02  0.10000001513E+02 0.  0.
         12    1    1    2    0    0 -0.41307133987E+02 -0.16470990603E+02 -0.71791798793E+01  0.45045682073E+02  0.00000000000E+00 0. -1.
         11    1    3    3    0    0  0.10922369444E+02  0.11964844357E+01 -0.34769441755E+00  0.10993207946E+02  0.51100000000E-03 0. -1.
        -11    1    3    3    0    0  0.10955905800E+02  0.38041976926E+01  0.89278688711E+00  0.11631889815E+02  0.51100000000E-03 0.  1.
         12    1    3    3    0    0  0.19428858743E+02  0.11470308475E+02  0.66340874097E+01  0.23517220166E+02  0.00000000000E+00 0. -1.
</event>
<event>
 7    1  0.2328810E-008  0.4614232E+02  0.7816164E-02  0.1320468E+00
        -11   -1    0    0    0    0  0.00000000000E+00  0.00000000000E+00  0.45593999997E+02  0.45594000000E+02  0.51100000000E-03 0.  1.
         11   -1    0    0    0    0 -0.00000000000E+00 -0.00000000000E+00 -0.45593999997E+02  0.45594000000E+02  0.51100000000E-03 0. -1.
    9900012    2    1    2    0    0  0.28300420995E+00 -0.42386339228E+02  0.15245709731E+02  0.46142317524E+02  0.99999978410E+01 0.  0.
         12    1    1    2    0    0 -0.28300420995E+00  0.42386339228E+02 -0.15245709731E+02  0.45045682476E+02  0.00000000000E+00 0. -1.
         11    1    3    3    0    0 -0.18553553584E+01 -0.11237296160E+02  0.36279996214E+01  0.11953307074E+02  0.51100000000E-03 0. -1.
        -11    1    3    3    0    0  0.46516605741E+01 -0.21333056350E+02  0.61928665679E+01  0.22695568640E+02  0.51100000000E-03 0.  1.
        -12    1    3    3    0    0 -0.25133010057E+01 -0.98159867182E+01  0.54248435412E+01  0.11493441810E+02  0.00000000000E+00 0.  1.
</event>
<event>
 7    1  0.2328810E-008  0.4614232E+02  0.7816164E-02  0.1320468E+00
        -11   -1    0    0    0    0  0.00000000000E+00  0.00000000000E+00  0.45593999997E+02  0.45594000000E+02  0.51100000000E-03 0.  1.
         11   -1    0    0    0    0 -0.00000000000E+00 -0.00000000000E+00 -0.45593999997E+02  0.45594000000E+02  0.51100000000E-03 0. -1.
    9900012    2    1    2    0    0  0.33639028013E+02  0.20946420027E+02  0.21419074695E+02  0.46142317872E+02  0.10000001010E+02 0.  0.
         12    1    1    2    0    0 -0.33639028013E+02 -0.20946420027E+02 -0.21419074695E+02  0.45045682128E+02  0.00000000000E+00 0. -1.
         11    1    3    3    0    0  0.43526066270E+01  0.20428404553E+01  0.44764757564E+01  0.65694152734E+01  0.51100000000E-03 0. -1.
        -11    1    3    3    0    0  0.66880779668E+00  0.23824910733E+01  0.24766760245E+01  0.35010701185E+01  0.51100000000E-03 0.  1.
         12    1    3    3    0    0  0.28617613589E+02  0.16521088499E+02  0.14465922914E+02  0.36071832480E+02  0.00000000000E+00 0. -1.
</event>
<event>
 7    1  0.2328810E-008  0.4614232E+02  0.7816164E-02  0.1320468E+00
        -11   -1    0    0    0    0  0.00000000000E+00  0.00000000000E+00  0.45593999997E+02  0.45594000000E+02  0.51100000000E-03 0.  1.
         11   -1    0    0    0    0 -0.00000000000E+00 -0.00000000000E+00 -0.45593999997E+02  0.45594000000E+02  0.51100000000E-03 0. -1.
    9900012    2    1    2    0    0  0.13054810111E+02  0.43112451694E+02 -0.43637006439E-01  0.46142318051E+02  0.10000002641E+02 0.  0.
         12    1    1    2    0    0 -0.13054810111E+02 -0.43112451694E+02  0.43637006439E-01  0.45045681949E+02  0.00000000000E+00 0. -1.
         11    1    3    3    0    0  0.95694527818E+01  0.24609033001E+02 -0.15853865078E+01  0.26451699046E+02  0.51100000000E-03 0. -1.
        -11    1    3    3    0    0  0.37523794724E+01  0.12362223913E+02  0.32283737235E+01  0.13316430788E+02  0.51100000000E-03 0.  1.
         12    1    3    3    0    0 -0.26702214308E+00  0.61411947805E+01 -0.16866242222E+01  0.63741882168E+01  0.00000000000E+00 0. -1.
</event>
<event>
 7    1  0.2328810E-008  0.4614232E+02  0.7816164E-02  0.1320468E+00
        -11   -1    0    0    0    0  0.00000000000E+00  0.00000000000E+00  0.45593999997E+02  0.45594000000E+02  0.51100000000E-03 0.  1.
         11   -1    0    0    0    0 -0.00000000000E+00 -0.00000000000E+00 -0.45593999997E+02  0.45594000000E+02  0.51100000000E-03 0. -1.
    9900012    2    1    2    0    0  0.15413473854E+02  0.64637178433E+01  0.41830116142E+02  0.46142318287E+02  0.10000004791E+02 0.  0.
         12    1    1    2    0    0 -0.15413473854E+02 -0.64637178433E+01 -0.41830116142E+02  0.45045681713E+02  0.00000000000E+00 0. -1.
         11    1    3    3    0    0  0.42190038782E+00  0.21232628426E+01  0.88517064448E+01  0.91125711126E+01  0.51100000000E-03 0. -1.
        -11    1    3    3    0    0  0.86838177605E+01  0.47043701868E+01  0.14872052744E+02  0.17852667667E+02  0.51100000000E-03 0.  1.
         12    1    3    3    0    0  0.63077557057E+01 -0.36391518606E+00  0.18106356953E+02  0.19177079507E+02  0.00000000000E+00 0. -1.
</event>
<event>
 7    1  0.2328810E-008  0.4614232E+02  0.7816164E-02  0.1320468E+00
        -11   -1    0    0    0    0  0.00000000000E+00  0.00000000000E+00  0.45593999997E+02  0.45594000000E+02  0.51100000000E-03 0.  1.
         11   -1    0    0    0    0 -0.00000000000E+00 -0.00000000000E+00 -0.45593999997E+02  0.45594000000E+02  0.51100000000E-03 0. -1.
    9900012    2    1    2    0    0 -0.90062819492E+01 -0.15705272071E+01  0.44108205515E+02  0.46142318031E+02  0.10000002463E+02 0.  0.
         12    1    1    2    0    0  0.90062819492E+01  0.15705272071E+01 -0.44108205515E+02  0.45045681969E+02  0.00000000000E+00 0. -1.
         11    1    3    3    0    0 -0.58501271559E+01  0.10569906440E+01  0.16553926529E+02  0.17589022166E+02  0.51100000000E-03 0. -1.
        -11    1    3    3    0    0 -0.38084021987E+01 -0.15245635020E+01  0.83196610682E+01  0.92760434308E+01  0.51100000000E-03 0.  1.
        -12    1    3    3    0    0  0.65224740536E+00 -0.11029543491E+01  0.19234617918E+02  0.19277252434E+02  0.00000000000E+00 0.  1.
</event>
<event>
 7    1  0.2328810E-008  0.4614232E+02  0.7816164E-02  0.1320468E+00
        -11   -1    0    0    0    0  0.00000000000E+00  0.00000000000E+00  0.45593999997E+02  0.45594000000E+02  0.51100000000E-03 0. -1.
         11   -1    0    0    0    0 -0.00000000000E+00 -0.00000000000E+00 -0.45593999997E+02  0.45594000000E+02  0.51100000000E-03 0.  1.
    9900012    2    1    2    0    0  0.39155756129E+02 -0.22203984571E+02  0.17097633892E+01  0.46142318079E+02  0.10000002897E+02 0.  0.
         12    1    1    2    0    0 -0.39155756129E+02  0.22203984571E+02 -0.17097633892E+01  0.45045681921E+02  0.00000000000E+00 0. -1.
         11    1    3    3    0    0  0.17924541717E+02 -0.71572967606E+01  0.16723637335E+01  0.19372993919E+02  0.51100000000E-03 0. -1.
        -11    1    3    3    0    0  0.53446287862E+01 -0.30507700679E+01  0.26334729212E+01  0.66938355789E+01  0.51100000000E-03 0.  1.
        -12    1    3    3    0    0  0.15886585626E+02 -0.11995917743E+02 -0.25960732655E+01  0.20075488580E+02  0.00000000000E+00 0.  1.
</event>
<event>
 7    1  0.2328810E-008  0.4614232E+02  0.7816164E-02  0.1320468E+00
        -11   -1    0    0    0    0  0.00000000000E+00  0.00000000000E+00  0.45593999997E+02  0.45594000000E+02  0.51100000000E-03 0.  1.
         11   -1    0    0    0    0 -0.00000000000E+00 -0.00000000000E+00 -0.45593999997E+02  0.45594000000E+02  0.51100000000E-03 0. -1.
    9900012    2    1    2    0    0 -0.26974546646E+02 -0.40001763846E+01  0.35853676554E+02  0.46142315409E+02  0.99999785487E+01 0.  0.
         12    1    1    2    0    0  0.26974546646E+02  0.40001763846E+01 -0.35853676554E+02  0.45045684591E+02  0.00000000000E+00 0. -1.
         11    1    3    3    0    0 -0.15107924080E+02 -0.19470003605E+01  0.20178651642E+02  0.25282764144E+02  0.51100000000E-03 0. -1.
        -11    1    3    3    0    0 -0.11690581883E+02  0.23243654255E-02  0.13588730817E+02  0.17925493456E+02  0.51100000000E-03 0.  1.
         12    1    3    3    0    0 -0.17604068292E+00 -0.20555003895E+01  0.20862940948E+01  0.29340578085E+01  0.00000000000E+00 0. -1.
</event>
<event>
 7    1  0.2328810E-008  0.4614232E+02  0.7816164E-02  0.1320468E+00
        -11   -1    0    0    0    0  0.00000000000E+00  0.00000000000E+00  0.45593999997E+02  0.45594000000E+02  0.51100000000E-03 0.  1.
         11   -1    0    0    0    0 -0.00000000000E+00 -0.00000000000E+00 -0.45593999997E+02  0.45594000000E+02  0.51100000000E-03 0. -1.
    9900012    2    1    2    0    0  0.25284200087E+02 -0.15830510359E+02  0.33752299506E+02  0.46142317031E+02  0.99999933394E+01 0.  0.
         12    1    1    2    0    0 -0.25284200087E+02  0.15830510359E+02 -0.33752299506E+02  0.45045682969E+02  0.00000000000E+00 0. -1.
         11    1    3    3    0    0  0.12094517344E+01 -0.37884026271E+01  0.48053417398E+01  0.62374736441E+01  0.51100000000E-03 0. -1.
        -11    1    3    3    0    0  0.13518054595E+01 -0.13837270489E+01  0.43609635584E+01  0.47707527671E+01  0.51100000000E-03 0.  1.
        -12    1    3    3    0    0  0.22722942893E+02 -0.10658380683E+02  0.24585994207E+02  0.35134090620E+02  0.00000000000E+00 0.  1.
</event>
<event>
 7    1  0.2328810E-008  0.4614232E+02  0.7816164E-02  0.1320468E+00
        -11   -1    0    0    0    0  0.00000000000E+00  0.00000000000E+00  0.45593999997E+02  0.45594000000E+02  0.51100000000E-03 0.  1.
         11   -1    0    0    0    0 -0.00000000000E+00 -0.00000000000E+00 -0.45593999997E+02  0.45594000000E+02  0.51100000000E-03 0. -1.
    9900012    2    1    2    0    0 -0.38389105348E+02  0.88229262580E+01  0.21852827402E+02  0.46142317603E+02  0.99999985563E+01 0.  0.
         12    1    1    2    0    0  0.38389105348E+02 -0.88229262580E+01 -0.21852827402E+02  0.45045682397E+02  0.00000000000E+00 0. -1.
         11    1    3    3    0    0 -0.44545155298E+01  0.11094162903E+01  0.50330132377E+01  0.68121021441E+01  0.51100000000E-03 0. -1.
        -11    1    3    3    0    0 -0.17013239501E+01 -0.53207892899E+00 -0.45770039193E+00  0.18404078569E+01  0.51100000000E-03 0.  1.
        -12    1    3    3    0    0 -0.32233265868E+02  0.82455888967E+01  0.17277514556E+02  0.37489807602E+02  0.00000000000E+00 0.  1.
</event>
<event>
 7    1  0.2328810E-008  0.4614232E+02  0.7816164E-02  0.1320468E+00
        -11   -1    0    0    0    0  0.00000000000E+00  0.00000000000E+00  0.45593999997E+02  0.45594000000E+02  0.51100000000E-03 0.  1.
         11   -1    0    0    0    0 -0.00000000000E+00 -0.00000000000E+00 -0.45593999997E+02  0.45594000000E+02  0.51100000000E-03 0. -1.
    9900012    2    1    2    0    0 -0.13821306029E+02  0.89370561038E+01  0.41931062812E+02  0.46142317624E+02  0.99999987543E+01 0.  0.
         12    1    1    2    0    0  0.13821306029E+02 -0.89370561038E+01 -0.41931062812E+02  0.45045682376E+02  0.00000000000E+00 0. -1.
         11    1    3    3    0    0 -0.44082340753E+00 -0.11529619722E+01  0.14246879249E+01  0.18850417849E+01  0.51100000000E-03 0. -1.
        -11    1    3    3    0    0  0.47206962578E+00  0.99083467717E+00  0.13647039630E+01  0.17512910257E+01  0.51100000000E-03 0.  1.
        -12    1    3    3    0    0 -0.13852552247E+02  0.90991833989E+01  0.39141670924E+02  0.42505984814E+02  0.00000000000E+00 0.  1.
</event>
<event>
 7    1  0.2328810E-008  0.4614232E+02  0.7816164E-02  0.1320468E+00
        -11   -1    0    0    0    0  0.00000000000E+00  0.00000000000E+00  0.45593999997E+02  0.45594000000E+02  0.51100000000E-03 0. -1.
         11   -1    0    0    0    0 -0.00000000000E+00 -0.00000000000E+00 -0.45593999997E+02  0.45594000000E+02  0.51100000000E-03 0.  1.
    9900012    2    1    2    0    0 -0.27697047011E+02  0.21749415206E+01  0.35457814961E+02  0.46142318458E+02  0.10000006357E+02 0.  0.
         12    1    1    2    0    0  0.27697047011E+02 -0.21749415206E+01 -0.35457814961E+02  0.45045681542E+02  0.00000000000E+00 0. -1.
         11    1    3    3    0    0 -0.77045970552E+01  0.70571474678E-01  0.65123226231E+01  0.10088416245E+02  0.51100000000E-03 0. -1.
        -11    1    3    3    0    0 -0.17143183752E+02  0.19401029764E+01  0.28273838820E+02  0.33121937000E+02  0.51100000000E-03 0.  1.
         12    1    3    3    0    0 -0.28492662032E+01  0.16426706958E+00  0.67165351815E+00  0.29319652139E+01  0.00000000000E+00 0. -1.
</event>
<event>
 7    1  0.2328810E-008  0.4614232E+02  0.7816164E-02  0.1320468E+00
        -11   -1    0    0    0    0  0.00000000000E+00  0.00000000000E+00  0.45593999997E+02  0.45594000000E+02  0.51100000000E-03 0.  1.
         11   -1    0    0    0    0 -0.00000000000E+00 -0.00000000000E+00 -0.45593999997E+02  0.45594000000E+02  0.51100000000E-03 0. -1.
    9900012    2    1    2    0    0  0.32361648308E+02  0.26607113711E+02  0.16549885941E+02  0.46142317566E+02  0.99999982211E+01 0.  0.
         12    1    1    2    0    0 -0.32361648308E+02 -0.26607113711E+02 -0.16549885941E+02  0.45045682434E+02  0.00000000000E+00 0. -1.
         11    1    3    3    0    0 -0.97895303547E-02  0.53618308980E+00 -0.19459420865E+00  0.57048690419E+00  0.51100000000E-03 0. -1.
        -11    1    3    3    0    0  0.20773475923E+02  0.13608742326E+02  0.63787726978E+01  0.25640279074E+02  0.51100000000E-03 0.  1.
         12    1    3    3    0    0  0.11597961916E+02  0.12462188296E+02  0.10365707452E+02  0.19931551588E+02  0.00000000000E+00 0. -1.
</event>
<event>
 7    1  0.2328810E-008  0.4614232E+02  0.7816164E-02  0.1320468E+00
        -11   -1    0    0    0    0  0.00000000000E+00  0.00000000000E+00  0.45593999997E+02  0.45594000000E+02  0.51100000000E-03 0.  1.
         11   -1    0    0    0    0 -0.00000000000E+00 -0.00000000000E+00 -0.45593999997E+02  0.45594000000E+02  0.51100000000E-03 0. -1.
    9900012    2    1    2    0    0  0.24153509079E+02  0.13901921897E+02  0.35390084706E+02  0.46142317313E+02  0.99999959127E+01 0.  0.
         12    1    1    2    0    0 -0.24153509079E+02 -0.13901921897E+02 -0.35390084706E+02  0.45045682687E+02  0.00000000000E+00 0. -1.
         11    1    3    3    0    0  0.34253220460E+00  0.25144547547E+01  0.22211735037E+01  0.33724505956E+01  0.51100000000E-03 0. -1.
        -11    1    3    3    0    0  0.17019932999E+02  0.78390309487E+01  0.27327751729E+02  0.33135095297E+02  0.51100000000E-03 0.  1.
         12    1    3    3    0    0  0.67910438749E+01  0.35484361932E+01  0.58411594733E+01  0.96347714203E+01  0.00000000000E+00 0. -1.
</event>
<event>
 7    1  0.2328810E-008  0.4614232E+02  0.7816164E-02  0.1320468E+00
        -11   -1    0    0    0    0  0.00000000000E+00  0.00000000000E+00  0.45593999997E+02  0.45594000000E+02  0.51100000000E-03 0. -1.
         11   -1    0    0    0    0 -0.00000000000E+00 -0.00000000000E+00 -0.45593999997E+02  0.45594000000E+02  0.51100000000E-03 0.  1.
    9900012    2    1    2    0    0  0.34407155443E+02  0.28946077880E+02 -0.27175530014E+01  0.46142324685E+02  0.10000063136E+02 0.  0.
         12    1    1    2    0    0 -0.34407155443E+02 -0.28946077880E+02  0.27175530014E+01  0.45045675315E+02  0.00000000000E+00 0. -1.
         11    1    3    3    0    0  0.31709025373E+01  0.22866261427E+01 -0.26060513524E+01  0.46983812031E+01  0.51100000000E-03 0. -1.
        -11    1    3    3    0    0  0.18706651402E+02  0.19458766422E+02 -0.10747546091E-01  0.26992267655E+02  0.51100000000E-03 0.  1.
         12    1    3    3    0    0  0.12529601503E+02  0.72006853152E+01 -0.10075410290E+00  0.14451675827E+02  0.00000000000E+00 0. -1.
</event>
<event>
 7    1  0.2328810E-008  0.4614232E+02  0.7816164E-02  0.1320468E+00
        -11   -1    0    0    0    0  0.00000000000E+00  0.00000000000E+00  0.45593999997E+02  0.45594000000E+02  0.51100000000E-03 0.  1.
         11   -1    0    0    0    0 -0.00000000000E+00 -0.00000000000E+00 -0.45593999997E+02  0.45594000000E+02  0.51100000000E-03 0. -1.
    9900012    2    1    2    0    0  0.29631530168E+02  0.25078069359E+02  0.22851177582E+02  0.46142318079E+02  0.10000002899E+02 0.  0.
         12    1    1    2    0    0 -0.29631530168E+02 -0.25078069359E+02 -0.22851177582E+02  0.45045681921E+02  0.00000000000E+00 0. -1.
         11    1    3    3    0    0  0.16237353764E+02  0.10257854233E+02  0.87132238377E+01  0.21090175453E+02  0.51100000000E-03 0. -1.
        -11    1    3    3    0    0  0.98754633263E+01  0.13381508589E+02  0.98809359757E+01  0.19344829905E+02  0.51100000000E-03 0.  1.
        -12    1    3    3    0    0  0.35187130771E+01  0.14387065370E+01  0.42570177684E+01  0.57073127213E+01  0.00000000000E+00 0.  1.
</event>
<event>
 7    1  0.2328810E-008  0.4614232E+02  0.7816164E-02  0.1320468E+00
        -11   -1    0    0    0    0  0.00000000000E+00  0.00000000000E+00  0.45593999997E+02  0.45594000000E+02  0.51100000000E-03 0.  1.
         11   -1    0    0    0    0 -0.00000000000E+00 -0.00000000000E+00 -0.45593999997E+02  0.45594000000E+02  0.51100000000E-03 0. -1.
    9900012    2    1    2    0    0 -0.28848338673E+02 -0.25784482579E+02  0.23066144057E+02  0.46142321099E+02  0.10000030436E+02 0.  0.
         12    1    1    2    0    0  0.28848338673E+02  0.25784482579E+02 -0.23066144057E+02  0.45045678901E+02  0.00000000000E+00 0. -1.
         11    1    3    3    0    0 -0.33527064432E+01 -0.29838680904E+01  0.24717058771E+00  0.44950197814E+01  0.51100000000E-03 0. -1.
        -11    1    3    3    0    0 -0.70978928585E+01 -0.93461313793E+01  0.51877259918E+01  0.12831319340E+02  0.51100000000E-03 0.  1.
         12    1    3    3    0    0 -0.18397739371E+02 -0.13454483109E+02  0.17631247477E+02  0.28815981977E+02  0.00000000000E+00 0. -1.
</event>
<event>
 7    1  0.2328810E-008  0.4614232E+02  0.7816164E-02  0.1320468E+00
        -11   -1    0    0    0    0  0.00000000000E+00  0.00000000000E+00  0.45593999997E+02  0.45594000000E+02  0.51100000000E-03 0.  1.
         11   -1    0    0    0    0 -0.00000000000E+00 -0.00000000000E+00 -0.45593999997E+02  0.45594000000E+02  0.51100000000E-03 0. -1.
    9900012    2    1    2    0    0  0.27588954442E+02 -0.52304231630E+01  0.35222233852E+02  0.46142317729E+02  0.99999997114E+01 0.  0.
         12    1    1    2    0    0 -0.27588954442E+02  0.52304231630E+01 -0.35222233852E+02  0.45045682271E+02  0.00000000000E+00 0. -1.
         11    1    3    3    0    0  0.18077672357E+02 -0.26269698434E+01  0.20260390387E+02  0.27279784224E+02  0.51100000000E-03 0. -1.
        -11    1    3    3    0    0  0.91792523816E+01 -0.18482407538E+01  0.15326617027E+02  0.17960508287E+02  0.51100000000E-03 0.  1.
         12    1    3    3    0    0  0.33202970365E+00 -0.75521256578E+00 -0.36477356191E+00  0.90202521865E+00  0.00000000000E+00 0. -1.
</event>
<event>
 7    1  0.2328810E-008  0.4614232E+02  0.7816164E-02  0.1320468E+00
        -11   -1    0    0    0    0  0.00000000000E+00  0.00000000000E+00  0.45593999997E+02  0.45594000000E+02  0.51100000000E-03 0. -1.
         11   -1    0    0    0    0 -0.00000000000E+00 -0.00000000000E+00 -0.45593999997E+02  0.45594000000E+02  0.51100000000E-03 0.  1.
    9900012    2    1    2    0    0 -0.12101656417E+02  0.38734116074E+02 -0.19553295032E+02  0.46142321155E+02  0.10000030946E+02 0.  0.
         12    1    1    2    0    0  0.12101656417E+02 -0.38734116074E+02  0.19553295032E+02  0.45045678845E+02  0.00000000000E+00 0. -1.
         11    1    3    3    0    0 -0.10146005459E+02  0.26330494355E+02 -0.11658576318E+02  0.30531275142E+02  0.51100000000E-03 0.  1.
        -11    1    3    3    0    0 -0.29171625997E+01  0.92820894459E+01 -0.39789372632E+01  0.10511848749E+02  0.51100000000E-03 0. -1.
         12    1    3    3    0    0  0.96151164206E+00  0.31215322726E+01 -0.39157814510E+01  0.50991972641E+01  0.00000000000E+00 0. -1.
</event>
<event>
 7    1  0.2328810E-008  0.4614232E+02  0.7816164E-02  0.1320468E+00
        -11   -1    0    0    0    0  0.00000000000E+00  0.00000000000E+00  0.45593999997E+02  0.45594000000E+02  0.51100000000E-03 0.  1.
         11   -1    0    0    0    0 -0.00000000000E+00 -0.00000000000E+00 -0.45593999997E+02  0.45594000000E+02  0.51100000000E-03 0. -1.
    9900012    2    1    2    0    0  0.40136865446E+02 -0.19366815358E+02  0.65629150654E+01  0.46142319196E+02  0.10000013084E+02 0.  0.
         12    1    1    2    0    0 -0.40136865446E+02  0.19366815358E+02 -0.65629150654E+01  0.45045680804E+02  0.00000000000E+00 0. -1.
         11    1    3    3    0    0  0.26166979593E+02 -0.14333798039E+02  0.37684565892E+01  0.30072742685E+02  0.51100000000E-03 0. -1.
        -11    1    3    3    0    0  0.12315605842E+02 -0.34849433525E+01  0.41184069698E+01  0.13445454759E+02  0.51100000000E-03 0.  1.
         12    1    3    3    0    0  0.16542800104E+01 -0.15480739659E+01 -0.13239484936E+01  0.26241217522E+01  0.00000000000E+00 0. -1.
</event>
<event>
 7    1  0.2328810E-008  0.4614232E+02  0.7816164E-02  0.1320468E+00
        -11   -1    0    0    0    0  0.00000000000E+00  0.00000000000E+00  0.45593999997E+02  0.45594000000E+02  0.51100000000E-03 0.  1.
         11   -1    0    0    0    0 -0.00000000000E+00 -0.00000000000E+00 -0.45593999997E+02  0.45594000000E+02  0.51100000000E-03 0. -1.
    9900012    2    1    2    0    0 -0.35220486647E+02 -0.23643526538E+02  0.15153027082E+02  0.46142320335E+02  0.10000023466E+02 0.  0.
         12    1    1    2    0    0  0.35220486647E+02  0.23643526538E+02 -0.15153027082E+02  0.45045679665E+02  0.00000000000E+00 0. -1.
         11    1    3    3    0    0 -0.16037192099E+01 -0.12563321822E+01  0.47015518607E-01  0.20377675471E+01  0.51100000000E-03 0. -1.
        -11    1    3    3    0    0 -0.11127809951E+02 -0.12408903700E+02  0.41763353103E+01  0.17182864203E+02  0.51100000000E-03 0.  1.
        -12    1    3    3    0    0 -0.22488957486E+02 -0.99782906550E+01  0.10929676253E+02  0.26921688584E+02  0.00000000000E+00 0.  1.
</event>
<event>
 7    1  0.2328810E-008  0.4614232E+02  0.7816164E-02  0.1320468E+00
        -11   -1    0    0    0    0  0.00000000000E+00  0.00000000000E+00  0.45593999997E+02  0.45594000000E+02  0.51100000000E-03 0.  1.
         11   -1    0    0    0    0 -0.00000000000E+00 -0.00000000000E+00 -0.45593999997E+02  0.45594000000E+02  0.51100000000E-03 0. -1.
    9900012    2    1    2    0    0 -0.22319478622E+01 -0.43924591642E+02 -0.97345817184E+01  0.46142318482E+02  0.10000006574E+02 0.  0.
         12    1    1    2    0    0  0.22319478622E+01  0.43924591642E+02  0.97345817184E+01  0.45045681518E+02  0.00000000000E+00 0. -1.
         11    1    3    3    0    0 -0.28677937228E+01 -0.16715830813E+02 -0.41621101415E+01  0.17463287254E+02  0.51100000000E-03 0. -1.
        -11    1    3    3    0    0  0.12170184642E+01 -0.26458750449E+02 -0.65833439524E+01  0.27292618546E+02  0.51100000000E-03 0.  1.
         12    1    3    3    0    0 -0.58117260358E+00 -0.75001038010E+00  0.10108723756E+01  0.13864126821E+01  0.00000000000E+00 0. -1.
</event>
<event>
 7    1  0.2328810E-008  0.4614232E+02  0.7816164E-02  0.1320468E+00
        -11   -1    0    0    0    0  0.00000000000E+00  0.00000000000E+00  0.45593999997E+02  0.45594000000E+02  0.51100000000E-03 0.  1.
         11   -1    0    0    0    0 -0.00000000000E+00 -0.00000000000E+00 -0.45593999997E+02  0.45594000000E+02  0.51100000000E-03 0. -1.
    9900012    2    1    2    0    0 -0.35920088024E+02 -0.16603085773E+02  0.21522037519E+02  0.46142320076E+02  0.10000021113E+02 0.  0.
         12    1    1    2    0    0  0.35920088024E+02  0.16603085773E+02 -0.21522037519E+02  0.45045679924E+02  0.00000000000E+00 0. -1.
         11    1    3    3    0    0 -0.20769791515E+02 -0.82367067128E+01  0.11161815500E+02  0.24976262782E+02  0.51100000000E-03 0. -1.
        -11    1    3    3    0    0 -0.10565560104E+02 -0.68770944351E+01  0.40826830804E+01  0.13251180686E+02  0.51100000000E-03 0.  1.
        -12    1    3    3    0    0 -0.45847364048E+01 -0.14892846246E+01  0.62775389390E+01  0.79148766084E+01  0.00000000000E+00 0.  1.
</event>
<event>
 7    1  0.2328810E-008  0.4614232E+02  0.7816164E-02  0.1320468E+00
        -11   -1    0    0    0    0  0.00000000000E+00  0.00000000000E+00  0.45593999997E+02  0.45594000000E+02  0.51100000000E-03 0.  1.
         11   -1    0    0    0    0 -0.00000000000E+00 -0.00000000000E+00 -0.45593999997E+02  0.45594000000E+02  0.51100000000E-03 0. -1.
    9900012    2    1    2    0    0 -0.67771798437E+01  0.22090159866E+02  0.38667920840E+02  0.46142318391E+02  0.10000005747E+02 0.  0.
         12    1    1    2    0    0  0.67771798437E+01 -0.22090159866E+02 -0.38667920840E+02  0.45045681609E+02  0.00000000000E+00 0. -1.
         11    1    3    3    0    0 -0.49592586242E+01  0.10116930304E+02  0.21110271074E+02  0.23928854339E+02  0.51100000000E-03 0. -1.
        -11    1    3    3    0    0 -0.31744361711E+01  0.51416572246E+01  0.49558406496E+01  0.78149882166E+01  0.51100000000E-03 0.  1.
        -12    1    3    3    0    0  0.13565149517E+01  0.68315723369E+01  0.12601809116E+02  0.14398475836E+02  0.00000000000E+00 0.  1.
</event>
<event>
 7    1  0.2328810E-008  0.4614232E+02  0.7816164E-02  0.1320468E+00
        -11   -1    0    0    0    0  0.00000000000E+00  0.00000000000E+00  0.45593999997E+02  0.45594000000E+02  0.51100000000E-03 0. -1.
         11   -1    0    0    0    0 -0.00000000000E+00 -0.00000000000E+00 -0.45593999997E+02  0.45594000000E+02  0.51100000000E-03 0.  1.
    9900012    2    1    2    0    0 -0.19775964621E+02  0.83348539034E+01 -0.39604985785E+02  0.46142318017E+02  0.10000002332E+02 0.  0.
         12    1    1    2    0    0  0.19775964621E+02 -0.83348539034E+01  0.39604985785E+02  0.45045681983E+02  0.00000000000E+00 0. -1.
         11    1    3    3    0    0 -0.53782705146E+01  0.34254261368E+01 -0.66360729162E+01  0.92030865451E+01  0.51100000000E-03 0. -1.
        -11    1    3    3    0    0 -0.11017501698E+02  0.46083525449E+01 -0.18077693952E+02  0.21666224308E+02  0.51100000000E-03 0.  1.
         12    1    3    3    0    0 -0.33801924077E+01  0.30107522161E+00 -0.14891218917E+02  0.15273007164E+02  0.00000000000E+00 0. -1.
</event>
<event>
 7    1  0.2328810E-008  0.4614231E+02  0.7816164E-02  0.1320468E+00
        -11   -1    0    0    0    0  0.00000000000E+00  0.00000000000E+00  0.45593999997E+02  0.45594000000E+02  0.51100000000E-03 0.  1.
         11   -1    0    0    0    0 -0.00000000000E+00 -0.00000000000E+00 -0.45593999997E+02  0.45594000000E+02  0.51100000000E-03 0. -1.
    9900012    2    1    2    0    0  0.10572655113E+02  0.32715370014E+01  0.43664974432E+02  0.46142312275E+02  0.99999499740E+01 0.  0.
         12    1    1    2    0    0 -0.10572655113E+02 -0.32715370014E+01 -0.43664974432E+02  0.45045687725E+02  0.00000000000E+00 0. -1.
         11    1    3    3    0    0 -0.29052982171E+00  0.20501352512E+01  0.24365122571E+01  0.31975075239E+01  0.51100000000E-03 0. -1.
        -11    1    3    3    0    0  0.17340699338E+01 -0.97316148289E+00  0.31441810407E+01  0.37202038231E+01  0.51100000000E-03 0.  1.
        -12    1    3    3    0    0  0.91291150007E+01  0.21945632331E+01  0.38084281134E+02  0.39224600928E+02  0.00000000000E+00 0.  1.
</event>
<event>
 7    1  0.2328810E-008  0.4614232E+02  0.7816164E-02  0.1320468E+00
        -11   -1    0    0    0    0  0.00000000000E+00  0.00000000000E+00  0.45593999997E+02  0.45594000000E+02  0.51100000000E-03 0.  1.
         11   -1    0    0    0    0 -0.00000000000E+00 -0.00000000000E+00 -0.45593999997E+02  0.45594000000E+02  0.51100000000E-03 0. -1.
    9900012    2    1    2    0    0  0.19034953569E+02  0.18459418796E+02  0.36414748240E+02  0.46142317753E+02  0.99999999298E+01 0.  0.
         12    1    1    2    0    0 -0.19034953569E+02 -0.18459418796E+02 -0.36414748240E+02  0.45045682247E+02  0.00000000000E+00 0. -1.
         11    1    3    3    0    0  0.49535183104E+01  0.17348239385E+01  0.62596016678E+01  0.81688169920E+01  0.51100000000E-03 0. -1.
        -11    1    3    3    0    0  0.54903204727E+01  0.42801108116E+01  0.15137221416E+02  0.16661285662E+02  0.51100000000E-03 0.  1.
         12    1    3    3    0    0  0.85911147859E+01  0.12444484046E+02  0.15017925156E+02  0.21312215099E+02  0.00000000000E+00 0. -1.
</event>
<event>
 7    1  0.2328810E-008  0.4614232E+02  0.7816164E-02  0.1320468E+00
        -11   -1    0    0    0    0  0.00000000000E+00  0.00000000000E+00  0.45593999997E+02  0.45594000000E+02  0.51100000000E-03 0.  1.
         11   -1    0    0    0    0 -0.00000000000E+00 -0.00000000000E+00 -0.45593999997E+02  0.45594000000E+02  0.51100000000E-03 0. -1.
    9900012    2    1    2    0    0  0.24129514231E+02  0.22927909467E+02  0.30351129218E+02  0.46142317250E+02  0.99999953396E+01 0.  0.
         12    1    1    2    0    0 -0.24129514231E+02 -0.22927909467E+02 -0.30351129218E+02  0.45045682750E+02  0.00000000000E+00 0. -1.
         11    1    3    3    0    0  0.83413335425E+01  0.47157886020E+01  0.59723541784E+01  0.11290948680E+02  0.51100000000E-03 0. -1.
        -11    1    3    3    0    0  0.38823531355E+01  0.32856804004E+01  0.89886802376E+01  0.10327862036E+02  0.51100000000E-03 0.  1.
         12    1    3    3    0    0  0.11905827553E+02  0.14926440465E+02  0.15390094802E+02  0.24523506534E+02  0.00000000000E+00 0. -1.
</event>
<event>
 7    1  0.2328810E-008  0.4614231E+02  0.7816164E-02  0.1320468E+00
        -11   -1    0    0    0    0  0.00000000000E+00  0.00000000000E+00  0.45593999997E+02  0.45594000000E+02  0.51100000000E-03 0.  1.
         11   -1    0    0    0    0 -0.00000000000E+00 -0.00000000000E+00 -0.45593999997E+02  0.45594000000E+02  0.51100000000E-03 0. -1.
    9900012    2    1    2    0    0 -0.39518711203E+02  0.57241509605E-01 -0.21619017766E+02  0.46142314958E+02  0.99999744422E+01 0.  0.
         12    1    1    2    0    0  0.39518711203E+02 -0.57241509605E-01  0.21619017766E+02  0.45045685042E+02  0.00000000000E+00 0. -1.
         11    1    3    3    0    0 -0.16320621146E+02 -0.41262118704E+01 -0.11629007635E+02  0.20460257032E+02  0.51100000000E-03 0. -1.
        -11    1    3    3    0    0 -0.44562773372E+01  0.12550259649E+01 -0.27056949452E+01  0.53623020501E+01  0.51100000000E-03 0.  1.
         12    1    3    3    0    0 -0.18741812720E+02  0.29284274151E+01 -0.72843151859E+01  0.20319755876E+02  0.00000000000E+00 0. -1.
</event>
<event>
 7    1  0.2328810E-008  0.4614232E+02  0.7816164E-02  0.1320468E+00
        -11   -1    0    0    0    0  0.00000000000E+00  0.00000000000E+00  0.45593999997E+02  0.45594000000E+02  0.51100000000E-03 0.  1.
         11   -1    0    0    0    0 -0.00000000000E+00 -0.00000000000E+00 -0.45593999997E+02  0.45594000000E+02  0.51100000000E-03 0. -1.
    9900012    2    1    2    0    0 -0.66838977045E-01 -0.44931295927E+02  0.32074363076E+01  0.46142317978E+02  0.10000001981E+02 0.  0.
         12    1    1    2    0    0  0.66838977045E-01  0.44931295927E+02 -0.32074363076E+01  0.45045682022E+02  0.00000000000E+00 0. -1.
         11    1    3    3    0    0 -0.38050301581E+01 -0.14788114293E+02  0.14657467698E+01  0.15339980206E+02  0.51100000000E-03 0. -1.
        -11    1    3    3    0    0  0.15097665707E+01 -0.15389903721E+02  0.32632006917E+01  0.15804335185E+02  0.51100000000E-03 0.  1.
         12    1    3    3    0    0  0.22284246103E+01 -0.14753277913E+02 -0.15215111540E+01  0.14998002587E+02  0.00000000000E+00 0. -1.
</event>
<event>
 7    1  0.2328810E-008  0.4614232E+02  0.7816164E-02  0.1320468E+00
        -11   -1    0    0    0    0  0.00000000000E+00  0.00000000000E+00  0.45593999997E+02  0.45594000000E+02  0.51100000000E-03 0.  1.
         11   -1    0    0    0    0 -0.00000000000E+00 -0.00000000000E+00 -0.45593999997E+02  0.45594000000E+02  0.51100000000E-03 0. -1.
    9900012    2    1    2    0    0 -0.24382815513E+02 -0.76734115902E+01  0.37090571815E+02  0.46142318127E+02  0.10000003340E+02 0.  0.
         12    1    1    2    0    0  0.24382815513E+02  0.76734115902E+01 -0.37090571815E+02  0.45045681873E+02  0.00000000000E+00 0. -1.
         11    1    3    3    0    0 -0.21536818625E+00  0.84583524564E+00  0.50525723723E+00  0.10085166609E+01  0.51100000000E-03 0. -1.
        -11    1    3    3    0    0 -0.90972552414E+01 -0.63752076475E+01  0.17393132632E+02  0.20637935665E+02  0.51100000000E-03 0.  1.
        -12    1    3    3    0    0 -0.15070192085E+02 -0.21440391884E+01  0.19192181946E+02  0.24495865802E+02  0.00000000000E+00 0.  1.
</event>
<event>
 7    1  0.2328810E-008  0.4614232E+02  0.7816164E-02  0.1320468E+00
        -11   -1    0    0    0    0  0.00000000000E+00  0.00000000000E+00  0.45593999997E+02  0.45594000000E+02  0.51100000000E-03 0. -1.
         11   -1    0    0    0    0 -0.00000000000E+00 -0.00000000000E+00 -0.45593999997E+02  0.45594000000E+02  0.51100000000E-03 0.  1.
    9900012    2    1    2    0    0 -0.25426925641E+02  0.37040885199E+02  0.32492660526E+01  0.46142318146E+02  0.10000003505E+02 0.  0.
         12    1    1    2    0    0  0.25426925641E+02 -0.37040885199E+02 -0.32492660526E+01  0.45045681854E+02  0.00000000000E+00 0. -1.
         11    1    3    3    0    0 -0.96601022475E+01  0.89381522865E+01 -0.86016860365E+00  0.13188935970E+02  0.51100000000E-03 0.  1.
        -11    1    3    3    0    0 -0.73278553956E+01  0.92144463426E+01  0.33972722613E+01  0.12253364647E+02  0.51100000000E-03 0. -1.
        -12    1    3    3    0    0 -0.84389679981E+01  0.18888286569E+02  0.71216239496E+00  0.20700017529E+02  0.00000000000E+00 0.  1.
</event>
<event>
 7    1  0.2328810E-008  0.4614232E+02  0.7816164E-02  0.1320468E+00
        -11   -1    0    0    0    0  0.00000000000E+00  0.00000000000E+00  0.45593999997E+02  0.45594000000E+02  0.51100000000E-03 0. -1.
         11   -1    0    0    0    0 -0.00000000000E+00 -0.00000000000E+00 -0.45593999997E+02  0.45594000000E+02  0.51100000000E-03 0.  1.
    9900012    2    1    2    0    0  0.34826646838E+02  0.11337922704E+02 -0.26223456878E+02  0.46142317500E+02  0.99999976234E+01 0.  0.
         12    1    1    2    0    0 -0.34826646838E+02 -0.11337922704E+02  0.26223456878E+02  0.45045682500E+02  0.00000000000E+00 0. -1.
         11    1    3    3    0    0  0.12474733148E+02  0.84372353247E+01 -0.13221873119E+02  0.20040554785E+02  0.51100000000E-03 0. -1.
        -11    1    3    3    0    0  0.24990635249E+01 -0.16963900304E+00 -0.19442804217E+01  0.31708551705E+01  0.51100000000E-03 0.  1.
         12    1    3    3    0    0  0.19852850165E+02  0.30703263822E+01 -0.11057303338E+02  0.22930907545E+02  0.00000000000E+00 0. -1.
</event>
<event>
 7    1  0.2328810E-008  0.4614232E+02  0.7816164E-02  0.1320468E+00
        -11   -1    0    0    0    0  0.00000000000E+00  0.00000000000E+00  0.45593999997E+02  0.45594000000E+02  0.51100000000E-03 0. -1.
         11   -1    0    0    0    0 -0.00000000000E+00 -0.00000000000E+00 -0.45593999997E+02  0.45594000000E+02  0.51100000000E-03 0.  1.
    9900012    2    1    2    0    0 -0.18094690739E+02  0.12879486261E+02 -0.39189471983E+02  0.46142315261E+02  0.99999772060E+01 0.  0.
         12    1    1    2    0    0  0.18094690739E+02 -0.12879486261E+02  0.39189471983E+02  0.45045684739E+02  0.00000000000E+00 0. -1.
         11    1    3    3    0    0 -0.30235509595E+01  0.32622859740E+00 -0.42599546791E+01  0.52340710381E+01  0.51100000000E-03 0. -1.
        -11    1    3    3    0    0 -0.16101611649E+02  0.11787380538E+02 -0.33442781772E+02  0.38943855620E+02  0.51100000000E-03 0.  1.
         12    1    3    3    0    0  0.10304718692E+01  0.76587712562E+00 -0.14867355319E+01  0.19643886038E+01  0.00000000000E+00 0. -1.
</event>
<event>
 7    1  0.2328810E-008  0.4614232E+02  0.7816164E-02  0.1320468E+00
        -11   -1    0    0    0    0  0.00000000000E+00  0.00000000000E+00  0.45593999997E+02  0.45594000000E+02  0.51100000000E-03 0.  1.
         11   -1    0    0    0    0 -0.00000000000E+00 -0.00000000000E+00 -0.45593999997E+02  0.45594000000E+02  0.51100000000E-03 0. -1.
    9900012    2    1    2    0    0  0.30020680494E+01 -0.18560045967E+02  0.40934408471E+02  0.46142317458E+02  0.99999972316E+01 0.  0.
         12    1    1    2    0    0 -0.30020680494E+01  0.18560045967E+02 -0.40934408471E+02  0.45045682542E+02  0.00000000000E+00 0. -1.
         11    1    3    3    0    0 -0.10904058369E+01 -0.35340972515E+01  0.54647224308E+01  0.65986377214E+01  0.51100000000E-03 0. -1.
        -11    1    3    3    0    0  0.65124502952E+01 -0.11103079795E+02  0.26201582594E+02  0.29192692930E+02  0.51100000000E-03 0.  1.
        -12    1    3    3    0    0 -0.24199764088E+01 -0.39228689200E+01  0.92681034459E+01  0.10350986806E+02  0.00000000000E+00 0.  1.
</event>
<event>
 7    1  0.2328810E-008  0.4614232E+02  0.7816164E-02  0.1320468E+00
        -11   -1    0    0    0    0  0.00000000000E+00  0.00000000000E+00  0.45593999997E+02  0.45594000000E+02  0.51100000000E-03 0.  1.
         11   -1    0    0    0    0 -0.00000000000E+00 -0.00000000000E+00 -0.45593999997E+02  0.45594000000E+02  0.51100000000E-03 0. -1.
    9900012    2    1    2    0    0  0.37211507043E+02 -0.16922925238E+02  0.18921728692E+02  0.46142317946E+02  0.10000001688E+02 0.  0.
         12    1    1    2    0    0 -0.37211507043E+02  0.16922925238E+02 -0.18921728692E+02  0.45045682054E+02  0.00000000000E+00 0. -1.
         11    1    3    3    0    0  0.35620214862E+01 -0.28346051843E+01  0.28002733699E+01  0.53445780775E+01  0.51100000000E-03 0. -1.
        -11    1    3    3    0    0  0.34083083979E+02 -0.14338583013E+02  0.15927016985E+02  0.40260668731E+02  0.51100000000E-03 0.  1.
        -12    1    3    3    0    0 -0.43359842230E+00  0.25026295929E+00  0.19443833684E+00  0.53707113816E+00  0.00000000000E+00 0.  1.
</event>
<event>
 7    1  0.2328810E-008  0.4614232E+02  0.7816164E-02  0.1320468E+00
        -11   -1    0    0    0    0  0.00000000000E+00  0.00000000000E+00  0.45593999997E+02  0.45594000000E+02  0.51100000000E-03 0.  1.
         11   -1    0    0    0    0 -0.00000000000E+00 -0.00000000000E+00 -0.45593999997E+02  0.45594000000E+02  0.51100000000E-03 0. -1.
    9900012    2    1    2    0    0  0.52076081191E+01 -0.10408452768E+02  0.43516185212E+02  0.46142318223E+02  0.10000004216E+02 0.  0.
         12    1    1    2    0    0 -0.52076081191E+01  0.10408452768E+02 -0.43516185212E+02  0.45045681777E+02  0.00000000000E+00 0. -1.
         11    1    3    3    0    0  0.14847518272E+00 -0.71326100836E+01  0.17684796986E+02  0.19069562559E+02  0.51100000000E-03 0. -1.
        -11    1    3    3    0    0  0.35459502252E+01 -0.47353598302E+01  0.20661643187E+02  0.21491879749E+02  0.51100000000E-03 0.  1.
         12    1    3    3    0    0  0.15131827112E+01  0.14595171459E+01  0.51697450384E+01  0.55808759150E+01  0.00000000000E+00 0. -1.
</event>
<event>
 7    1  0.2328810E-008  0.4614231E+02  0.7816164E-02  0.1320468E+00
        -11   -1    0    0    0    0  0.00000000000E+00  0.00000000000E+00  0.45593999997E+02  0.45594000000E+02  0.51100000000E-03 0.  1.
         11   -1    0    0    0    0 -0.00000000000E+00 -0.00000000000E+00 -0.45593999997E+02  0.45594000000E+02  0.51100000000E-03 0. -1.
    9900012    2    1    2    0    0 -0.30262054819E+02 -0.33344701217E+02  0.12052851895E+01  0.46142314596E+02  0.99999711342E+01 0.  0.
         12    1    1    2    0    0  0.30262054819E+02  0.33344701217E+02 -0.12052851895E+01  0.45045685404E+02  0.00000000000E+00 0. -1.
         11    1    3    3    0    0  0.38338721505E+00 -0.98558144696E+00 -0.11808642481E+00  0.10640964289E+01  0.51100000000E-03 0. -1.
        -11    1    3    3    0    0 -0.18572426801E+02 -0.24046139406E+02  0.14753486288E+01  0.30419212867E+02  0.51100000000E-03 0.  1.
         12    1    3    3    0    0 -0.12073015233E+02 -0.83129803650E+01 -0.15197701447E+00  0.14659005300E+02  0.00000000000E+00 0. -1.
</event>
<event>
 7    1  0.2328810E-008  0.4614232E+02  0.7816164E-02  0.1320468E+00
        -11   -1    0    0    0    0  0.00000000000E+00  0.00000000000E+00  0.45593999997E+02  0.45594000000E+02  0.51100000000E-03 0.  1.
         11   -1    0    0    0    0 -0.00000000000E+00 -0.00000000000E+00 -0.45593999997E+02  0.45594000000E+02  0.51100000000E-03 0. -1.
    9900012    2    1    2    0    0  0.14860161459E+02  0.17464124222E+02  0.38772328797E+02  0.46142317479E+02  0.99999974231E+01 0.  0.
         12    1    1    2    0    0 -0.14860161459E+02 -0.17464124222E+02 -0.38772328797E+02  0.45045682521E+02  0.00000000000E+00 0. -1.
         11    1    3    3    0    0 -0.52376122342E+00  0.95694742773E+00  0.15151686669E+01  0.18670325516E+01  0.51100000000E-03 0. -1.
        -11    1    3    3    0    0  0.99017143830E+01  0.48266214184E+01  0.16855965665E+02  0.20136131724E+02  0.51100000000E-03 0.  1.
        -12    1    3    3    0    0  0.54822082997E+01  0.11680555376E+02  0.20401194466E+02  0.24139153203E+02  0.00000000000E+00 0.  1.
</event>
<event>
 7    1  0.2328810E-008  0.4614232E+02  0.7816164E-02  0.1320468E+00
        -11   -1    0    0    0    0  0.00000000000E+00  0.00000000000E+00  0.45593999997E+02  0.45594000000E+02  0.51100000000E-03 0.  1.
         11   -1    0    0    0    0 -0.00000000000E+00 -0.00000000000E+00 -0.45593999997E+02  0.45594000000E+02  0.51100000000E-03 0. -1.
    9900012    2    1    2    0    0 -0.19580797031E+02  0.37672142135E+02  0.15050434671E+02  0.46142317751E+02  0.99999999120E+01 0.  0.
         12    1    1    2    0    0  0.19580797031E+02 -0.37672142135E+02 -0.15050434671E+02  0.45045682249E+02  0.00000000000E+00 0. -1.
         11    1    3    3    0    0 -0.25012137218E+01  0.52086403749E+01 -0.62201696718E+00  0.58114464641E+01  0.51100000000E-03 0. -1.
        -11    1    3    3    0    0 -0.85228023963E+01  0.20378994372E+02  0.11716286386E+02  0.25004258422E+02  0.51100000000E-03 0.  1.
         12    1    3    3    0    0 -0.85567809130E+01  0.12084507389E+02  0.39561652524E+01  0.15326612865E+02  0.00000000000E+00 0. -1.
</event>
<event>
 7    1  0.2328810E-008  0.4614232E+02  0.7816164E-02  0.1320468E+00
        -11   -1    0    0    0    0  0.00000000000E+00  0.00000000000E+00  0.45593999997E+02  0.45594000000E+02  0.51100000000E-03 0. -1.
         11   -1    0    0    0    0 -0.00000000000E+00 -0.00000000000E+00 -0.45593999997E+02  0.45594000000E+02  0.51100000000E-03 0.  1.
    9900012    2    1    2    0    0 -0.67472884986E+01 -0.25605414983E+02 -0.36441053698E+02  0.46142316820E+02  0.99999914223E+01 0.  0.
         12    1    1    2    0    0  0.67472884986E+01  0.25605414983E+02  0.36441053698E+02  0.45045683180E+02  0.00000000000E+00 0. -1.
         11    1    3    3    0    0 -0.16425711856E+01 -0.27601221288E+01 -0.84323983645E+01  0.90233949656E+01  0.51100000000E-03 0. -1.
        -11    1    3    3    0    0 -0.27062173749E+01 -0.21037107924E+02 -0.25749437755E+02  0.33360411677E+02  0.51100000000E-03 0.  1.
         12    1    3    3    0    0 -0.23984999381E+01 -0.18081849294E+01 -0.22592175787E+01  0.37585101783E+01  0.00000000000E+00 0. -1.
</event>
<event>
 7    1  0.2328810E-008  0.4614232E+02  0.7816164E-02  0.1320468E+00
        -11   -1    0    0    0    0  0.00000000000E+00  0.00000000000E+00  0.45593999997E+02  0.45594000000E+02  0.51100000000E-03 0. -1.
         11   -1    0    0    0    0 -0.00000000000E+00 -0.00000000000E+00 -0.45593999997E+02  0.45594000000E+02  0.51100000000E-03 0.  1.
    9900012    2    1    2    0    0  0.48806392881E+01  0.22666501553E+02 -0.38620235222E+02  0.46142317620E+02  0.99999987100E+01 0.  0.
         12    1    1    2    0    0 -0.48806392881E+01 -0.22666501553E+02  0.38620235222E+02  0.45045682380E+02  0.00000000000E+00 0. -1.
         11    1    3    3    0    0 -0.17950351332E+00  0.70988793552E-01  0.21253982521E+00  0.28711384245E+00  0.51100000000E-03 0. -1.
        -11    1    3    3    0    0  0.36612396984E-01  0.10020436777E+01  0.14532781915E+00  0.10131892399E+01  0.51100000000E-03 0.  1.
        -12    1    3    3    0    0  0.50235304044E+01  0.21593469082E+02 -0.38978102866E+02  0.44842014537E+02  0.00000000000E+00 0.  1.
</event>
<event>
 7    1  0.2328810E-008  0.4614232E+02  0.7816164E-02  0.1320468E+00
        -11   -1    0    0    0    0  0.00000000000E+00  0.00000000000E+00  0.45593999997E+02  0.45594000000E+02  0.51100000000E-03 0. -1.
         11   -1    0    0    0    0 -0.00000000000E+00 -0.00000000000E+00 -0.45593999997E+02  0.45594000000E+02  0.51100000000E-03 0.  1.
    9900012    2    1    2    0    0 -0.12413620881E+02  0.43015796083E+02 -0.49655623109E+01  0.46142317575E+02  0.99999983026E+01 0.  0.
         12    1    1    2    0    0  0.12413620881E+02 -0.43015796083E+02  0.49655623109E+01  0.45045682425E+02  0.00000000000E+00 0. -1.
         11    1    3    3    0    0 -0.17422487567E+01  0.20894905811E+02 -0.34659056177E+01  0.21251941595E+02  0.51100000000E-03 0. -1.
        -11    1    3    3    0    0 -0.18592263307E+01  0.61233977480E+01 -0.17144684395E+01  0.66251131930E+01  0.51100000000E-03 0.  1.
        -12    1    3    3    0    0 -0.88121457939E+01  0.15997492525E+02  0.21481174632E+00  0.18265262787E+02  0.00000000000E+00 0.  1.
</event>
<event>
 7    1  0.2328810E-008  0.4614232E+02  0.7816164E-02  0.1320468E+00
        -11   -1    0    0    0    0  0.00000000000E+00  0.00000000000E+00  0.45593999997E+02  0.45594000000E+02  0.51100000000E-03 0.  1.
         11   -1    0    0    0    0 -0.00000000000E+00 -0.00000000000E+00 -0.45593999997E+02  0.45594000000E+02  0.51100000000E-03 0. -1.
    9900012    2    1    2    0    0  0.29451510584E+02  0.80376686293E+01  0.33122770379E+02  0.46142317518E+02  0.99999977804E+01 0.  0.
         12    1    1    2    0    0 -0.29451510584E+02 -0.80376686293E+01 -0.33122770379E+02  0.45045682482E+02  0.00000000000E+00 0. -1.
         11    1    3    3    0    0  0.15135346012E+02  0.32826028248E+00  0.17826180163E+02  0.23387157869E+02  0.51100000000E-03 0.  1.
        -11    1    3    3    0    0  0.11191391207E+02  0.46015406604E+01  0.13091283892E+02  0.17827033623E+02  0.51100000000E-03 0. -1.
         12    1    3    3    0    0  0.31247733652E+01  0.31078676864E+01  0.22053063241E+01  0.49281260255E+01  0.00000000000E+00 0. -1.
</event>
<event>
 7    1  0.2328810E-008  0.4614232E+02  0.7816164E-02  0.1320468E+00
        -11   -1    0    0    0    0  0.00000000000E+00  0.00000000000E+00  0.45593999997E+02  0.45594000000E+02  0.51100000000E-03 0.  1.
         11   -1    0    0    0    0 -0.00000000000E+00 -0.00000000000E+00 -0.45593999997E+02  0.45594000000E+02  0.51100000000E-03 0. -1.
    9900012    2    1    2    0    0  0.15979642242E+02 -0.26476034269E+02  0.32753383661E+02  0.46142317654E+02  0.99999990224E+01 0.  0.
         12    1    1    2    0    0 -0.15979642242E+02  0.26476034269E+02 -0.32753383661E+02  0.45045682346E+02  0.00000000000E+00 0. -1.
         11    1    3    3    0    0  0.28826388939E+01 -0.76201363410E+01  0.48732194880E+01  0.94933847118E+01  0.51100000000E-03 0. -1.
        -11    1    3    3    0    0  0.11184459510E+02 -0.15441963410E+02  0.26167940687E+02  0.32377576941E+02  0.51100000000E-03 0.  1.
        -12    1    3    3    0    0  0.19125438381E+01 -0.34139345180E+01  0.17122234858E+01  0.42713560015E+01  0.00000000000E+00 0.  1.
</event>
<event>
 7    1  0.2328810E-008  0.4614232E+02  0.7816164E-02  0.1320468E+00
        -11   -1    0    0    0    0  0.00000000000E+00  0.00000000000E+00  0.45593999997E+02  0.45594000000E+02  0.51100000000E-03 0.  1.
         11   -1    0    0    0    0 -0.00000000000E+00 -0.00000000000E+00 -0.45593999997E+02  0.45594000000E+02  0.51100000000E-03 0. -1.
    9900012    2    1    2    0    0 -0.23718124268E+02 -0.27522465761E+02  0.26628517967E+02  0.46142317527E+02  0.99999978664E+01 0.  0.
         12    1    1    2    0    0  0.23718124268E+02  0.27522465761E+02 -0.26628517967E+02  0.45045682473E+02  0.00000000000E+00 0. -1.
         11    1    3    3    0    0 -0.19120464957E+01 -0.24056094155E+01  0.11428721725E+01  0.32785721779E+01  0.51100000000E-03 0. -1.
        -11    1    3    3    0    0 -0.11046823171E+02 -0.19193721953E+02  0.15439354926E+02  0.26996387636E+02  0.51100000000E-03 0.  1.
        -12    1    3    3    0    0 -0.10759254601E+02 -0.59231343921E+01  0.10046290868E+02  0.15867357714E+02  0.00000000000E+00 0.  1.
</event>
<event>
 7    1  0.2328810E-008  0.4614232E+02  0.7816164E-02  0.1320468E+00
        -11   -1    0    0    0    0  0.00000000000E+00  0.00000000000E+00  0.45593999997E+02  0.45594000000E+02  0.51100000000E-03 0.  1.
         11   -1    0    0    0    0 -0.00000000000E+00 -0.00000000000E+00 -0.45593999997E+02  0.45594000000E+02  0.51100000000E-03 0. -1.
    9900012    2    1    2    0    0  0.14410770509E+02  0.41362100590E+02  0.10517595176E+02  0.46142317853E+02  0.10000000834E+02 0.  0.
         12    1    1    2    0    0 -0.14410770509E+02 -0.41362100590E+02 -0.10517595176E+02  0.45045682147E+02  0.00000000000E+00 0. -1.
         11    1    3    3    0    0  0.47849264231E+01  0.17073295001E+02  0.10713778268E+01  0.17763467391E+02  0.51100000000E-03 0.  1.
        -11    1    3    3    0    0  0.71800359624E+01  0.11582269310E+02  0.31406821053E+01  0.13984482942E+02  0.51100000000E-03 0. -1.
        -12    1    3    3    0    0  0.24458081233E+01  0.12706536279E+02  0.63055352440E+01  0.14394367520E+02  0.00000000000E+00 0.  1.
</event>
<event>
 7    1  0.2328810E-008  0.4614232E+02  0.7816164E-02  0.1320468E+00
        -11   -1    0    0    0    0  0.00000000000E+00  0.00000000000E+00  0.45593999997E+02  0.45594000000E+02  0.51100000000E-03 0. -1.
         11   -1    0    0    0    0 -0.00000000000E+00 -0.00000000000E+00 -0.45593999997E+02  0.45594000000E+02  0.51100000000E-03 0.  1.
    9900012    2    1    2    0    0 -0.29815628843E+02 -0.51080758830E+01 -0.33377377957E+02  0.46142317390E+02  0.99999966143E+01 0.  0.
         12    1    1    2    0    0  0.29815628843E+02  0.51080758830E+01  0.33377377957E+02  0.45045682610E+02  0.00000000000E+00 0. -1.
         11    1    3    3    0    0 -0.12385350866E+02 -0.38511634706E+01 -0.15656035409E+02  0.20330760467E+02  0.51100000000E-03 0. -1.
        -11    1    3    3    0    0 -0.10202113677E+02 -0.39021172301E+01 -0.87844085506E+01  0.14016971007E+02  0.51100000000E-03 0.  1.
         12    1    3    3    0    0 -0.72281642997E+01  0.26452048176E+01 -0.89369339974E+01  0.11794585917E+02  0.00000000000E+00 0. -1.
</event>
<event>
 7    1  0.2328810E-008  0.4614232E+02  0.7816164E-02  0.1320468E+00
        -11   -1    0    0    0    0  0.00000000000E+00  0.00000000000E+00  0.45593999997E+02  0.45594000000E+02  0.51100000000E-03 0. -1.
         11   -1    0    0    0    0 -0.00000000000E+00 -0.00000000000E+00 -0.45593999997E+02  0.45594000000E+02  0.51100000000E-03 0.  1.
    9900012    2    1    2    0    0  0.89028961958E+01  0.43753561013E+02  0.59563419716E+01  0.46142315726E+02  0.99999814459E+01 0.  0.
         12    1    1    2    0    0 -0.89028961958E+01 -0.43753561013E+02 -0.59563419716E+01  0.45045684274E+02  0.00000000000E+00 0. -1.
         11    1    3    3    0    0  0.46083329881E+01  0.19623888638E+02  0.47396768417E+01  0.20707444918E+02  0.51100000000E-03 0. -1.
        -11    1    3    3    0    0  0.35419136295E+01  0.13838871392E+02  0.38326040791E+01  0.14790144281E+02  0.51100000000E-03 0.  1.
        -12    1    3    3    0    0  0.75264957831E+00  0.10290800983E+02 -0.26159389492E+01  0.10644726527E+02  0.00000000000E+00 0.  1.
</event>
<event>
 7    1  0.2328810E-008  0.4614232E+02  0.7816164E-02  0.1320468E+00
        -11   -1    0    0    0    0  0.00000000000E+00  0.00000000000E+00  0.45593999997E+02  0.45594000000E+02  0.51100000000E-03 0.  1.
         11   -1    0    0    0    0 -0.00000000000E+00 -0.00000000000E+00 -0.45593999997E+02  0.45594000000E+02  0.51100000000E-03 0. -1.
    9900012    2    1    2    0    0  0.14827012799E+01 -0.40974268193E+02  0.18655411530E+02  0.46142318338E+02  0.10000005262E+02 0.  0.
         12    1    1    2    0    0 -0.14827012799E+01  0.40974268193E+02 -0.18655411530E+02  0.45045681662E+02  0.00000000000E+00 0. -1.
         11    1    3    3    0    0 -0.33156934761E+01 -0.11127295919E+02  0.75788531468E+01  0.13865408504E+02  0.51100000000E-03 0. -1.
        -11    1    3    3    0    0  0.46509652881E+00 -0.91645945459E+01  0.29942898960E+01  0.96525582212E+01  0.51100000000E-03 0.  1.
        -12    1    3    3    0    0  0.43332982273E+01 -0.20682377728E+02  0.80822684875E+01  0.22624351613E+02  0.00000000000E+00 0.  1.
</event>
<event>
 7    1  0.2328810E-008  0.4614232E+02  0.7816164E-02  0.1320468E+00
        -11   -1    0    0    0    0  0.00000000000E+00  0.00000000000E+00  0.45593999997E+02  0.45594000000E+02  0.51100000000E-03 0. -1.
         11   -1    0    0    0    0 -0.00000000000E+00 -0.00000000000E+00 -0.45593999997E+02  0.45594000000E+02  0.51100000000E-03 0.  1.
    9900012    2    1    2    0    0 -0.44861652752E+02 -0.23801384428E+01 -0.32985518071E+01  0.46142318846E+02  0.10000009891E+02 0.  0.
         12    1    1    2    0    0  0.44861652752E+02  0.23801384428E+01  0.32985518071E+01  0.45045681154E+02  0.00000000000E+00 0. -1.
         11    1    3    3    0    0 -0.46421064207E+01 -0.26909456211E+01  0.67805306269E+00  0.54083358414E+01  0.51100000000E-03 0. -1.
        -11    1    3    3    0    0 -0.72465774918E+01 -0.18891080670E+01 -0.50276675409E+00  0.75056238450E+01  0.51100000000E-03 0.  1.
         12    1    3    3    0    0 -0.32972968839E+02  0.21999152454E+01 -0.34738381157E+01  0.33228359159E+02  0.00000000000E+00 0. -1.
</event>
<event>
 7    1  0.2328810E-008  0.4614232E+02  0.7816164E-02  0.1320468E+00
        -11   -1    0    0    0    0  0.00000000000E+00  0.00000000000E+00  0.45593999997E+02  0.45594000000E+02  0.51100000000E-03 0.  1.
         11   -1    0    0    0    0 -0.00000000000E+00 -0.00000000000E+00 -0.45593999997E+02  0.45594000000E+02  0.51100000000E-03 0. -1.
    9900012    2    1    2    0    0 -0.74730314738E+01 -0.44003032301E+02  0.60827882117E+01  0.46142319147E+02  0.10000012637E+02 0.  0.
         12    1    1    2    0    0  0.74730314738E+01  0.44003032301E+02 -0.60827882117E+01  0.45045680853E+02  0.00000000000E+00 0. -1.
         11    1    3    3    0    0 -0.45126646780E+01 -0.13366491535E+02 -0.11557685038E+01  0.14154965191E+02  0.51100000000E-03 0. -1.
        -11    1    3    3    0    0 -0.41649879013E+01 -0.24831823394E+02  0.51361865979E+01  0.25697217560E+02  0.51100000000E-03 0.  1.
        -12    1    3    3    0    0  0.12046211055E+01 -0.58047173720E+01  0.21023701175E+01  0.62901363966E+01  0.00000000000E+00 0.  1.
</event>
<event>
 7    1  0.2328810E-008  0.4614232E+02  0.7816164E-02  0.1320468E+00
        -11   -1    0    0    0    0  0.00000000000E+00  0.00000000000E+00  0.45593999997E+02  0.45594000000E+02  0.51100000000E-03 0.  1.
         11   -1    0    0    0    0 -0.00000000000E+00 -0.00000000000E+00 -0.45593999997E+02  0.45594000000E+02  0.51100000000E-03 0. -1.
    9900012    2    1    2    0    0 -0.24058278750E+02  0.79081105528E+01  0.37252845492E+02  0.46142317785E+02  0.10000000220E+02 0.  0.
         12    1    1    2    0    0  0.24058278750E+02 -0.79081105528E+01 -0.37252845492E+02  0.45045682215E+02  0.00000000000E+00 0. -1.
         11    1    3    3    0    0 -0.19091602043E+02  0.20218601635E+01  0.25066582685E+02  0.31573893565E+02  0.51100000000E-03 0.  1.
        -11    1    3    3    0    0 -0.29608242036E+00  0.97844940843E+00  0.28888402773E+01  0.30643802724E+01  0.51100000000E-03 0. -1.
        -12    1    3    3    0    0 -0.46705942872E+01  0.49078009809E+01  0.92974225295E+01  0.11504043948E+02  0.00000000000E+00 0.  1.
</event>
<event>
 7    1  0.2328810E-008  0.4614232E+02  0.7816164E-02  0.1320468E+00
        -11   -1    0    0    0    0  0.00000000000E+00  0.00000000000E+00  0.45593999997E+02  0.45594000000E+02  0.51100000000E-03 0.  1.
         11   -1    0    0    0    0 -0.00000000000E+00 -0.00000000000E+00 -0.45593999997E+02  0.45594000000E+02  0.51100000000E-03 0. -1.
    9900012    2    1    2    0    0 -0.31698993196E+02  0.21807132916E+02  0.23425120733E+02  0.46142317665E+02  0.99999991218E+01 0.  0.
         12    1    1    2    0    0  0.31698993196E+02 -0.21807132916E+02 -0.23425120733E+02  0.45045682335E+02  0.00000000000E+00 0. -1.
         11    1    3    3    0    0 -0.19953989208E+02  0.16863958280E+02  0.16465917168E+02  0.30881729268E+02  0.51100000000E-03 0. -1.
        -11    1    3    3    0    0 -0.10388397000E+02  0.33640895995E+01  0.73223587596E+01  0.13147350651E+02  0.51100000000E-03 0.  1.
         12    1    3    3    0    0 -0.13566069884E+01  0.15790850372E+01 -0.36315519430E+00  0.21132377459E+01  0.00000000000E+00 0. -1.
</event>
<event>
 7    1  0.2328810E-008  0.4614232E+02  0.7816164E-02  0.1320468E+00
        -11   -1    0    0    0    0  0.00000000000E+00  0.00000000000E+00  0.45593999997E+02  0.45594000000E+02  0.51100000000E-03 0.  1.
         11   -1    0    0    0    0 -0.00000000000E+00 -0.00000000000E+00 -0.45593999997E+02  0.45594000000E+02  0.51100000000E-03 0. -1.
    9900012    2    1    2    0    0  0.11622853726E+02  0.31984485067E+02  0.29512970351E+02  0.46142318379E+02  0.10000005633E+02 0.  0.
         12    1    1    2    0    0 -0.11622853726E+02 -0.31984485067E+02 -0.29512970351E+02  0.45045681621E+02  0.00000000000E+00 0. -1.
         11    1    3    3    0    0  0.76354160417E+01  0.19044965173E+02  0.12604330241E+02  0.24080685572E+02  0.51100000000E-03 0. -1.
        -11    1    3    3    0    0  0.40937908174E+01  0.98003716436E+01  0.10553825905E+02  0.14972963939E+02  0.51100000000E-03 0.  1.
         12    1    3    3    0    0 -0.10635313320E+00  0.31391482512E+01  0.63548142056E+01  0.70886688680E+01  0.00000000000E+00 0. -1.
</event>
<event>
 7    1  0.2328810E-008  0.4614232E+02  0.7816164E-02  0.1320468E+00
        -11   -1    0    0    0    0  0.00000000000E+00  0.00000000000E+00  0.45593999997E+02  0.45594000000E+02  0.51100000000E-03 0.  1.
         11   -1    0    0    0    0 -0.00000000000E+00 -0.00000000000E+00 -0.45593999997E+02  0.45594000000E+02  0.51100000000E-03 0. -1.
    9900012    2    1    2    0    0 -0.41698085875E+01 -0.15537506202E+02  0.42075077008E+02  0.46142317545E+02  0.99999980257E+01 0.  0.
         12    1    1    2    0    0  0.41698085875E+01  0.15537506202E+02 -0.42075077008E+02  0.45045682455E+02  0.00000000000E+00 0. -1.
         11    1    3    3    0    0  0.14688965120E+01 -0.28708929687E+01  0.13902824217E+02  0.14271937670E+02  0.51100000000E-03 0.  1.
        -11    1    3    3    0    0 -0.12476847082E+01 -0.33145808448E+00  0.77645821444E+00  0.15064757591E+01  0.51100000000E-03 0. -1.
         12    1    3    3    0    0 -0.43910203914E+01 -0.12335155148E+02  0.27395794577E+02  0.30363904115E+02  0.00000000000E+00 0. -1.
</event>
<event>
 7    1  0.2328810E-008  0.4614232E+02  0.7816164E-02  0.1320468E+00
        -11   -1    0    0    0    0  0.00000000000E+00  0.00000000000E+00  0.45593999997E+02  0.45594000000E+02  0.51100000000E-03 0.  1.
         11   -1    0    0    0    0 -0.00000000000E+00 -0.00000000000E+00 -0.45593999997E+02  0.45594000000E+02  0.51100000000E-03 0. -1.
    9900012    2    1    2    0    0  0.45574289611E+01  0.57827636199E+01  0.44439878476E+02  0.46142319710E+02  0.10000017776E+02 0.  0.
         12    1    1    2    0    0 -0.45574289611E+01 -0.57827636199E+01 -0.44439878476E+02  0.45045680290E+02  0.00000000000E+00 0. -1.
         11    1    3    3    0    0  0.59824887926E+00  0.39514830294E+01  0.96346144569E+01  0.10430623943E+02  0.51100000000E-03 0. -1.
        -11    1    3    3    0    0  0.14766085362E+01  0.35274632839E+01  0.28152718523E+02  0.28411246550E+02  0.51100000000E-03 0.  1.
         12    1    3    3    0    0  0.24825715456E+01 -0.16961826934E+01  0.66525454954E+01  0.73004492175E+01  0.00000000000E+00 0. -1.
</event>
<event>
 7    1  0.2328810E-008  0.4614232E+02  0.7816164E-02  0.1320468E+00
        -11   -1    0    0    0    0  0.00000000000E+00  0.00000000000E+00  0.45593999997E+02  0.45594000000E+02  0.51100000000E-03 0.  1.
         11   -1    0    0    0    0 -0.00000000000E+00 -0.00000000000E+00 -0.45593999997E+02  0.45594000000E+02  0.51100000000E-03 0. -1.
    9900012    2    1    2    0    0 -0.21998930267E+02 -0.32139324464E+02  0.22632376546E+02  0.46142316766E+02  0.99999909279E+01 0.  0.
         12    1    1    2    0    0  0.21998930267E+02  0.32139324464E+02 -0.22632376546E+02  0.45045683234E+02  0.00000000000E+00 0. -1.
         11    1    3    3    0    0 -0.96325610960E+00 -0.52581985712E+01  0.31190372508E+01  0.61890959097E+01  0.51100000000E-03 0. -1.
        -11    1    3    3    0    0 -0.10790746158E+02 -0.14171849900E+02  0.61095014250E+01  0.18831025998E+02  0.51100000000E-03 0.  1.
        -12    1    3    3    0    0 -0.10244927999E+02 -0.12709275993E+02  0.13403837870E+02  0.21122194858E+02  0.00000000000E+00 0.  1.
</event>
<event>
 7    1  0.2328810E-008  0.4614232E+02  0.7816164E-02  0.1320468E+00
        -11   -1    0    0    0    0  0.00000000000E+00  0.00000000000E+00  0.45593999997E+02  0.45594000000E+02  0.51100000000E-03 0.  1.
         11   -1    0    0    0    0 -0.00000000000E+00 -0.00000000000E+00 -0.45593999997E+02  0.45594000000E+02  0.51100000000E-03 0. -1.
    9900012    2    1    2    0    0 -0.18979484964E+02  0.38574125609E+02  0.13451003288E+02  0.46142317571E+02  0.99999982694E+01 0.  0.
         12    1    1    2    0    0  0.18979484964E+02 -0.38574125609E+02 -0.13451003288E+02  0.45045682429E+02  0.00000000000E+00 0. -1.
         11    1    3    3    0    0 -0.38890611772E+01  0.10918196464E+02  0.13531950766E+01  0.11668888038E+02  0.51100000000E-03 0. -1.
        -11    1    3    3    0    0 -0.35997159609E+01  0.22912367657E+01  0.28524613050E+01  0.51326656499E+01  0.51100000000E-03 0.  1.
         12    1    3    3    0    0 -0.11490707826E+02  0.25364692379E+02  0.92453469066E+01  0.29340763883E+02  0.00000000000E+00 0. -1.
</event>
<event>
 7    1  0.2328810E-008  0.4614232E+02  0.7816164E-02  0.1320468E+00
        -11   -1    0    0    0    0  0.00000000000E+00  0.00000000000E+00  0.45593999997E+02  0.45594000000E+02  0.51100000000E-03 0. -1.
         11   -1    0    0    0    0 -0.00000000000E+00 -0.00000000000E+00 -0.45593999997E+02  0.45594000000E+02  0.51100000000E-03 0.  1.
    9900012    2    1    2    0    0 -0.34822618493E+02  0.13545980607E+02  0.25159593816E+02  0.46142317518E+02  0.99999977813E+01 0.  0.
         12    1    1    2    0    0  0.34822618493E+02 -0.13545980607E+02 -0.25159593816E+02  0.45045682482E+02  0.00000000000E+00 0. -1.
         11    1    3    3    0    0 -0.99236682831E+01  0.59431169602E+01  0.68540528172E+01  0.13445366179E+02  0.51100000000E-03 0. -1.
        -11    1    3    3    0    0 -0.12606874142E+02  0.68616275224E+01  0.69553627992E+01  0.15949679615E+02  0.51100000000E-03 0.  1.
         12    1    3    3    0    0 -0.12292076068E+02  0.74123612475E+00  0.11350178200E+02  0.16747271724E+02  0.00000000000E+00 0. -1.
</event>
<event>
 7    1  0.2328810E-008  0.4614232E+02  0.7816164E-02  0.1320468E+00
        -11   -1    0    0    0    0  0.00000000000E+00  0.00000000000E+00  0.45593999997E+02  0.45594000000E+02  0.51100000000E-03 0. -1.
         11   -1    0    0    0    0 -0.00000000000E+00 -0.00000000000E+00 -0.45593999997E+02  0.45594000000E+02  0.51100000000E-03 0.  1.
    9900012    2    1    2    0    0  0.16568135815E+02 -0.40524699295E+02 -0.10599953830E+02  0.46142318758E+02  0.10000009090E+02 0.  0.
         12    1    1    2    0    0 -0.16568135815E+02  0.40524699295E+02  0.10599953830E+02  0.45045681242E+02  0.00000000000E+00 0. -1.
         11    1    3    3    0    0 -0.55785859823E+00 -0.11155669456E+00 -0.87597247200E+00  0.10444994708E+01  0.51100000000E-03 0. -1.
        -11    1    3    3    0    0  0.16364905954E+01 -0.27077277705E+01  0.10858017778E+00  0.31657038813E+01  0.51100000000E-03 0.  1.
        -12    1    3    3    0    0  0.15489503818E+02 -0.37705414830E+02 -0.98325615362E+01  0.41932115406E+02  0.00000000000E+00 0.  1.
</event>
<event>
 7    1  0.2328810E-008  0.4614232E+02  0.7816164E-02  0.1320468E+00
        -11   -1    0    0    0    0  0.00000000000E+00  0.00000000000E+00  0.45593999997E+02  0.45594000000E+02  0.51100000000E-03 0. -1.
         11   -1    0    0    0    0 -0.00000000000E+00 -0.00000000000E+00 -0.45593999997E+02  0.45594000000E+02  0.51100000000E-03 0.  1.
    9900012    2    1    2    0    0  0.96429800521E+00 -0.22059889087E+02 -0.39262512978E+02  0.46142317604E+02  0.99999985653E+01 0.  0.
         12    1    1    2    0    0 -0.96429800521E+00  0.22059889087E+02  0.39262512978E+02  0.45045682396E+02  0.00000000000E+00 0. -1.
         11    1    3    3    0    0  0.22472490547E+01 -0.96776976826E+01 -0.19959445460E+02  0.22295457476E+02  0.51100000000E-03 0. -1.
        -11    1    3    3    0    0  0.12803421530E+00 -0.27598666203E+01 -0.10050654890E+02  0.10423479290E+02  0.51100000000E-03 0.  1.
         12    1    3    3    0    0 -0.14109852648E+01 -0.96223247842E+01 -0.92524126278E+01  0.13423380837E+02  0.00000000000E+00 0. -1.
</event>
<event>
 7    1  0.2328810E-008  0.4614232E+02  0.7816164E-02  0.1320468E+00
        -11   -1    0    0    0    0  0.00000000000E+00  0.00000000000E+00  0.45593999997E+02  0.45594000000E+02  0.51100000000E-03 0. -1.
         11   -1    0    0    0    0 -0.00000000000E+00 -0.00000000000E+00 -0.45593999997E+02  0.45594000000E+02  0.51100000000E-03 0.  1.
    9900012    2    1    2    0    0 -0.23439937102E+02 -0.16942920215E+02 -0.34534334130E+02  0.46142318403E+02  0.10000005853E+02 0.  0.
         12    1    1    2    0    0  0.23439937102E+02  0.16942920215E+02  0.34534334130E+02  0.45045681597E+02  0.00000000000E+00 0. -1.
         11    1    3    3    0    0 -0.56653184358E+01 -0.80473487928E+01 -0.14374544140E+02  0.17420768498E+02  0.51100000000E-03 0. -1.
        -11    1    3    3    0    0 -0.58579818208E+01 -0.48157518241E+01 -0.53543501352E+01  0.92831289055E+01  0.51100000000E-03 0.  1.
        -12    1    3    3    0    0 -0.11916636845E+02 -0.40798195980E+01 -0.14805439854E+02  0.19438420999E+02  0.00000000000E+00 0.  1.
</event>
<event>
 7    1  0.2328810E-008  0.4614232E+02  0.7816164E-02  0.1320468E+00
        -11   -1    0    0    0    0  0.00000000000E+00  0.00000000000E+00  0.45593999997E+02  0.45594000000E+02  0.51100000000E-03 0.  1.
         11   -1    0    0    0    0 -0.00000000000E+00 -0.00000000000E+00 -0.45593999997E+02  0.45594000000E+02  0.51100000000E-03 0. -1.
    9900012    2    1    2    0    0  0.42851405958E+02 -0.88207109383E+00  0.13859742528E+02  0.46142317577E+02  0.99999983203E+01 0.  0.
         12    1    1    2    0    0 -0.42851405958E+02  0.88207109383E+00 -0.13859742528E+02  0.45045682423E+02  0.00000000000E+00 0. -1.
         11    1    3    3    0    0  0.13942706802E+02  0.28460487020E+00  0.69699883864E+01  0.15590407669E+02  0.51100000000E-03 0. -1.
        -11    1    3    3    0    0  0.12539182087E+02 -0.13754404636E+01  0.64672243589E+01  0.14175609865E+02  0.51100000000E-03 0.  1.
         12    1    3    3    0    0  0.16369517069E+02  0.20876449960E+00  0.42252978303E+00  0.16376300043E+02  0.00000000000E+00 0. -1.
</event>
<event>
 7    1  0.2328810E-008  0.4614232E+02  0.7816164E-02  0.1320468E+00
        -11   -1    0    0    0    0  0.00000000000E+00  0.00000000000E+00  0.45593999997E+02  0.45594000000E+02  0.51100000000E-03 0. -1.
         11   -1    0    0    0    0 -0.00000000000E+00 -0.00000000000E+00 -0.45593999997E+02  0.45594000000E+02  0.51100000000E-03 0.  1.
    9900012    2    1    2    0    0  0.53490540880E+01  0.39258060738E+02  0.21431421183E+02  0.46142317338E+02  0.99999961462E+01 0.  0.
         12    1    1    2    0    0 -0.53490540880E+01 -0.39258060738E+02 -0.21431421183E+02  0.45045682662E+02  0.00000000000E+00 0. -1.
         11    1    3    3    0    0  0.49619146899E+00  0.16867721556E+02  0.94230645071E+01  0.19327710196E+02  0.51100000000E-03 0.  1.
        -11    1    3    3    0    0  0.55150450717E+01  0.20596360795E+02  0.12656555933E+02  0.24795447334E+02  0.51100000000E-03 0. -1.
         12    1    3    3    0    0 -0.66218245268E+00  0.17939783867E+01 -0.64819925779E+00  0.20191598081E+01  0.00000000000E+00 0. -1.
</event>
<event>
 7    1  0.2328810E-008  0.4614232E+02  0.7816164E-02  0.1320468E+00
        -11   -1    0    0    0    0  0.00000000000E+00  0.00000000000E+00  0.45593999997E+02  0.45594000000E+02  0.51100000000E-03 0. -1.
         11   -1    0    0    0    0 -0.00000000000E+00 -0.00000000000E+00 -0.45593999997E+02  0.45594000000E+02  0.51100000000E-03 0.  1.
    9900012    2    1    2    0    0 -0.39542756753E+02 -0.11592693799E+02 -0.18195975669E+02  0.46142315504E+02  0.99999794160E+01 0.  0.
         12    1    1    2    0    0  0.39542756753E+02  0.11592693799E+02  0.18195975669E+02  0.45045684496E+02  0.00000000000E+00 0. -1.
         11    1    3    3    0    0 -0.16533577445E+01 -0.81386074000E+00 -0.17567607591E+01  0.25460105580E+01  0.51100000000E-03 0. -1.
        -11    1    3    3    0    0 -0.19395378975E+02 -0.38146732067E+01 -0.12668056796E+02  0.23477907072E+02  0.51100000000E-03 0.  1.
        -12    1    3    3    0    0 -0.18494020034E+02 -0.69641598526E+01 -0.37711581139E+01  0.20118397874E+02  0.00000000000E+00 0.  1.
</event>
<event>
 7    1  0.2328810E-008  0.4614232E+02  0.7816164E-02  0.1320468E+00
        -11   -1    0    0    0    0  0.00000000000E+00  0.00000000000E+00  0.45593999997E+02  0.45594000000E+02  0.51100000000E-03 0.  1.
         11   -1    0    0    0    0 -0.00000000000E+00 -0.00000000000E+00 -0.45593999997E+02  0.45594000000E+02  0.51100000000E-03 0. -1.
    9900012    2    1    2    0    0  0.19399041858E+02 -0.11725467062E+02  0.38926906270E+02  0.46142318358E+02  0.10000005443E+02 0.  0.
         12    1    1    2    0    0 -0.19399041858E+02  0.11725467062E+02 -0.38926906270E+02  0.45045681642E+02  0.00000000000E+00 0. -1.
         11    1    3    3    0    0 -0.44041510871E+00 -0.12750054966E+01  0.54790389975E+01  0.56426477013E+01  0.51100000000E-03 0. -1.
        -11    1    3    3    0    0  0.12710846322E+02 -0.48927123928E+01  0.22514355823E+02  0.26313503514E+02  0.51100000000E-03 0.  1.
         12    1    3    3    0    0  0.71286106449E+01 -0.55577491725E+01  0.10933511450E+02  0.14186167143E+02  0.00000000000E+00 0. -1.
</event>
<event>
 7    1  0.2328810E-008  0.4614232E+02  0.7816164E-02  0.1320468E+00
        -11   -1    0    0    0    0  0.00000000000E+00  0.00000000000E+00  0.45593999997E+02  0.45594000000E+02  0.51100000000E-03 0.  1.
         11   -1    0    0    0    0 -0.00000000000E+00 -0.00000000000E+00 -0.45593999997E+02  0.45594000000E+02  0.51100000000E-03 0. -1.
    9900012    2    1    2    0    0  0.15659698803E+01 -0.77257799795E+01  0.44350575229E+02  0.46142318064E+02  0.10000002760E+02 0.  0.
         12    1    1    2    0    0 -0.15659698803E+01  0.77257799795E+01 -0.44350575229E+02  0.45045681936E+02  0.00000000000E+00 0. -1.
         11    1    3    3    0    0 -0.11836496246E+01 -0.90180189639E+00  0.16191951694E+01  0.21991058074E+01  0.51100000000E-03 0. -1.
        -11    1    3    3    0    0  0.31782247334E+01 -0.59906175415E-01  0.91993062504E+01  0.97330332865E+01  0.51100000000E-03 0.  1.
        -12    1    3    3    0    0 -0.42860522845E+00 -0.67640719077E+01  0.33532073809E+02  0.34210178970E+02  0.00000000000E+00 0.  1.
</event>
<event>
 7    1  0.2328810E-008  0.4614231E+02  0.7816164E-02  0.1320468E+00
        -11   -1    0    0    0    0  0.00000000000E+00  0.00000000000E+00  0.45593999997E+02  0.45594000000E+02  0.51100000000E-03 0.  1.
         11   -1    0    0    0    0 -0.00000000000E+00 -0.00000000000E+00 -0.45593999997E+02  0.45594000000E+02  0.51100000000E-03 0. -1.
    9900012    2    1    2    0    0  0.23957591363E+02  0.61068827087E+01  0.37654397652E+02  0.46142313605E+02  0.99999620979E+01 0.  0.
         12    1    1    2    0    0 -0.23957591363E+02 -0.61068827087E+01 -0.37654397652E+02  0.45045686395E+02  0.00000000000E+00 0. -1.
         11    1    3    3    0    0  0.11453790282E+02  0.14754818209E+01  0.14853801473E+02  0.18814934942E+02  0.51100000000E-03 0. -1.
        -11    1    3    3    0    0  0.96470392422E+01  0.65144526770E+01  0.17449207863E+02  0.20975660064E+02  0.51100000000E-03 0.  1.
         12    1    3    3    0    0  0.28567618384E+01 -0.18830517892E+01  0.53513883162E+01  0.63517185984E+01  0.00000000000E+00 0. -1.
</event>
<event>
 7    1  0.2328810E-008  0.4614232E+02  0.7816164E-02  0.1320468E+00
        -11   -1    0    0    0    0  0.00000000000E+00  0.00000000000E+00  0.45593999997E+02  0.45594000000E+02  0.51100000000E-03 0.  1.
         11   -1    0    0    0    0 -0.00000000000E+00 -0.00000000000E+00 -0.45593999997E+02  0.45594000000E+02  0.51100000000E-03 0. -1.
    9900012    2    1    2    0    0  0.43257549691E+02 -0.11326708731E+02  0.54409192388E+01  0.46142317209E+02  0.99999949693E+01 0.  0.
         12    1    1    2    0    0 -0.43257549691E+02  0.11326708731E+02 -0.54409192388E+01  0.45045682791E+02  0.00000000000E+00 0. -1.
         11    1    3    3    0    0  0.18257560749E+02 -0.19021600261E+01 -0.31630147905E+00  0.18359106301E+02  0.51100000000E-03 0. -1.
        -11    1    3    3    0    0  0.12219039238E+02 -0.23662885418E+01  0.40234505950E+01  0.13080229215E+02  0.51100000000E-03 0.  1.
         12    1    3    3    0    0  0.12780949703E+02 -0.70582601630E+01  0.17337701228E+01  0.14702981694E+02  0.00000000000E+00 0. -1.
</event>
<event>
 7    1  0.2328810E-008  0.4614232E+02  0.7816164E-02  0.1320468E+00
        -11   -1    0    0    0    0  0.00000000000E+00  0.00000000000E+00  0.45593999997E+02  0.45594000000E+02  0.51100000000E-03 0.  1.
         11   -1    0    0    0    0 -0.00000000000E+00 -0.00000000000E+00 -0.45593999997E+02  0.45594000000E+02  0.51100000000E-03 0. -1.
    9900012    2    1    2    0    0 -0.31238694499E+02  0.12347455809E+02  0.30013293811E+02  0.46142317584E+02  0.99999983829E+01 0.  0.
         12    1    1    2    0    0  0.31238694499E+02 -0.12347455809E+02 -0.30013293811E+02  0.45045682416E+02  0.00000000000E+00 0. -1.
         11    1    3    3    0    0 -0.59217932553E+01  0.14330347192E+00  0.32633885576E+01  0.67629783662E+01  0.51100000000E-03 0. -1.
        -11    1    3    3    0    0 -0.93878435925E+01  0.11624596872E+01  0.99636913438E+01  0.13738925187E+02  0.51100000000E-03 0.  1.
         12    1    3    3    0    0 -0.15929057651E+02  0.11041692650E+02  0.16786213910E+02  0.25640414030E+02  0.00000000000E+00 0. -1.
</event>
<event>
 7    1  0.2328810E-008  0.4614232E+02  0.7816164E-02  0.1320468E+00
        -11   -1    0    0    0    0  0.00000000000E+00  0.00000000000E+00  0.45593999997E+02  0.45594000000E+02  0.51100000000E-03 0. -1.
         11   -1    0    0    0    0 -0.00000000000E+00 -0.00000000000E+00 -0.45593999997E+02  0.45594000000E+02  0.51100000000E-03 0.  1.
    9900012    2    1    2    0    0 -0.39242915216E+02 -0.22052841224E+02  0.16671285055E+01  0.46142317431E+02  0.99999969890E+01 0.  0.
         12    1    1    2    0    0  0.39242915216E+02  0.22052841224E+02 -0.16671285055E+01  0.45045682569E+02  0.00000000000E+00 0. -1.
         11    1    3    3    0    0 -0.14765672887E+02 -0.71799289873E+01  0.35484135119E+01  0.16797848517E+02  0.51100000000E-03 0. -1.
        -11    1    3    3    0    0 -0.19800140747E+02 -0.14537196929E+02 -0.10805836043E+01  0.24587462849E+02  0.51100000000E-03 0.  1.
        -12    1    3    3    0    0 -0.46771015814E+01 -0.33571530708E+00 -0.80070140200E+00  0.47570060653E+01  0.00000000000E+00 0.  1.
</event>
<event>
 7    1  0.2328810E-008  0.4614232E+02  0.7816164E-02  0.1320468E+00
        -11   -1    0    0    0    0  0.00000000000E+00  0.00000000000E+00  0.45593999997E+02  0.45594000000E+02  0.51100000000E-03 0.  1.
         11   -1    0    0    0    0 -0.00000000000E+00 -0.00000000000E+00 -0.45593999997E+02  0.45594000000E+02  0.51100000000E-03 0. -1.
    9900012    2    1    2    0    0  0.26595548023E+02 -0.33538716986E+02  0.14033700961E+02  0.46142317917E+02  0.10000001417E+02 0.  0.
         12    1    1    2    0    0 -0.26595548023E+02  0.33538716986E+02 -0.14033700961E+02  0.45045682083E+02  0.00000000000E+00 0. -1.
         11    1    3    3    0    0  0.50467352184E+01 -0.91330496266E+01  0.73676900462E+01  0.12773605158E+02  0.51100000000E-03 0.  1.
        -11    1    3    3    0    0  0.11532157363E+01 -0.98852153806E+00 -0.28743857153E+00  0.15458662811E+01  0.51100000000E-03 0. -1.
        -12    1    3    3    0    0  0.20395597068E+02 -0.23417145821E+02  0.69534494866E+01  0.31822846478E+02  0.00000000000E+00 0.  1.
</event>
<event>
 7    1  0.2328810E-008  0.4614232E+02  0.7816164E-02  0.1320468E+00
        -11   -1    0    0    0    0  0.00000000000E+00  0.00000000000E+00  0.45593999997E+02  0.45594000000E+02  0.51100000000E-03 0. -1.
         11   -1    0    0    0    0 -0.00000000000E+00 -0.00000000000E+00 -0.45593999997E+02  0.45594000000E+02  0.51100000000E-03 0.  1.
    9900012    2    1    2    0    0 -0.82212775200E+01 -0.37158286770E+02 -0.24099499846E+02  0.46142316827E+02  0.99999914794E+01 0.  0.
         12    1    1    2    0    0  0.82212775200E+01  0.37158286770E+02  0.24099499846E+02  0.45045683173E+02  0.00000000000E+00 0. -1.
         11    1    3    3    0    0  0.14791703153E+01 -0.33491802574E+01 -0.33349711402E+01  0.49524727142E+01  0.51100000000E-03 0. -1.
        -11    1    3    3    0    0 -0.24021081404E+01 -0.72117111695E+01 -0.71353496195E+01  0.10425551111E+02  0.51100000000E-03 0.  1.
         12    1    3    3    0    0 -0.72983396949E+01 -0.26597395343E+02 -0.13629179086E+02  0.30764293002E+02  0.00000000000E+00 0. -1.
</event>
<event>
 7    1  0.2328810E-008  0.4614231E+02  0.7816164E-02  0.1320468E+00
        -11   -1    0    0    0    0  0.00000000000E+00  0.00000000000E+00  0.45593999997E+02  0.45594000000E+02  0.51100000000E-03 0.  1.
         11   -1    0    0    0    0 -0.00000000000E+00 -0.00000000000E+00 -0.45593999997E+02  0.45594000000E+02  0.51100000000E-03 0. -1.
    9900012    2    1    2    0    0 -0.41325522625E+02  0.15900608059E+02 -0.82756148351E+01  0.46142312551E+02  0.99999524886E+01 0.  0.
         12    1    1    2    0    0  0.41325522625E+02 -0.15900608059E+02  0.82756148351E+01  0.45045687449E+02  0.00000000000E+00 0. -1.
         11    1    3    3    0    0 -0.95199014948E+01  0.43912559435E+01  0.89412918576E+00  0.10521935207E+02  0.51100000000E-03 0. -1.
        -11    1    3    3    0    0 -0.29049672036E+02  0.89634572343E+01 -0.67062559612E+01  0.31131991267E+02  0.51100000000E-03 0.  1.
        -12    1    3    3    0    0 -0.27559490944E+01  0.25458948811E+01 -0.24634880597E+01  0.44883860770E+01  0.00000000000E+00 0.  1.
</event>
<event>
 7    1  0.2328810E-008  0.4614232E+02  0.7816164E-02  0.1320468E+00
        -11   -1    0    0    0    0  0.00000000000E+00  0.00000000000E+00  0.45593999997E+02  0.45594000000E+02  0.51100000000E-03 0.  1.
         11   -1    0    0    0    0 -0.00000000000E+00 -0.00000000000E+00 -0.45593999997E+02  0.45594000000E+02  0.51100000000E-03 0. -1.
    9900012    2    1    2    0    0 -0.12114426279E+02 -0.42845058090E+02 -0.68304548842E+01  0.46142318290E+02  0.10000004822E+02 0.  0.
         12    1    1    2    0    0  0.12114426279E+02  0.42845058090E+02  0.68304548842E+01  0.45045681710E+02  0.00000000000E+00 0. -1.
         11    1    3    3    0    0  0.10759855871E+00 -0.10235668394E+02  0.11783512227E+01  0.10303834082E+02  0.51100000000E-03 0. -1.
        -11    1    3    3    0    0 -0.26998142063E+01 -0.86935825228E+01 -0.98892612728E+00  0.91567105980E+01  0.51100000000E-03 0.  1.
         12    1    3    3    0    0 -0.95222106312E+01 -0.23915807173E+02 -0.70198799796E+01  0.26681773610E+02  0.00000000000E+00 0. -1.
</event>
<event>
 7    1  0.2328810E-008  0.4614232E+02  0.7816164E-02  0.1320468E+00
        -11   -1    0    0    0    0  0.00000000000E+00  0.00000000000E+00  0.45593999997E+02  0.45594000000E+02  0.51100000000E-03 0. -1.
         11   -1    0    0    0    0 -0.00000000000E+00 -0.00000000000E+00 -0.45593999997E+02  0.45594000000E+02  0.51100000000E-03 0.  1.
    9900012    2    1    2    0    0 -0.17551799063E+02  0.37797249106E+02 -0.17100168639E+02  0.46142318100E+02  0.10000003092E+02 0.  0.
         12    1    1    2    0    0  0.17551799063E+02 -0.37797249106E+02  0.17100168639E+02  0.45045681900E+02  0.00000000000E+00 0. -1.
         11    1    3    3    0    0  0.51501542118E+00  0.20043260944E+01 -0.24001994062E+01  0.31691515311E+01  0.51100000000E-03 0. -1.
        -11    1    3    3    0    0 -0.83612390232E+01  0.13147524877E+02 -0.75825391138E+01  0.17328087837E+02  0.51100000000E-03 0.  1.
         12    1    3    3    0    0 -0.97055754607E+01  0.22645398134E+02 -0.71174301188E+01  0.25645078732E+02  0.00000000000E+00 0. -1.
</event>
<event>
 7    1  0.2328810E-008  0.4614232E+02  0.7816164E-02  0.1320468E+00
        -11   -1    0    0    0    0  0.00000000000E+00  0.00000000000E+00  0.45593999997E+02  0.45594000000E+02  0.51100000000E-03 0. -1.
         11   -1    0    0    0    0 -0.00000000000E+00 -0.00000000000E+00 -0.45593999997E+02  0.45594000000E+02  0.51100000000E-03 0.  1.
    9900012    2    1    2    0    0  0.16819286621E+02  0.19858497763E+02 -0.36767720243E+02  0.46142316659E+02  0.99999899480E+01 0.  0.
         12    1    1    2    0    0 -0.16819286621E+02 -0.19858497763E+02  0.36767720243E+02  0.45045683341E+02  0.00000000000E+00 0. -1.
         11    1    3    3    0    0  0.54620636457E+00  0.20050450341E+01 -0.92452711883E+01  0.94759477936E+01  0.51100000000E-03 0. -1.
        -11    1    3    3    0    0  0.67383839985E+01  0.85758293161E+01 -0.13079433754E+02  0.17030039782E+02  0.51100000000E-03 0.  1.
         12    1    3    3    0    0  0.95346962575E+01  0.92776234131E+01 -0.14443015300E+02  0.19636329083E+02  0.00000000000E+00 0. -1.
</event>
<event>
 7    1  0.2328810E-008  0.4614232E+02  0.7816164E-02  0.1320468E+00
        -11   -1    0    0    0    0  0.00000000000E+00  0.00000000000E+00  0.45593999997E+02  0.45594000000E+02  0.51100000000E-03 0. -1.
         11   -1    0    0    0    0 -0.00000000000E+00 -0.00000000000E+00 -0.45593999997E+02  0.45594000000E+02  0.51100000000E-03 0.  1.
    9900012    2    1    2    0    0 -0.18588345570E+02 -0.40593637101E+01 -0.40830239310E+02  0.46142318000E+02  0.10000002180E+02 0.  0.
         12    1    1    2    0    0  0.18588345570E+02  0.40593637101E+01  0.40830239310E+02  0.45045682000E+02  0.00000000000E+00 0. -1.
         11    1    3    3    0    0 -0.88103597618E+00  0.23174259828E+01 -0.57833128940E+01  0.62923283345E+01  0.51100000000E-03 0. -1.
        -11    1    3    3    0    0 -0.96692089916E+01 -0.43058478355E+01 -0.21455986820E+02  0.23924742397E+02  0.51100000000E-03 0.  1.
        -12    1    3    3    0    0 -0.80381006021E+01 -0.20709418574E+01 -0.13590939596E+02  0.15925247268E+02  0.00000000000E+00 0.  1.
</event>
<event>
 7    1  0.2328810E-008  0.4614231E+02  0.7816164E-02  0.1320468E+00
        -11   -1    0    0    0    0  0.00000000000E+00  0.00000000000E+00  0.45593999997E+02  0.45594000000E+02  0.51100000000E-03 0. -1.
         11   -1    0    0    0    0 -0.00000000000E+00 -0.00000000000E+00 -0.45593999997E+02  0.45594000000E+02  0.51100000000E-03 0.  1.
    9900012    2    1    2    0    0 -0.28853029754E+02  0.48325017082E+01 -0.34252933475E+02  0.46142313743E+02  0.99999633552E+01 0.  0.
         12    1    1    2    0    0  0.28853029754E+02 -0.48325017082E+01  0.34252933475E+02  0.45045686257E+02  0.00000000000E+00 0. -1.
         11    1    3    3    0    0 -0.96866037038E+01  0.41994404053E+01 -0.11937157567E+02  0.15936163970E+02  0.51100000000E-03 0. -1.
        -11    1    3    3    0    0 -0.15546179621E+02 -0.19028037628E+01 -0.15173868501E+02  0.21807123802E+02  0.51100000000E-03 0.  1.
        -12    1    3    3    0    0 -0.36202464286E+01  0.25358650657E+01 -0.71419074076E+01  0.83990259706E+01  0.00000000000E+00 0.  1.
</event>
<event>
 7    1  0.2328810E-008  0.4614232E+02  0.7816164E-02  0.1320468E+00
        -11   -1    0    0    0    0  0.00000000000E+00  0.00000000000E+00  0.45593999997E+02  0.45594000000E+02  0.51100000000E-03 0.  1.
         11   -1    0    0    0    0 -0.00000000000E+00 -0.00000000000E+00 -0.45593999997E+02  0.45594000000E+02  0.51100000000E-03 0. -1.
    9900012    2    1    2    0    0  0.33091281445E+02  0.20652448649E+02  0.22529022042E+02  0.46142318997E+02  0.10000011268E+02 0.  0.
         12    1    1    2    0    0 -0.33091281445E+02 -0.20652448649E+02 -0.22529022042E+02  0.45045681003E+02  0.00000000000E+00 0. -1.
         11    1    3    3    0    0  0.20233452430E+02  0.84602911359E+01  0.93839701460E+01  0.23854308192E+02  0.51100000000E-03 0. -1.
        -11    1    3    3    0    0  0.84631199227E+00  0.66898819429E+00  0.19495374713E+01  0.22281126106E+01  0.51100000000E-03 0.  1.
         12    1    3    3    0    0  0.12011517022E+02  0.11523169318E+02  0.11195514425E+02  0.20059898194E+02  0.00000000000E+00 0. -1.
</event>
<event>
 7    1  0.2328810E-008  0.4614232E+02  0.7816164E-02  0.1320468E+00
        -11   -1    0    0    0    0  0.00000000000E+00  0.00000000000E+00  0.45593999997E+02  0.45594000000E+02  0.51100000000E-03 0.  1.
         11   -1    0    0    0    0 -0.00000000000E+00 -0.00000000000E+00 -0.45593999997E+02  0.45594000000E+02  0.51100000000E-03 0. -1.
    9900012    2    1    2    0    0 -0.16553836479E+02 -0.15910063029E+02  0.38755050323E+02  0.46142317262E+02  0.99999954529E+01 0.  0.
         12    1    1    2    0    0  0.16553836479E+02  0.15910063029E+02 -0.38755050323E+02  0.45045682738E+02  0.00000000000E+00 0. -1.
         11    1    3    3    0    0 -0.17736323334E+01  0.68202339087E+00  0.33258976906E+01  0.38304729824E+01  0.51100000000E-03 0. -1.
        -11    1    3    3    0    0 -0.88104891002E+01 -0.10736260695E+02  0.27400091180E+02  0.30719000778E+02  0.51100000000E-03 0.  1.
         12    1    3    3    0    0 -0.59697150459E+01 -0.58558257254E+01  0.80290614525E+01  0.11592843502E+02  0.00000000000E+00 0. -1.
</event>
<event>
 7    1  0.2328810E-008  0.4614232E+02  0.7816164E-02  0.1320468E+00
        -11   -1    0    0    0    0  0.00000000000E+00  0.00000000000E+00  0.45593999997E+02  0.45594000000E+02  0.51100000000E-03 0. -1.
         11   -1    0    0    0    0 -0.00000000000E+00 -0.00000000000E+00 -0.45593999997E+02  0.45594000000E+02  0.51100000000E-03 0.  1.
    9900012    2    1    2    0    0  0.41520975095E+02 -0.17437470994E+02  0.10279227402E+01  0.46142318824E+02  0.10000009690E+02 0.  0.
         12    1    1    2    0    0 -0.41520975095E+02  0.17437470994E+02 -0.10279227402E+01  0.45045681176E+02  0.00000000000E+00 0. -1.
         11    1    3    3    0    0  0.18737869622E+02 -0.10786759576E+02  0.46509926280E+00  0.21625870103E+02  0.51100000000E-03 0.  1.
        -11    1    3    3    0    0  0.13398481414E+02 -0.39833895479E+01  0.33419359521E+01  0.14372029525E+02  0.51100000000E-03 0. -1.
         12    1    3    3    0    0  0.93846240582E+01 -0.26673218704E+01 -0.27791124747E+01  0.10144419196E+02  0.00000000000E+00 0. -1.
</event>
<event>
 7    1  0.2328810E-008  0.4614232E+02  0.7816164E-02  0.1320468E+00
        -11   -1    0    0    0    0  0.00000000000E+00  0.00000000000E+00  0.45593999997E+02  0.45594000000E+02  0.51100000000E-03 0.  1.
         11   -1    0    0    0    0 -0.00000000000E+00 -0.00000000000E+00 -0.45593999997E+02  0.45594000000E+02  0.51100000000E-03 0. -1.
    9900012    2    1    2    0    0  0.41548519769E+02 -0.59923003728E+01  0.16337876981E+02  0.46142318931E+02  0.10000010666E+02 0.  0.
         12    1    1    2    0    0 -0.41548519769E+02  0.59923003728E+01 -0.16337876981E+02  0.45045681069E+02  0.00000000000E+00 0. -1.
         11    1    3    3    0    0  0.45613178986E+01 -0.19224531880E+01  0.32900475029E+01  0.59435561800E+01  0.51100000000E-03 0. -1.
        -11    1    3    3    0    0  0.23562383721E+02 -0.59946135363E+01  0.10056270189E+02  0.26310642113E+02  0.51100000000E-03 0.  1.
         12    1    3    3    0    0  0.13424818150E+02  0.19247663515E+01  0.29915592893E+01  0.13888120637E+02  0.00000000000E+00 0. -1.
</event>
<event>
 7    1  0.2328810E-008  0.4614232E+02  0.7816164E-02  0.1320468E+00
        -11   -1    0    0    0    0  0.00000000000E+00  0.00000000000E+00  0.45593999997E+02  0.45594000000E+02  0.51100000000E-03 0.  1.
         11   -1    0    0    0    0 -0.00000000000E+00 -0.00000000000E+00 -0.45593999997E+02  0.45594000000E+02  0.51100000000E-03 0. -1.
    9900012    2    1    2    0    0 -0.25963230111E+02  0.97978812323E+01  0.35482749004E+02  0.46142320170E+02  0.10000021968E+02 0.  0.
         12    1    1    2    0    0  0.25963230111E+02 -0.97978812323E+01 -0.35482749004E+02  0.45045679830E+02  0.00000000000E+00 0. -1.
         11    1    3    3    0    0 -0.19175761678E+01  0.16924485912E+00  0.60606142769E+00  0.20181805908E+01  0.51100000000E-03 0. -1.
        -11    1    3    3    0    0 -0.11044453463E+02  0.83961585645E+01  0.19816397554E+02  0.24190184853E+02  0.51100000000E-03 0.  1.
        -12    1    3    3    0    0 -0.13001200480E+02  0.12324778087E+01  0.15060290022E+02  0.19933954727E+02  0.00000000000E+00 0.  1.
</event>
<event>
 7    1  0.2328810E-008  0.4614232E+02  0.7816164E-02  0.1320468E+00
        -11   -1    0    0    0    0  0.00000000000E+00  0.00000000000E+00  0.45593999997E+02  0.45594000000E+02  0.51100000000E-03 0.  1.
         11   -1    0    0    0    0 -0.00000000000E+00 -0.00000000000E+00 -0.45593999997E+02  0.45594000000E+02  0.51100000000E-03 0. -1.
    9900012    2    1    2    0    0 -0.18421685654E+02  0.37127164801E+02  0.17644504954E+02  0.46142318480E+02  0.10000006558E+02 0.  0.
         12    1    1    2    0    0  0.18421685654E+02 -0.37127164801E+02 -0.17644504954E+02  0.45045681520E+02  0.00000000000E+00 0. -1.
         11    1    3    3    0    0 -0.23563159378E+01  0.22931748756E+01  0.44410399863E+01  0.55257318275E+01  0.51100000000E-03 0. -1.
        -11    1    3    3    0    0 -0.83806505327E+01  0.15834519231E+02  0.62395670093E+01  0.18971017352E+02  0.51100000000E-03 0.  1.
         12    1    3    3    0    0 -0.76847191836E+01  0.18999470694E+02  0.69638979584E+01  0.21645569301E+02  0.00000000000E+00 0. -1.
</event>
<event>
 7    1  0.2328810E-008  0.4614232E+02  0.7816164E-02  0.1320468E+00
        -11   -1    0    0    0    0  0.00000000000E+00  0.00000000000E+00  0.45593999997E+02  0.45594000000E+02  0.51100000000E-03 0.  1.
         11   -1    0    0    0    0 -0.00000000000E+00 -0.00000000000E+00 -0.45593999997E+02  0.45594000000E+02  0.51100000000E-03 0. -1.
    9900012    2    1    2    0    0 -0.36738245929E+02 -0.16298782859E+02  0.20341203244E+02  0.46142316677E+02  0.99999901120E+01 0.  0.
         12    1    1    2    0    0  0.36738245929E+02  0.16298782859E+02 -0.20341203244E+02  0.45045683323E+02  0.00000000000E+00 0. -1.
         11    1    3    3    0    0 -0.10087616769E+02 -0.37988328585E+00  0.41316336306E+01  0.10907553351E+02  0.51100000000E-03 0. -1.
        -11    1    3    3    0    0 -0.20410008444E+01 -0.19574793546E+01  0.25841532265E+01  0.38308299400E+01  0.51100000000E-03 0.  1.
        -12    1    3    3    0    0 -0.24609628316E+02 -0.13961420219E+02  0.13625416387E+02  0.31403933385E+02  0.00000000000E+00 0.  1.
</event>
<event>
 7    1  0.2328810E-008  0.4614232E+02  0.7816164E-02  0.1320468E+00
        -11   -1    0    0    0    0  0.00000000000E+00  0.00000000000E+00  0.45593999997E+02  0.45594000000E+02  0.51100000000E-03 0. -1.
         11   -1    0    0    0    0 -0.00000000000E+00 -0.00000000000E+00 -0.45593999997E+02  0.45594000000E+02  0.51100000000E-03 0.  1.
    9900012    2    1    2    0    0  0.40917701157E+02 -0.94283455725E+00 -0.18813983817E+02  0.46142321051E+02  0.10000029998E+02 0.  0.
         12    1    1    2    0    0 -0.40917701157E+02  0.94283455725E+00  0.18813983817E+02  0.45045678949E+02  0.00000000000E+00 0. -1.
         11    1    3    3    0    0  0.12065119449E+02  0.23800416467E+01 -0.29078733594E+01  0.12636749317E+02  0.51100000000E-03 0. -1.
        -11    1    3    3    0    0  0.23132533439E+02 -0.29547908707E+01 -0.10320091584E+02  0.25501944690E+02  0.51100000000E-03 0.  1.
         12    1    3    3    0    0  0.57200482677E+01 -0.36808533321E+00 -0.55860188733E+01  0.80036270434E+01  0.00000000000E+00 0. -1.
</event>
<event>
 7    1  0.2328810E-008  0.4614232E+02  0.7816164E-02  0.1320468E+00
        -11   -1    0    0    0    0  0.00000000000E+00  0.00000000000E+00  0.45593999997E+02  0.45594000000E+02  0.51100000000E-03 0. -1.
         11   -1    0    0    0    0 -0.00000000000E+00 -0.00000000000E+00 -0.45593999997E+02  0.45594000000E+02  0.51100000000E-03 0.  1.
    9900012    2    1    2    0    0  0.38780658456E+02 -0.12544876595E+02 -0.19178114565E+02  0.46142317883E+02  0.10000001114E+02 0.  0.
         12    1    1    2    0    0 -0.38780658456E+02  0.12544876595E+02  0.19178114565E+02  0.45045682117E+02  0.00000000000E+00 0. -1.
         11    1    3    3    0    0  0.15154646327E+01 -0.10808571294E+01  0.81781037198E-01  0.18632159258E+01  0.51100000000E-03 0. -1.
        -11    1    3    3    0    0  0.31826951274E+02 -0.76392679668E+01 -0.18473113708E+02  0.37584161196E+02  0.51100000000E-03 0.  1.
        -12    1    3    3    0    0  0.54382425495E+01 -0.38247514984E+01 -0.78678189494E+00  0.66949407617E+01  0.00000000000E+00 0.  1.
</event>
<event>
 7    1  0.2328810E-008  0.4614232E+02  0.7816164E-02  0.1320468E+00
        -11   -1    0    0    0    0  0.00000000000E+00  0.00000000000E+00  0.45593999997E+02  0.45594000000E+02  0.51100000000E-03 0.  1.
         11   -1    0    0    0    0 -0.00000000000E+00 -0.00000000000E+00 -0.45593999997E+02  0.45594000000E+02  0.51100000000E-03 0. -1.
    9900012    2    1    2    0    0 -0.27766360468E+02  0.22243907083E+02  0.27628815342E+02  0.46142316376E+02  0.99999873655E+01 0.  0.
         12    1    1    2    0    0  0.27766360468E+02 -0.22243907083E+02 -0.27628815342E+02  0.45045683624E+02  0.00000000000E+00 0. -1.
         11    1    3    3    0    0 -0.51248790149E+01  0.13677626101E+01  0.63391882219E+01  0.82656195805E+01  0.51100000000E-03 0. -1.
        -11    1    3    3    0    0 -0.14442082332E+00 -0.77025229292E-01 -0.27794577140E+00  0.32255910019E+00  0.51100000000E-03 0.  1.
        -12    1    3    3    0    0 -0.22497060630E+02  0.20953169703E+02  0.21567572892E+02  0.37554137695E+02  0.00000000000E+00 0.  1.
</event>
<event>
 7    1  0.2328810E-008  0.4614232E+02  0.7816164E-02  0.1320468E+00
        -11   -1    0    0    0    0  0.00000000000E+00  0.00000000000E+00  0.45593999997E+02  0.45594000000E+02  0.51100000000E-03 0. -1.
         11   -1    0    0    0    0 -0.00000000000E+00 -0.00000000000E+00 -0.45593999997E+02  0.45594000000E+02  0.51100000000E-03 0.  1.
    9900012    2    1    2    0    0 -0.13403908862E+02 -0.31398590480E+02 -0.29386684412E+02  0.46142317880E+02  0.10000001084E+02 0.  0.
         12    1    1    2    0    0  0.13403908862E+02  0.31398590480E+02  0.29386684412E+02  0.45045682120E+02  0.00000000000E+00 0. -1.
         11    1    3    3    0    0  0.37227533172E+00 -0.26525193229E+01 -0.55021800705E+01  0.61195125190E+01  0.51100000000E-03 0. -1.
        -11    1    3    3    0    0 -0.13145273175E+02 -0.24693445189E+02 -0.21467779167E+02  0.35262302602E+02  0.51100000000E-03 0.  1.
         12    1    3    3    0    0 -0.63091101793E+00 -0.40526259681E+01 -0.24167251753E+01  0.47605027595E+01  0.00000000000E+00 0. -1.
</event>
<event>
 7    1  0.2328810E-008  0.4614232E+02  0.7816164E-02  0.1320468E+00
        -11   -1    0    0    0    0  0.00000000000E+00  0.00000000000E+00  0.45593999997E+02  0.45594000000E+02  0.51100000000E-03 0.  1.
         11   -1    0    0    0    0 -0.00000000000E+00 -0.00000000000E+00 -0.45593999997E+02  0.45594000000E+02  0.51100000000E-03 0. -1.
    9900012    2    1    2    0    0 -0.12592548686E+02  0.91344446431E+01  0.42274143135E+02  0.46142317198E+02  0.99999948644E+01 0.  0.
         12    1    1    2    0    0  0.12592548686E+02 -0.91344446431E+01 -0.42274143135E+02  0.45045682802E+02  0.00000000000E+00 0. -1.
         11    1    3    3    0    0 -0.18624751102E+01 -0.14894650377E+00  0.87631242678E+01  0.89600974209E+01  0.51100000000E-03 0. -1.
        -11    1    3    3    0    0 -0.65910458666E+01  0.99096123619E+01  0.23908084923E+02  0.26706531556E+02  0.51100000000E-03 0.  1.
        -12    1    3    3    0    0 -0.41390277093E+01 -0.62622121502E+00  0.96029339433E+01  0.10475688221E+02  0.00000000000E+00 0.  1.
</event>
<event>
 7    1  0.2328810E-008  0.4614232E+02  0.7816164E-02  0.1320468E+00
        -11   -1    0    0    0    0  0.00000000000E+00  0.00000000000E+00  0.45593999997E+02  0.45594000000E+02  0.51100000000E-03 0.  1.
         11   -1    0    0    0    0 -0.00000000000E+00 -0.00000000000E+00 -0.45593999997E+02  0.45594000000E+02  0.51100000000E-03 0. -1.
    9900012    2    1    2    0    0 -0.21197737437E+02  0.11813427518E+02  0.37950128493E+02  0.46142318800E+02  0.10000009469E+02 0.  0.
         12    1    1    2    0    0  0.21197737437E+02 -0.11813427518E+02 -0.37950128493E+02  0.45045681200E+02  0.00000000000E+00 0. -1.
         11    1    3    3    0    0 -0.43072682493E+01  0.23704937851E+01  0.32406098955E+01  0.58884083853E+01  0.51100000000E-03 0. -1.
        -11    1    3    3    0    0 -0.25115609801E+01  0.28174389721E+01  0.11931518455E+02  0.12514273204E+02  0.51100000000E-03 0.  1.
         12    1    3    3    0    0 -0.14378908207E+02  0.66254947610E+01  0.22778000143E+02  0.27739637210E+02  0.00000000000E+00 0. -1.
</event>
<event>
 7    1  0.2328810E-008  0.4614232E+02  0.7816164E-02  0.1320468E+00
        -11   -1    0    0    0    0  0.00000000000E+00  0.00000000000E+00  0.45593999997E+02  0.45594000000E+02  0.51100000000E-03 0.  1.
         11   -1    0    0    0    0 -0.00000000000E+00 -0.00000000000E+00 -0.45593999997E+02  0.45594000000E+02  0.51100000000E-03 0. -1.
    9900012    2    1    2    0    0  0.40070618778E+02 -0.19871361297E+02 -0.53467678681E+01  0.46142318568E+02  0.10000007356E+02 0.  0.
         12    1    1    2    0    0 -0.40070618778E+02  0.19871361297E+02  0.53467678681E+01  0.45045681432E+02  0.00000000000E+00 0. -1.
         11    1    3    3    0    0  0.80795209599E+01 -0.72741516456E+01  0.17104521683E+01  0.11005343611E+02  0.51100000000E-03 0. -1.
        -11    1    3    3    0    0  0.53350987700E+01 -0.27331048747E+01 -0.14318425092E+01  0.61630604714E+01  0.51100000000E-03 0.  1.
         12    1    3    3    0    0  0.26655999048E+02 -0.98641047763E+01 -0.56253775273E+01  0.28973914486E+02  0.00000000000E+00 0. -1.
</event>
<event>
 7    1  0.2328810E-008  0.4614232E+02  0.7816164E-02  0.1320468E+00
        -11   -1    0    0    0    0  0.00000000000E+00  0.00000000000E+00  0.45593999997E+02  0.45594000000E+02  0.51100000000E-03 0.  1.
         11   -1    0    0    0    0 -0.00000000000E+00 -0.00000000000E+00 -0.45593999997E+02  0.45594000000E+02  0.51100000000E-03 0. -1.
    9900012    2    1    2    0    0 -0.30064080710E+02  0.33507814046E+02 -0.15783211690E+01  0.46142315980E+02  0.99999837579E+01 0.  0.
         12    1    1    2    0    0  0.30064080710E+02 -0.33507814046E+02  0.15783211690E+01  0.45045684020E+02  0.00000000000E+00 0. -1.
         11    1    3    3    0    0 -0.12001684867E+01  0.15195157983E+01 -0.22389404884E+01  0.29600992263E+01  0.51100000000E-03 0. -1.
        -11    1    3    3    0    0 -0.83128343883E+01  0.10129968044E+02 -0.93581534985E+00  0.13137549953E+02  0.51100000000E-03 0.  1.
         12    1    3    3    0    0 -0.20551077835E+02  0.21858330204E+02  0.15964346693E+01  0.30044666800E+02  0.00000000000E+00 0. -1.
</event>
<event>
 7    1  0.2328810E-008  0.4614232E+02  0.7816164E-02  0.1320468E+00
        -11   -1    0    0    0    0  0.00000000000E+00  0.00000000000E+00  0.45593999997E+02  0.45594000000E+02  0.51100000000E-03 0.  1.
         11   -1    0    0    0    0 -0.00000000000E+00 -0.00000000000E+00 -0.45593999997E+02  0.45594000000E+02  0.51100000000E-03 0. -1.
    9900012    2    1    2    0    0 -0.42614247224E+02 -0.13762591965E+02 -0.48713971180E+01  0.46142317477E+02  0.99999974074E+01 0.  0.
         12    1    1    2    0    0  0.42614247224E+02  0.13762591965E+02  0.48713971180E+01  0.45045682523E+02  0.00000000000E+00 0. -1.
         11    1    3    3    0    0 -0.23599580569E+01 -0.40515546044E+00  0.88624703313E+00  0.25532307068E+01  0.51100000000E-03 0. -1.
        -11    1    3    3    0    0 -0.28741862664E+02 -0.12202567132E+02 -0.15019634034E+01  0.31261049379E+02  0.51100000000E-03 0.  1.
         12    1    3    3    0    0 -0.11512426504E+02 -0.11548693731E+01 -0.42556807477E+01  0.12328037391E+02  0.00000000000E+00 0. -1.
</event>
<event>
 7    1  0.2328810E-008  0.4614232E+02  0.7816164E-02  0.1320468E+00
        -11   -1    0    0    0    0  0.00000000000E+00  0.00000000000E+00  0.45593999997E+02  0.45594000000E+02  0.51100000000E-03 0.  1.
         11   -1    0    0    0    0 -0.00000000000E+00 -0.00000000000E+00 -0.45593999997E+02  0.45594000000E+02  0.51100000000E-03 0. -1.
    9900012    2    1    2    0    0  0.27562613967E+01  0.10393245998E+02  0.43743534397E+02  0.46142319399E+02  0.10000014934E+02 0.  0.
         12    1    1    2    0    0 -0.27562613967E+01 -0.10393245998E+02 -0.43743534397E+02  0.45045680601E+02  0.00000000000E+00 0. -1.
         11    1    3    3    0    0  0.29839365527E+01  0.14755623524E+01  0.15208028957E+02  0.15568086158E+02  0.51100000000E-03 0.  1.
        -11    1    3    3    0    0  0.18734087146E+01  0.12534579073E+00  0.62209393556E+01  0.64981119186E+01  0.51100000000E-03 0. -1.
        -12    1    3    3    0    0 -0.21010838706E+01  0.87923378543E+01  0.22314566085E+02  0.24076121322E+02  0.00000000000E+00 0.  1.
</event>
<event>
 7    1  0.2328810E-008  0.4614232E+02  0.7816164E-02  0.1320468E+00
        -11   -1    0    0    0    0  0.00000000000E+00  0.00000000000E+00  0.45593999997E+02  0.45594000000E+02  0.51100000000E-03 0. -1.
         11   -1    0    0    0    0 -0.00000000000E+00 -0.00000000000E+00 -0.45593999997E+02  0.45594000000E+02  0.51100000000E-03 0.  1.
    9900012    2    1    2    0    0  0.55203313506E+01 -0.22301921429E+02 -0.38746143974E+02  0.46142318403E+02  0.10000005857E+02 0.  0.
         12    1    1    2    0    0 -0.55203313506E+01  0.22301921429E+02  0.38746143974E+02  0.45045681597E+02  0.00000000000E+00 0. -1.
         11    1    3    3    0    0 -0.74255391442E+00 -0.10045396491E+02 -0.20465398023E+02  0.22809951633E+02  0.51100000000E-03 0. -1.
        -11    1    3    3    0    0  0.60650086690E+00 -0.40490392005E+01 -0.81471250274E+01  0.91180155857E+01  0.51100000000E-03 0.  1.
         12    1    3    3    0    0  0.56563843981E+01 -0.82074857371E+01 -0.10133620924E+02  0.14214351185E+02  0.00000000000E+00 0. -1.
</event>
<event>
 7    1  0.2328810E-008  0.4614232E+02  0.7816164E-02  0.1320468E+00
        -11   -1    0    0    0    0  0.00000000000E+00  0.00000000000E+00  0.45593999997E+02  0.45594000000E+02  0.51100000000E-03 0. -1.
         11   -1    0    0    0    0 -0.00000000000E+00 -0.00000000000E+00 -0.45593999997E+02  0.45594000000E+02  0.51100000000E-03 0.  1.
    9900012    2    1    2    0    0  0.18565092761E+02 -0.23300573332E+02 -0.33786595152E+02  0.46142318756E+02  0.10000009068E+02 0.  0.
         12    1    1    2    0    0 -0.18565092761E+02  0.23300573332E+02  0.33786595152E+02  0.45045681244E+02  0.00000000000E+00 0. -1.
         11    1    3    3    0    0  0.13519276350E+02 -0.16628872181E+02 -0.22869877019E+02  0.31342008522E+02  0.51100000000E-03 0. -1.
        -11    1    3    3    0    0  0.34504493022E+01 -0.72920706935E+01 -0.10032589317E+02  0.12873723007E+02  0.51100000000E-03 0.  1.
         12    1    3    3    0    0  0.15953671086E+01  0.62036954281E+00 -0.88412881550E+00  0.19265872270E+01  0.00000000000E+00 0. -1.
</event>
<event>
 7    1  0.2328810E-008  0.4614232E+02  0.7816164E-02  0.1320468E+00
        -11   -1    0    0    0    0  0.00000000000E+00  0.00000000000E+00  0.45593999997E+02  0.45594000000E+02  0.51100000000E-03 0. -1.
         11   -1    0    0    0    0 -0.00000000000E+00 -0.00000000000E+00 -0.45593999997E+02  0.45594000000E+02  0.51100000000E-03 0.  1.
    9900012    2    1    2    0    0  0.27105791157E+02 -0.29908967881E+02 -0.19996079621E+02  0.46142317919E+02  0.10000001437E+02 0.  0.
         12    1    1    2    0    0 -0.27105791157E+02  0.29908967881E+02  0.19996079621E+02  0.45045682081E+02  0.00000000000E+00 0. -1.
         11    1    3    3    0    0  0.68577502797E+01 -0.66102629048E+01 -0.80891178440E+01  0.12496325153E+02  0.51100000000E-03 0. -1.
        -11    1    3    3    0    0  0.19140461457E+02 -0.21782462422E+02 -0.12637358148E+02  0.31631246501E+02  0.51100000000E-03 0.  1.
         12    1    3    3    0    0  0.11075794202E+01 -0.15162425541E+01  0.73039637096E+00  0.20147462653E+01  0.00000000000E+00 0. -1.
</event>
<event>
 7    1  0.2328810E-008  0.4614232E+02  0.7816164E-02  0.1320468E+00
        -11   -1    0    0    0    0  0.00000000000E+00  0.00000000000E+00  0.45593999997E+02  0.45594000000E+02  0.51100000000E-03 0.  1.
         11   -1    0    0    0    0 -0.00000000000E+00 -0.00000000000E+00 -0.45593999997E+02  0.45594000000E+02  0.51100000000E-03 0. -1.
    9900012    2    1    2    0    0  0.13289298989E+02 -0.24385603311E+01  0.42971636000E+02  0.46142317137E+02  0.99999943062E+01 0.  0.
         12    1    1    2    0    0 -0.13289298989E+02  0.24385603311E+01 -0.42971636000E+02  0.45045682863E+02  0.00000000000E+00 0. -1.
         11    1    3    3    0    0  0.21165251821E+01 -0.20705072832E+01  0.14677772668E+02  0.14973432807E+02  0.51100000000E-03 0. -1.
        -11    1    3    3    0    0  0.19203489049E+01  0.25858545357E+01  0.52137169552E+01  0.61283952505E+01  0.51100000000E-03 0.  1.
         12    1    3    3    0    0  0.92524249017E+01 -0.29539075836E+01  0.23080146377E+02  0.25040489080E+02  0.00000000000E+00 0. -1.
</event>
<event>
 7    1  0.2328810E-008  0.4614232E+02  0.7816164E-02  0.1320468E+00
        -11   -1    0    0    0    0  0.00000000000E+00  0.00000000000E+00  0.45593999997E+02  0.45594000000E+02  0.51100000000E-03 0.  1.
         11   -1    0    0    0    0 -0.00000000000E+00 -0.00000000000E+00 -0.45593999997E+02  0.45594000000E+02  0.51100000000E-03 0. -1.
    9900012    2    1    2    0    0 -0.94886554547E+01 -0.40182146522E+02  0.18013164454E+02  0.46142316798E+02  0.99999912205E+01 0.  0.
         12    1    1    2    0    0  0.94886554547E+01  0.40182146522E+02 -0.18013164454E+02  0.45045683202E+02  0.00000000000E+00 0. -1.
         11    1    3    3    0    0 -0.34444442561E+00 -0.25229401213E+01 -0.85368577455E+00  0.26856374440E+01  0.51100000000E-03 0. -1.
        -11    1    3    3    0    0 -0.55710232500E+01 -0.16726266647E+02  0.11163538071E+02  0.20866932657E+02  0.51100000000E-03 0.  1.
         12    1    3    3    0    0 -0.35731877791E+01 -0.20932939754E+02  0.77033121579E+01  0.22589746697E+02  0.00000000000E+00 0. -1.
</event>
<event>
 7    1  0.2328810E-008  0.4614232E+02  0.7816164E-02  0.1320468E+00
        -11   -1    0    0    0    0  0.00000000000E+00  0.00000000000E+00  0.45593999997E+02  0.45594000000E+02  0.51100000000E-03 0.  1.
         11   -1    0    0    0    0 -0.00000000000E+00 -0.00000000000E+00 -0.45593999997E+02  0.45594000000E+02  0.51100000000E-03 0. -1.
    9900012    2    1    2    0    0 -0.25172567750E+01 -0.53026221959E+01  0.44661607653E+02  0.46142316722E+02  0.99999905243E+01 0.  0.
         12    1    1    2    0    0  0.25172567750E+01  0.53026221959E+01 -0.44661607653E+02  0.45045683278E+02  0.00000000000E+00 0. -1.
         11    1    3    3    0    0 -0.21294888229E+01  0.20720390962E+00  0.50674133894E+01  0.55005758632E+01  0.51100000000E-03 0. -1.
        -11    1    3    3    0    0 -0.32985042758E+01 -0.50966271758E+00  0.16466006524E+02  0.16800870741E+02  0.51100000000E-03 0.  1.
        -12    1    3    3    0    0  0.29107363237E+01 -0.50001633879E+01  0.23128187740E+02  0.23840870118E+02  0.00000000000E+00 0.  1.
</event>
<event>
 7    1  0.2328810E-008  0.4614232E+02  0.7816164E-02  0.1320468E+00
        -11   -1    0    0    0    0  0.00000000000E+00  0.00000000000E+00  0.45593999997E+02  0.45594000000E+02  0.51100000000E-03 0.  1.
         11   -1    0    0    0    0 -0.00000000000E+00 -0.00000000000E+00 -0.45593999997E+02  0.45594000000E+02  0.51100000000E-03 0. -1.
    9900012    2    1    2    0    0  0.15638096506E+02  0.32934289522E+02  0.26455547165E+02  0.46142318027E+02  0.10000002423E+02 0.  0.
         12    1    1    2    0    0 -0.15638096506E+02 -0.32934289522E+02 -0.26455547165E+02  0.45045681973E+02  0.00000000000E+00 0. -1.
         11    1    3    3    0    0  0.38121397536E+01  0.10573488712E+02  0.47866951433E+01  0.12216526663E+02  0.51100000000E-03 0. -1.
        -11    1    3    3    0    0  0.17720654316E+01  0.30211347553E+00  0.21508552679E+01  0.28031530623E+01  0.51100000000E-03 0.  1.
        -12    1    3    3    0    0  0.10053891321E+02  0.22058687334E+02  0.19517996754E+02  0.31122638302E+02  0.00000000000E+00 0.  1.
</event>
<event>
 7    1  0.2328810E-008  0.4614232E+02  0.7816164E-02  0.1320468E+00
        -11   -1    0    0    0    0  0.00000000000E+00  0.00000000000E+00  0.45593999997E+02  0.45594000000E+02  0.51100000000E-03 0.  1.
         11   -1    0    0    0    0 -0.00000000000E+00 -0.00000000000E+00 -0.45593999997E+02  0.45594000000E+02  0.51100000000E-03 0. -1.
    9900012    2    1    2    0    0  0.33744219418E+02 -0.28799917582E+02  0.78106226427E+01  0.46142318487E+02  0.10000006622E+02 0.  0.
         12    1    1    2    0    0 -0.33744219418E+02  0.28799917582E+02 -0.78106226427E+01  0.45045681513E+02  0.00000000000E+00 0. -1.
         11    1    3    3    0    0  0.13403608235E+02 -0.59209881623E+01  0.26454677958E+01  0.14890040788E+02  0.51100000000E-03 0. -1.
        -11    1    3    3    0    0  0.23326183343E+01 -0.33889436581E+01 -0.41866533615E+00  0.41353752352E+01  0.51100000000E-03 0.  1.
         12    1    3    3    0    0  0.18007992849E+02 -0.19489985762E+02  0.55838201831E+01  0.27116902464E+02  0.00000000000E+00 0. -1.
</event>
<event>
 7    1  0.2328810E-008  0.4614232E+02  0.7816164E-02  0.1320468E+00
        -11   -1    0    0    0    0  0.00000000000E+00  0.00000000000E+00  0.45593999997E+02  0.45594000000E+02  0.51100000000E-03 0. -1.
         11   -1    0    0    0    0 -0.00000000000E+00 -0.00000000000E+00 -0.45593999997E+02  0.45594000000E+02  0.51100000000E-03 0.  1.
    9900012    2    1    2    0    0  0.56204417036E+00 -0.44990727825E+02 -0.21522102317E+01  0.46142317712E+02  0.99999995550E+01 0.  0.
         12    1    1    2    0    0 -0.56204417036E+00  0.44990727825E+02  0.21522102317E+01  0.45045682288E+02  0.00000000000E+00 0. -1.
         11    1    3    3    0    0 -0.25210456799E+01 -0.66583218372E+01  0.52931347800E+00  0.71392642497E+01  0.51100000000E-03 0. -1.
        -11    1    3    3    0    0  0.75660080412E+00 -0.94313339830E+01 -0.32461411102E+01  0.10002996443E+02  0.51100000000E-03 0.  1.
         12    1    3    3    0    0  0.23264890462E+01 -0.28901072005E+02  0.56461740050E+00  0.29000057019E+02  0.00000000000E+00 0. -1.
</event>
<event>
 7    1  0.2328810E-008  0.4614232E+02  0.7816164E-02  0.1320468E+00
        -11   -1    0    0    0    0  0.00000000000E+00  0.00000000000E+00  0.45593999997E+02  0.45594000000E+02  0.51100000000E-03 0.  1.
         11   -1    0    0    0    0 -0.00000000000E+00 -0.00000000000E+00 -0.45593999997E+02  0.45594000000E+02  0.51100000000E-03 0. -1.
    9900012    2    1    2    0    0  0.17351145984E+02 -0.83177034203E+01  0.40729189586E+02  0.46142319392E+02  0.10000014871E+02 0.  0.
         12    1    1    2    0    0 -0.17351145984E+02  0.83177034203E+01 -0.40729189586E+02  0.45045680608E+02  0.00000000000E+00 0. -1.
         11    1    3    3    0    0 -0.34688099959E+00 -0.33175052277E-01  0.22809355582E+01  0.23073998990E+01  0.51100000000E-03 0. -1.
        -11    1    3    3    0    0  0.13300484556E+02 -0.68105915057E+01  0.20953960676E+02  0.25736268462E+02  0.51100000000E-03 0.  1.
         12    1    3    3    0    0  0.43975424282E+01 -0.14739368623E+01  0.17494293351E+02  0.18098651031E+02  0.00000000000E+00 0. -1.
</event>
<event>
 7    1  0.2328810E-008  0.4614232E+02  0.7816164E-02  0.1320468E+00
        -11   -1    0    0    0    0  0.00000000000E+00  0.00000000000E+00  0.45593999997E+02  0.45594000000E+02  0.51100000000E-03 0. -1.
         11   -1    0    0    0    0 -0.00000000000E+00 -0.00000000000E+00 -0.45593999997E+02  0.45594000000E+02  0.51100000000E-03 0.  1.
    9900012    2    1    2    0    0  0.33812685447E+02  0.23962812631E+02 -0.17652179182E+02  0.46142317452E+02  0.99999971806E+01 0.  0.
         12    1    1    2    0    0 -0.33812685447E+02 -0.23962812631E+02  0.17652179182E+02  0.45045682548E+02  0.00000000000E+00 0. -1.
         11    1    3    3    0    0  0.19633942234E+02  0.13048485712E+02 -0.12740513744E+02  0.26796928140E+02  0.51100000000E-03 0. -1.
        -11    1    3    3    0    0  0.97269149103E+01  0.40642455780E+01 -0.27793596612E+01  0.10902100998E+02  0.51100000000E-03 0.  1.
         12    1    3    3    0    0  0.44518283033E+01  0.68500813413E+01 -0.21323057768E+01  0.84432883138E+01  0.00000000000E+00 0. -1.
</event>
<event>
 7    1  0.2328810E-008  0.4614232E+02  0.7816164E-02  0.1320468E+00
        -11   -1    0    0    0    0  0.00000000000E+00  0.00000000000E+00  0.45593999997E+02  0.45594000000E+02  0.51100000000E-03 0.  1.
         11   -1    0    0    0    0 -0.00000000000E+00 -0.00000000000E+00 -0.45593999997E+02  0.45594000000E+02  0.51100000000E-03 0. -1.
    9900012    2    1    2    0    0  0.21872364624E+02  0.15909499752E+02  0.36022230574E+02  0.46142316387E+02  0.99999874724E+01 0.  0.
         12    1    1    2    0    0 -0.21872364624E+02 -0.15909499752E+02 -0.36022230574E+02  0.45045683613E+02  0.00000000000E+00 0. -1.
         11    1    3    3    0    0  0.24592781306E+01 -0.52408917779E+00  0.51689555255E+01  0.57481144626E+01  0.51100000000E-03 0. -1.
        -11    1    3    3    0    0  0.74061187230E+01  0.75994080986E+01  0.88534728652E+01  0.13819753255E+02  0.51100000000E-03 0.  1.
         12    1    3    3    0    0  0.12006967771E+02  0.88341808311E+01  0.21999802183E+02  0.26574448670E+02  0.00000000000E+00 0. -1.
</event>
<event>
 7    1  0.2328810E-008  0.4614232E+02  0.7816164E-02  0.1320468E+00
        -11   -1    0    0    0    0  0.00000000000E+00  0.00000000000E+00  0.45593999997E+02  0.45594000000E+02  0.51100000000E-03 0. -1.
         11   -1    0    0    0    0 -0.00000000000E+00 -0.00000000000E+00 -0.45593999997E+02  0.45594000000E+02  0.51100000000E-03 0.  1.
    9900012    2    1    2    0    0  0.34135558609E+02  0.27605433395E+02  0.10090447809E+02  0.46142318171E+02  0.10000003739E+02 0.  0.
         12    1    1    2    0    0 -0.34135558609E+02 -0.27605433395E+02 -0.10090447809E+02  0.45045681829E+02  0.00000000000E+00 0. -1.
         11    1    3    3    0    0  0.14996841539E+02  0.13436526287E+02  0.42083540913E+01  0.20570749603E+02  0.51100000000E-03 0. -1.
        -11    1    3    3    0    0 -0.16743430191E+00  0.11999472806E+01 -0.70148513943E+00  0.13999962085E+01  0.51100000000E-03 0.  1.
        -12    1    3    3    0    0  0.19306151372E+02  0.12968959828E+02  0.65835788567E+01  0.24171572360E+02  0.00000000000E+00 0.  1.
</event>
<event>
 7    1  0.2328810E-008  0.4614232E+02  0.7816164E-02  0.1320468E+00
        -11   -1    0    0    0    0  0.00000000000E+00  0.00000000000E+00  0.45593999997E+02  0.45594000000E+02  0.51100000000E-03 0.  1.
         11   -1    0    0    0    0 -0.00000000000E+00 -0.00000000000E+00 -0.45593999997E+02  0.45594000000E+02  0.51100000000E-03 0. -1.
    9900012    2    1    2    0    0 -0.43853687468E+02 -0.10203513399E+02  0.13623509504E+01  0.46142316630E+02  0.99999896812E+01 0.  0.
         12    1    1    2    0    0  0.43853687468E+02  0.10203513399E+02 -0.13623509504E+01  0.45045683370E+02  0.00000000000E+00 0. -1.
         11    1    3    3    0    0 -0.14980171724E+01 -0.70609372288E+00 -0.14021222564E+01  0.21699241640E+01  0.51100000000E-03 0. -1.
        -11    1    3    3    0    0 -0.16605494216E+02 -0.55393894438E+00  0.55674304508E+00  0.16624056352E+02  0.51100000000E-03 0.  1.
        -12    1    3    3    0    0 -0.25750176079E+02 -0.89434807317E+01  0.22077301618E+01  0.27348336113E+02  0.00000000000E+00 0.  1.
</event>
<event>
 7    1  0.2328810E-008  0.4614232E+02  0.7816164E-02  0.1320468E+00
        -11   -1    0    0    0    0  0.00000000000E+00  0.00000000000E+00  0.45593999997E+02  0.45594000000E+02  0.51100000000E-03 0.  1.
         11   -1    0    0    0    0 -0.00000000000E+00 -0.00000000000E+00 -0.45593999997E+02  0.45594000000E+02  0.51100000000E-03 0. -1.
    9900012    2    1    2    0    0  0.16441357228E+02 -0.10488393530E+02  0.40605281211E+02  0.46142317759E+02  0.99999999793E+01 0.  0.
         12    1    1    2    0    0 -0.16441357228E+02  0.10488393530E+02 -0.40605281211E+02  0.45045682241E+02  0.00000000000E+00 0. -1.
         11    1    3    3    0    0  0.95313522027E+01 -0.45183347301E+01  0.24911824828E+02  0.27052930341E+02  0.51100000000E-03 0. -1.
        -11    1    3    3    0    0  0.47080279822E+01 -0.40538843818E+01  0.14776960470E+02  0.16029911636E+02  0.51100000000E-03 0.  1.
         12    1    3    3    0    0  0.22019770429E+01 -0.19161744186E+01  0.91649591357E+00  0.30594757818E+01  0.00000000000E+00 0. -1.
</event>
<event>
 7    1  0.2328810E-008  0.4614232E+02  0.7816164E-02  0.1320468E+00
        -11   -1    0    0    0    0  0.00000000000E+00  0.00000000000E+00  0.45593999997E+02  0.45594000000E+02  0.51100000000E-03 0. -1.
         11   -1    0    0    0    0 -0.00000000000E+00 -0.00000000000E+00 -0.45593999997E+02  0.45594000000E+02  0.51100000000E-03 0.  1.
    9900012    2    1    2    0    0 -0.16727719638E+02  0.41794678311E+02 -0.15817335418E+01  0.46142316296E+02  0.99999866384E+01 0.  0.
         12    1    1    2    0    0  0.16727719638E+02 -0.41794678311E+02  0.15817335418E+01  0.45045683704E+02  0.00000000000E+00 0. -1.
         11    1    3    3    0    0 -0.42094624898E+01  0.13094208536E+02  0.22409758104E+01  0.13935560429E+02  0.51100000000E-03 0. -1.
        -11    1    3    3    0    0 -0.54714489120E+01  0.20238188489E+02 -0.23279551932E+01  0.21093610458E+02  0.51100000000E-03 0.  1.
        -12    1    3    3    0    0 -0.70468082357E+01  0.84622812857E+01 -0.14947541589E+01  0.11113145408E+02  0.00000000000E+00 0.  1.
</event>
<event>
 7    1  0.2328810E-008  0.4614232E+02  0.7816164E-02  0.1320468E+00
        -11   -1    0    0    0    0  0.00000000000E+00  0.00000000000E+00  0.45593999997E+02  0.45594000000E+02  0.51100000000E-03 0. -1.
         11   -1    0    0    0    0 -0.00000000000E+00 -0.00000000000E+00 -0.45593999997E+02  0.45594000000E+02  0.51100000000E-03 0.  1.
    9900012    2    1    2    0    0  0.83184679651E+01  0.43870291359E+02  0.59425656709E+01  0.46142318076E+02  0.10000002873E+02 0.  0.
         12    1    1    2    0    0 -0.83184679651E+01 -0.43870291359E+02 -0.59425656709E+01  0.45045681924E+02  0.00000000000E+00 0. -1.
         11    1    3    3    0    0  0.52896206776E+00  0.32016006812E+00  0.26327876312E+00  0.67202626926E+00  0.51100000000E-03 0. -1.
        -11    1    3    3    0    0  0.78278266936E+01  0.30955781208E+02  0.73510145065E+01  0.32765418897E+02  0.51100000000E-03 0.  1.
         12    1    3    3    0    0 -0.38320796261E-01  0.12594350083E+02 -0.16717275987E+01  0.12704872910E+02  0.00000000000E+00 0. -1.
</event>
<event>
 7    1  0.2328810E-008  0.4614232E+02  0.7816164E-02  0.1320468E+00
        -11   -1    0    0    0    0  0.00000000000E+00  0.00000000000E+00  0.45593999997E+02  0.45594000000E+02  0.51100000000E-03 0.  1.
         11   -1    0    0    0    0 -0.00000000000E+00 -0.00000000000E+00 -0.45593999997E+02  0.45594000000E+02  0.51100000000E-03 0. -1.
    9900012    2    1    2    0    0 -0.11582310754E+02 -0.32366146668E+02  0.29110068741E+02  0.46142317914E+02  0.10000001391E+02 0.  0.
         12    1    1    2    0    0  0.11582310754E+02  0.32366146668E+02 -0.29110068741E+02  0.45045682086E+02  0.00000000000E+00 0. -1.
         11    1    3    3    0    0 -0.19839907842E+01 -0.52786371553E+01  0.29649075275E+01  0.63710993209E+01  0.51100000000E-03 0. -1.
        -11    1    3    3    0    0 -0.51971750274E+01 -0.23579491787E+02  0.22882317298E+02  0.33265650548E+02  0.51100000000E-03 0.  1.
        -12    1    3    3    0    0 -0.44011449429E+01 -0.35080177256E+01  0.32628439157E+01  0.65055680451E+01  0.00000000000E+00 0.  1.
</event>
<event>
 7    1  0.2328810E-008  0.4614232E+02  0.7816164E-02  0.1320468E+00
        -11   -1    0    0    0    0  0.00000000000E+00  0.00000000000E+00  0.45593999997E+02  0.45594000000E+02  0.51100000000E-03 0.  1.
         11   -1    0    0    0    0 -0.00000000000E+00 -0.00000000000E+00 -0.45593999997E+02  0.45594000000E+02  0.51100000000E-03 0. -1.
    9900012    2    1    2    0    0  0.19338706137E+02  0.39453982335E+02  0.99252814688E+01  0.46142317750E+02  0.99999999011E+01 0.  0.
         12    1    1    2    0    0 -0.19338706137E+02 -0.39453982335E+02 -0.99252814688E+01  0.45045682250E+02  0.00000000000E+00 0. -1.
         11    1    3    3    0    0  0.32023587598E+01  0.53378431981E+01  0.34006862985E+01  0.70931191443E+01  0.51100000000E-03 0. -1.
        -11    1    3    3    0    0  0.13936243897E+02  0.30767357737E+02  0.81160600205E+01  0.34737870208E+02  0.51100000000E-03 0.  1.
         12    1    3    3    0    0  0.22001034805E+01  0.33487813995E+01 -0.15914648501E+01  0.43113283981E+01  0.00000000000E+00 0. -1.
</event>
<event>
 7    1  0.2328810E-008  0.4614232E+02  0.7816164E-02  0.1320468E+00
        -11   -1    0    0    0    0  0.00000000000E+00  0.00000000000E+00  0.45593999997E+02  0.45594000000E+02  0.51100000000E-03 0.  1.
         11   -1    0    0    0    0 -0.00000000000E+00 -0.00000000000E+00 -0.45593999997E+02  0.45594000000E+02  0.51100000000E-03 0. -1.
    9900012    2    1    2    0    0  0.28918458515E+02  0.30157261228E+02  0.16833772143E+02  0.46142317275E+02  0.99999955638E+01 0.  0.
         12    1    1    2    0    0 -0.28918458515E+02 -0.30157261228E+02 -0.16833772143E+02  0.45045682725E+02  0.00000000000E+00 0. -1.
         11    1    3    3    0    0  0.20639871598E+01  0.52254750827E+01  0.19414640360E+01  0.59443179339E+01  0.51100000000E-03 0. -1.
        -11    1    3    3    0    0  0.22335203042E+02  0.20663604386E+02  0.15120581762E+02  0.33977607836E+02  0.51100000000E-03 0.  1.
        -12    1    3    3    0    0  0.45192683130E+01  0.42681817591E+01 -0.22827365531E+00  0.62203915050E+01  0.00000000000E+00 0.  1.
</event>
<event>
 7    1  0.2328810E-008  0.4614232E+02  0.7816164E-02  0.1320468E+00
        -11   -1    0    0    0    0  0.00000000000E+00  0.00000000000E+00  0.45593999997E+02  0.45594000000E+02  0.51100000000E-03 0. -1.
         11   -1    0    0    0    0 -0.00000000000E+00 -0.00000000000E+00 -0.45593999997E+02  0.45594000000E+02  0.51100000000E-03 0.  1.
    9900012    2    1    2    0    0 -0.38185299388E+01  0.67476477982E+01 -0.44373433569E+02  0.46142317317E+02  0.99999959510E+01 0.  0.
         12    1    1    2    0    0  0.38185299388E+01 -0.67476477982E+01  0.44373433569E+02  0.45045682683E+02  0.00000000000E+00 0. -1.
         11    1    3    3    0    0  0.66771275206E+00  0.17040727637E+01 -0.17534301625E+01  0.25346048803E+01  0.51100000000E-03 0. -1.
        -11    1    3    3    0    0 -0.52676079331E+01  0.59736882080E+01 -0.38349199827E+02  0.39167509134E+02  0.51100000000E-03 0.  1.
         12    1    3    3    0    0  0.78136524222E+00 -0.93011317351E+00 -0.42708035791E+01  0.44402033026E+01  0.00000000000E+00 0. -1.
</event>
<event>
 7    1  0.2328810E-008  0.4614231E+02  0.7816164E-02  0.1320468E+00
        -11   -1    0    0    0    0  0.00000000000E+00  0.00000000000E+00  0.45593999997E+02  0.45594000000E+02  0.51100000000E-03 0.  1.
         11   -1    0    0    0    0 -0.00000000000E+00 -0.00000000000E+00 -0.45593999997E+02  0.45594000000E+02  0.51100000000E-03 0. -1.
    9900012    2    1    2    0    0 -0.33144110879E+02 -0.29337916325E+02  0.83587792427E+01  0.46142305304E+02  0.99998864029E+01 0.  0.
         12    1    1    2    0    0  0.33144110879E+02  0.29337916325E+02 -0.83587792427E+01  0.45045694696E+02  0.00000000000E+00 0. -1.
         11    1    3    3    0    0 -0.21129083125E+02 -0.18696499832E+02  0.62396453195E+01  0.28895162807E+02  0.51100000000E-03 0. -1.
        -11    1    3    3    0    0 -0.91855697001E+01 -0.69892540003E+01  0.40607310649E+01  0.12235763125E+02  0.51100000000E-03 0.  1.
         12    1    3    3    0    0 -0.28294580536E+01 -0.36521624928E+01 -0.19415971417E+01  0.50113793721E+01  0.00000000000E+00 0. -1.
</event>
<event>
 7    1  0.2328810E-008  0.4614232E+02  0.7816164E-02  0.1320468E+00
        -11   -1    0    0    0    0  0.00000000000E+00  0.00000000000E+00  0.45593999997E+02  0.45594000000E+02  0.51100000000E-03 0.  1.
         11   -1    0    0    0    0 -0.00000000000E+00 -0.00000000000E+00 -0.45593999997E+02  0.45594000000E+02  0.51100000000E-03 0. -1.
    9900012    2    1    2    0    0 -0.13114771819E+02 -0.22512541722E+02  0.36746451656E+02  0.46142317810E+02  0.10000000449E+02 0.  0.
         12    1    1    2    0    0  0.13114771819E+02  0.22512541722E+02 -0.36746451656E+02  0.45045682190E+02  0.00000000000E+00 0. -1.
         11    1    3    3    0    0 -0.68453395164E+01 -0.47315474942E+01  0.81741437257E+01  0.11664597751E+02  0.51100000000E-03 0. -1.
        -11    1    3    3    0    0 -0.91158553207E+00 -0.36306929409E+01  0.89342111373E+01  0.96867460130E+01  0.51100000000E-03 0.  1.
        -12    1    3    3    0    0 -0.53578467702E+01 -0.14150301287E+02  0.19638096793E+02  0.24790974046E+02  0.00000000000E+00 0.  1.
</event>
<event>
 7    1  0.2328810E-008  0.4614232E+02  0.7816164E-02  0.1320468E+00
        -11   -1    0    0    0    0  0.00000000000E+00  0.00000000000E+00  0.45593999997E+02  0.45594000000E+02  0.51100000000E-03 0.  1.
         11   -1    0    0    0    0 -0.00000000000E+00 -0.00000000000E+00 -0.45593999997E+02  0.45594000000E+02  0.51100000000E-03 0. -1.
    9900012    2    1    2    0    0  0.30597937454E+01  0.64685837924E+01  0.44473677502E+02  0.46142324241E+02  0.10000059091E+02 0.  0.
         12    1    1    2    0    0 -0.30597937454E+01 -0.64685837924E+01 -0.44473677502E+02  0.45045675759E+02  0.00000000000E+00 0. -1.
         11    1    3    3    0    0  0.20663137246E+00  0.23583787895E+01  0.45305665538E+01  0.51118177392E+01  0.51100000000E-03 0. -1.
        -11    1    3    3    0    0  0.83059664028E+00  0.49428267643E+01  0.37131839374E+02  0.37468585812E+02  0.51100000000E-03 0.  1.
        -12    1    3    3    0    0  0.20225657327E+01 -0.83262176137E+00  0.28112715735E+01  0.35619206898E+01  0.00000000000E+00 0.  1.
</event>
<event>
 7    1  0.2328810E-008  0.4614232E+02  0.7816164E-02  0.1320468E+00
        -11   -1    0    0    0    0  0.00000000000E+00  0.00000000000E+00  0.45593999997E+02  0.45594000000E+02  0.51100000000E-03 0.  1.
         11   -1    0    0    0    0 -0.00000000000E+00 -0.00000000000E+00 -0.45593999997E+02  0.45594000000E+02  0.51100000000E-03 0. -1.
    9900012    2    1    2    0    0 -0.35924196042E+01  0.29363104293E+02  0.33970812335E+02  0.46142318043E+02  0.10000002566E+02 0.  0.
         12    1    1    2    0    0  0.35924196042E+01 -0.29363104293E+02 -0.33970812335E+02  0.45045681957E+02  0.00000000000E+00 0. -1.
         11    1    3    3    0    0 -0.17181412316E+01  0.10292198796E+02  0.70215083997E+01  0.12577080179E+02  0.51100000000E-03 0. -1.
        -11    1    3    3    0    0 -0.61406807629E-01  0.12248818085E+02  0.21100524957E+02  0.24398144786E+02  0.51100000000E-03 0.  1.
        -12    1    3    3    0    0 -0.18128715649E+01  0.68220874123E+01  0.58487789782E+01  0.91670930783E+01  0.00000000000E+00 0.  1.
</event>
<event>
 7    1  0.2328810E-008  0.4614232E+02  0.7816164E-02  0.1320468E+00
        -11   -1    0    0    0    0  0.00000000000E+00  0.00000000000E+00  0.45593999997E+02  0.45594000000E+02  0.51100000000E-03 0. -1.
         11   -1    0    0    0    0 -0.00000000000E+00 -0.00000000000E+00 -0.45593999997E+02  0.45594000000E+02  0.51100000000E-03 0.  1.
    9900012    2    1    2    0    0 -0.21625031927E+02 -0.23524614586E+02 -0.31750023834E+02  0.46142317513E+02  0.99999977353E+01 0.  0.
         12    1    1    2    0    0  0.21625031927E+02  0.23524614586E+02  0.31750023834E+02  0.45045682487E+02  0.00000000000E+00 0. -1.
         11    1    3    3    0    0 -0.46100957380E+01 -0.35260846520E+01 -0.29198618367E+01  0.64970646521E+01  0.51100000000E-03 0. -1.
        -11    1    3    3    0    0 -0.18171058886E+01 -0.40746330555E+01 -0.88786447317E+01  0.99365406898E+01  0.51100000000E-03 0.  1.
         12    1    3    3    0    0 -0.15197830301E+02 -0.15923896879E+02 -0.19951517265E+02  0.29708712171E+02  0.00000000000E+00 0. -1.
</event>
<event>
 7    1  0.2328810E-008  0.4614232E+02  0.7816164E-02  0.1320468E+00
        -11   -1    0    0    0    0  0.00000000000E+00  0.00000000000E+00  0.45593999997E+02  0.45594000000E+02  0.51100000000E-03 0.  1.
         11   -1    0    0    0    0 -0.00000000000E+00 -0.00000000000E+00 -0.45593999997E+02  0.45594000000E+02  0.51100000000E-03 0. -1.
    9900012    2    1    2    0    0 -0.89062615450E+01 -0.41649182384E+02 -0.14667570997E+02  0.46142317333E+02  0.99999960990E+01 0.  0.
         12    1    1    2    0    0  0.89062615450E+01  0.41649182384E+02  0.14667570997E+02  0.45045682667E+02  0.00000000000E+00 0. -1.
         11    1    3    3    0    0 -0.29620853585E+01 -0.10571678830E+02 -0.20135183598E+01  0.11161926330E+02  0.51100000000E-03 0. -1.
        -11    1    3    3    0    0 -0.40719947628E+01 -0.27471482910E+02 -0.82118340726E+01  0.28960278550E+02  0.51100000000E-03 0.  1.
         12    1    3    3    0    0 -0.18721814236E+01 -0.36060206440E+01 -0.44422185645E+01  0.60201124527E+01  0.00000000000E+00 0. -1.
</event>
<event>
 7    1  0.2328810E-008  0.4614232E+02  0.7816164E-02  0.1320468E+00
        -11   -1    0    0    0    0  0.00000000000E+00  0.00000000000E+00  0.45593999997E+02  0.45594000000E+02  0.51100000000E-03 0.  1.
         11   -1    0    0    0    0 -0.00000000000E+00 -0.00000000000E+00 -0.45593999997E+02  0.45594000000E+02  0.51100000000E-03 0. -1.
    9900012    2    1    2    0    0  0.29716311090E+02  0.89615901574E+01  0.32645738405E+02  0.46142317866E+02  0.10000000953E+02 0.  0.
         12    1    1    2    0    0 -0.29716311090E+02 -0.89615901574E+01 -0.32645738405E+02  0.45045682134E+02  0.00000000000E+00 0. -1.
         11    1    3    3    0    0  0.24045738196E+02  0.79274392570E+01  0.22345606776E+02  0.33769334624E+02  0.51100000000E-03 0. -1.
        -11    1    3    3    0    0  0.36540636060E+01 -0.55847085912E-02  0.29980917709E+01  0.47266020092E+01  0.51100000000E-03 0.  1.
         12    1    3    3    0    0  0.20165092881E+01  0.10397356090E+01  0.73020398588E+01  0.76463812320E+01  0.00000000000E+00 0. -1.
</event>
<event>
 7    1  0.2328810E-008  0.4614232E+02  0.7816164E-02  0.1320468E+00
        -11   -1    0    0    0    0  0.00000000000E+00  0.00000000000E+00  0.45593999997E+02  0.45594000000E+02  0.51100000000E-03 0.  1.
         11   -1    0    0    0    0 -0.00000000000E+00 -0.00000000000E+00 -0.45593999997E+02  0.45594000000E+02  0.51100000000E-03 0. -1.
    9900012    2    1    2    0    0  0.57921880345E+01  0.34897436197E+02  0.27887862729E+02  0.46142318931E+02  0.10000010670E+02 0.  0.
         12    1    1    2    0    0 -0.57921880345E+01 -0.34897436197E+02 -0.27887862729E+02  0.45045681069E+02  0.00000000000E+00 0. -1.
         11    1    3    3    0    0 -0.95223761903E+00  0.91954560060E+01  0.75742656665E+01  0.11951262205E+02  0.51100000000E-03 0. -1.
        -11    1    3    3    0    0  0.16542036074E+01  0.63281330693E+01  0.91851657929E+01  0.11276033373E+02  0.51100000000E-03 0.  1.
         12    1    3    3    0    0  0.50902220461E+01  0.19373847122E+02  0.11128431270E+02  0.22915023354E+02  0.00000000000E+00 0. -1.
</event>
<event>
 7    1  0.2328810E-008  0.4614232E+02  0.7816164E-02  0.1320468E+00
        -11   -1    0    0    0    0  0.00000000000E+00  0.00000000000E+00  0.45593999997E+02  0.45594000000E+02  0.51100000000E-03 0.  1.
         11   -1    0    0    0    0 -0.00000000000E+00 -0.00000000000E+00 -0.45593999997E+02  0.45594000000E+02  0.51100000000E-03 0. -1.
    9900012    2    1    2    0    0  0.21809260995E+02 -0.16534809056E+02  0.35778062586E+02  0.46142317209E+02  0.99999949696E+01 0.  0.
         12    1    1    2    0    0 -0.21809260995E+02  0.16534809056E+02 -0.35778062586E+02  0.45045682791E+02  0.00000000000E+00 0. -1.
         11    1    3    3    0    0  0.11279540137E+02 -0.72868163608E+01  0.19281613341E+02  0.23496943028E+02  0.51100000000E-03 0.  1.
        -11    1    3    3    0    0  0.16633915462E+01 -0.28438791436E+00  0.60225460814E+01  0.62545031366E+01  0.51100000000E-03 0. -1.
         12    1    3    3    0    0  0.88663293112E+01 -0.89636047804E+01  0.10473903164E+02  0.16390871045E+02  0.00000000000E+00 0. -1.
</event>
<event>
 7    1  0.2328810E-008  0.4614232E+02  0.7816164E-02  0.1320468E+00
        -11   -1    0    0    0    0  0.00000000000E+00  0.00000000000E+00  0.45593999997E+02  0.45594000000E+02  0.51100000000E-03 0.  1.
         11   -1    0    0    0    0 -0.00000000000E+00 -0.00000000000E+00 -0.45593999997E+02  0.45594000000E+02  0.51100000000E-03 0. -1.
    9900012    2    1    2    0    0  0.32069533111E+02 -0.15173606215E+02  0.27756444966E+02  0.46142317447E+02  0.99999971316E+01 0.  0.
         12    1    1    2    0    0 -0.32069533111E+02  0.15173606215E+02 -0.27756444966E+02  0.45045682553E+02  0.00000000000E+00 0. -1.
         11    1    3    3    0    0  0.85863778971E+01 -0.55974377700E+01  0.13731032188E+02  0.17134714477E+02  0.51100000000E-03 0. -1.
        -11    1    3    3    0    0  0.16602944559E+02 -0.64561106174E+01  0.10406850635E+02  0.20631085108E+02  0.51100000000E-03 0.  1.
         12    1    3    3    0    0  0.68802106557E+01 -0.31200578277E+01  0.36185621428E+01  0.83765178622E+01  0.00000000000E+00 0. -1.
</event>
<event>
 7    1  0.2328810E-008  0.4614232E+02  0.7816164E-02  0.1320468E+00
        -11   -1    0    0    0    0  0.00000000000E+00  0.00000000000E+00  0.45593999997E+02  0.45594000000E+02  0.51100000000E-03 0.  1.
         11   -1    0    0    0    0 -0.00000000000E+00 -0.00000000000E+00 -0.45593999997E+02  0.45594000000E+02  0.51100000000E-03 0. -1.
    9900012    2    1    2    0    0 -0.31484909905E+02 -0.13089460861E+01  0.32188517185E+02  0.46142317297E+02  0.99999957721E+01 0.  0.
         12    1    1    2    0    0  0.31484909905E+02  0.13089460861E+01 -0.32188517185E+02  0.45045682703E+02  0.00000000000E+00 0. -1.
         11    1    3    3    0    0 -0.55343219899E+01 -0.32338029242E+00  0.96695531747E+01  0.11146010657E+02  0.51100000000E-03 0. -1.
        -11    1    3    3    0    0 -0.19958473165E+02  0.97592217644E+00  0.19798035319E+02  0.28129260174E+02  0.51100000000E-03 0.  1.
         12    1    3    3    0    0 -0.59921147500E+01 -0.19614879701E+01  0.27209286909E+01  0.68670464667E+01  0.00000000000E+00 0. -1.
</event>
<event>
 7    1  0.2328810E-008  0.4614232E+02  0.7816164E-02  0.1320468E+00
        -11   -1    0    0    0    0  0.00000000000E+00  0.00000000000E+00  0.45593999997E+02  0.45594000000E+02  0.51100000000E-03 0. -1.
         11   -1    0    0    0    0 -0.00000000000E+00 -0.00000000000E+00 -0.45593999997E+02  0.45594000000E+02  0.51100000000E-03 0.  1.
    9900012    2    1    2    0    0  0.15043498368E+02  0.42421304337E+02  0.17998668682E+01  0.46142318458E+02  0.10000006358E+02 0.  0.
         12    1    1    2    0    0 -0.15043498368E+02 -0.42421304337E+02 -0.17998668682E+01  0.45045681542E+02  0.00000000000E+00 0. -1.
         11    1    3    3    0    0  0.27279864938E+01  0.69984450647E+01  0.23038926356E+01  0.78567210190E+01  0.51100000000E-03 0. -1.
        -11    1    3    3    0    0  0.23186395052E+01  0.28338675711E+01 -0.19862089242E+01  0.41655636734E+01  0.51100000000E-03 0.  1.
        -12    1    3    3    0    0  0.99968723685E+01  0.32588991702E+02  0.14821831568E+01  0.34120033766E+02  0.00000000000E+00 0.  1.
</event>
<event>
 7    1  0.2328810E-008  0.4614232E+02  0.7816164E-02  0.1320468E+00
        -11   -1    0    0    0    0  0.00000000000E+00  0.00000000000E+00  0.45593999997E+02  0.45594000000E+02  0.51100000000E-03 0.  1.
         11   -1    0    0    0    0 -0.00000000000E+00 -0.00000000000E+00 -0.45593999997E+02  0.45594000000E+02  0.51100000000E-03 0. -1.
    9900012    2    1    2    0    0  0.21052994245E+02 -0.34371664208E+02  0.20111528840E+02  0.46142318083E+02  0.10000002936E+02 0.  0.
         12    1    1    2    0    0 -0.21052994245E+02  0.34371664208E+02 -0.20111528840E+02  0.45045681917E+02  0.00000000000E+00 0. -1.
         11    1    3    3    0    0  0.54425995618E+01 -0.11648057728E+02  0.96759519252E+01  0.16091090229E+02  0.51100000000E-03 0.  1.
        -11    1    3    3    0    0  0.10139330954E+02 -0.17987018036E+02  0.57626379228E+01  0.21437043782E+02  0.51100000000E-03 0. -1.
        -12    1    3    3    0    0  0.54710637291E+01 -0.47365884439E+01  0.46729389917E+01  0.86141840725E+01  0.00000000000E+00 0.  1.
</event>
<event>
 7    1  0.2328810E-008  0.4614232E+02  0.7816164E-02  0.1320468E+00
        -11   -1    0    0    0    0  0.00000000000E+00  0.00000000000E+00  0.45593999997E+02  0.45594000000E+02  0.51100000000E-03 0. -1.
         11   -1    0    0    0    0 -0.00000000000E+00 -0.00000000000E+00 -0.45593999997E+02  0.45594000000E+02  0.51100000000E-03 0.  1.
    9900012    2    1    2    0    0 -0.22710282574E+02  0.33757076431E+02 -0.19334330931E+02  0.46142317673E+02  0.99999991970E+01 0.  0.
         12    1    1    2    0    0  0.22710282574E+02 -0.33757076431E+02  0.19334330931E+02  0.45045682327E+02  0.00000000000E+00 0. -1.
         11    1    3    3    0    0 -0.17928194198E+01  0.22834274850E+01 -0.48493387753E+01  0.56519314725E+01  0.51100000000E-03 0. -1.
        -11    1    3    3    0    0 -0.11943762325E+02  0.16873051158E+02 -0.80184062418E+01  0.22173140345E+02  0.51100000000E-03 0.  1.
         12    1    3    3    0    0 -0.89737008287E+01  0.14600597788E+02 -0.64665859142E+01  0.18317245855E+02  0.00000000000E+00 0. -1.
</event>
<event>
 7    1  0.2328810E-008  0.4614232E+02  0.7816164E-02  0.1320468E+00
        -11   -1    0    0    0    0  0.00000000000E+00  0.00000000000E+00  0.45593999997E+02  0.45594000000E+02  0.51100000000E-03 0.  1.
         11   -1    0    0    0    0 -0.00000000000E+00 -0.00000000000E+00 -0.45593999997E+02  0.45594000000E+02  0.51100000000E-03 0. -1.
    9900012    2    1    2    0    0  0.25567331553E+02 -0.21859584277E+02  0.29959698135E+02  0.46142318966E+02  0.10000010987E+02 0.  0.
         12    1    1    2    0    0 -0.25567331553E+02  0.21859584277E+02 -0.29959698135E+02  0.45045681034E+02  0.00000000000E+00 0. -1.
         11    1    3    3    0    0  0.25562667675E+01 -0.15437588194E+01 -0.10350174180E+00  0.29880434988E+01  0.51100000000E-03 0. -1.
        -11    1    3    3    0    0  0.73856593225E+01 -0.46042226002E+01  0.69773083396E+01  0.11154804405E+02  0.51100000000E-03 0.  1.
        -12    1    3    3    0    0  0.15625405462E+02 -0.15711602857E+02  0.23085891537E+02  0.31999471063E+02  0.00000000000E+00 0.  1.
</event>
<event>
 7    1  0.2328810E-008  0.4614232E+02  0.7816164E-02  0.1320468E+00
        -11   -1    0    0    0    0  0.00000000000E+00  0.00000000000E+00  0.45593999997E+02  0.45594000000E+02  0.51100000000E-03 0. -1.
         11   -1    0    0    0    0 -0.00000000000E+00 -0.00000000000E+00 -0.45593999997E+02  0.45594000000E+02  0.51100000000E-03 0.  1.
    9900012    2    1    2    0    0  0.23002462353E+02 -0.13588232159E+02 -0.36267893819E+02  0.46142318192E+02  0.10000003928E+02 0.  0.
         12    1    1    2    0    0 -0.23002462353E+02  0.13588232159E+02  0.36267893819E+02  0.45045681808E+02  0.00000000000E+00 0. -1.
         11    1    3    3    0    0 -0.69040879719E+00  0.37636137332E+00 -0.18425584430E+01  0.20033307434E+01  0.51100000000E-03 0. -1.
        -11    1    3    3    0    0  0.10311824639E+02 -0.60708513984E+01 -0.12934942400E+02  0.17621058403E+02  0.51100000000E-03 0.  1.
        -12    1    3    3    0    0  0.13381046511E+02 -0.78937421337E+01 -0.21490392976E+02  0.26517929046E+02  0.00000000000E+00 0.  1.
</event>
<event>
 7    1  0.2328810E-008  0.4614232E+02  0.7816164E-02  0.1320468E+00
        -11   -1    0    0    0    0  0.00000000000E+00  0.00000000000E+00  0.45593999997E+02  0.45594000000E+02  0.51100000000E-03 0.  1.
         11   -1    0    0    0    0 -0.00000000000E+00 -0.00000000000E+00 -0.45593999997E+02  0.45594000000E+02  0.51100000000E-03 0. -1.
    9900012    2    1    2    0    0  0.33420407590E+02 -0.18132150586E+02 -0.24153984374E+02  0.46142317749E+02  0.99999998902E+01 0.  0.
         12    1    1    2    0    0 -0.33420407590E+02  0.18132150586E+02  0.24153984374E+02  0.45045682251E+02  0.00000000000E+00 0. -1.
         11    1    3    3    0    0  0.19358707285E+01  0.66603552780E+00 -0.27257224467E+01  0.34089238653E+01  0.51100000000E-03 0. -1.
        -11    1    3    3    0    0  0.27300130582E+02 -0.14368929868E+02 -0.17257850370E+02  0.35349634722E+02  0.51100000000E-03 0.  1.
         12    1    3    3    0    0  0.41844062793E+01 -0.44292562462E+01 -0.41704115567E+01  0.73837591616E+01  0.00000000000E+00 0. -1.
</event>
<event>
 7    1  0.2328810E-008  0.4614232E+02  0.7816164E-02  0.1320468E+00
        -11   -1    0    0    0    0  0.00000000000E+00  0.00000000000E+00  0.45593999997E+02  0.45594000000E+02  0.51100000000E-03 0.  1.
         11   -1    0    0    0    0 -0.00000000000E+00 -0.00000000000E+00 -0.45593999997E+02  0.45594000000E+02  0.51100000000E-03 0. -1.
    9900012    2    1    2    0    0 -0.36841627127E+02 -0.25731608019E+02  0.31132430512E+01  0.46142318488E+02  0.10000006629E+02 0.  0.
         12    1    1    2    0    0  0.36841627127E+02  0.25731608019E+02 -0.31132430512E+01  0.45045681512E+02  0.00000000000E+00 0. -1.
         11    1    3    3    0    0 -0.59112827061E+01 -0.24651014783E+01  0.80839535263E-01  0.64051950651E+01  0.51100000000E-03 0. -1.
        -11    1    3    3    0    0 -0.14649549580E+02 -0.11859908864E+02 -0.27171290236E+01  0.19043359250E+02  0.51100000000E-03 0.  1.
        -12    1    3    3    0    0 -0.16280794841E+02 -0.11406597677E+02  0.57495325396E+01  0.20693764173E+02  0.00000000000E+00 0.  1.
</event>
<event>
 7    1  0.2569048E-008  0.4614232E+02  0.7816164E-02  0.1320468E+00
        -11   -1    0    0    0    0  0.00000000000E+00  0.00000000000E+00  0.45593999997E+02  0.45594000000E+02  0.51100000000E-03 0. -1.
         11   -1    0    0    0    0 -0.00000000000E+00 -0.00000000000E+00 -0.45593999997E+02  0.45594000000E+02  0.51100000000E-03 0.  1.
    9900012    2    1    2    0    0  0.10887884321E+02  0.73223406301E+01 -0.43092352528E+02  0.46142317147E+02  0.99999943977E+01 0.  0.
         12    1    1    2    0    0 -0.10887884321E+02 -0.73223406301E+01  0.43092352528E+02  0.45045682853E+02  0.00000000000E+00 0. -1.
         11    1    3    3    0    0  0.18656471671E+01 -0.19596948004E+01 -0.56958232826E+01  0.63058263686E+01  0.51100000000E-03 0. -1.
        -11    1    3    3    0    0 -0.43799067819E+00  0.40568104311E+00 -0.73144860023E+00  0.94415584456E+00  0.51100000000E-03 0.  1.
        -12    1    3    3    0    0  0.94602278320E+01  0.88763543875E+01 -0.36665080645E+02  0.38892334934E+02  0.00000000000E+00 0.  1.
</event>
<event>
 7    1  0.2328810E-008  0.4614233E+02  0.7816164E-02  0.1320468E+00
        -11   -1    0    0    0    0  0.00000000000E+00  0.00000000000E+00  0.45593999997E+02  0.45594000000E+02  0.51100000000E-03 0. -1.
         11   -1    0    0    0    0 -0.00000000000E+00 -0.00000000000E+00 -0.45593999997E+02  0.45594000000E+02  0.51100000000E-03 0.  1.
    9900012    2    1    2    0    0 -0.76867962689E+01 -0.37743686141E+02  0.23354651638E+02  0.46142329470E+02  0.10000106774E+02 0.  0.
         12    1    1    2    0    0  0.76867962689E+01  0.37743686141E+02 -0.23354651638E+02  0.45045670530E+02  0.00000000000E+00 0. -1.
         11    1    3    3    0    0 -0.13500662882E+01 -0.78715426503E+01  0.90084665759E+00  0.80371255831E+01  0.51100000000E-03 0. -1.
        -11    1    3    3    0    0 -0.24175073417E+01 -0.14780942062E+02  0.87428414382E+01  0.17342372002E+02  0.51100000000E-03 0.  1.
        -12    1    3    3    0    0 -0.39192226391E+01 -0.15091201428E+02  0.13710963542E+02  0.20762831885E+02  0.00000000000E+00 0.  1.
</event>
<event>
 7    1  0.2328810E-008  0.4614232E+02  0.7816164E-02  0.1320468E+00
        -11   -1    0    0    0    0  0.00000000000E+00  0.00000000000E+00  0.45593999997E+02  0.45594000000E+02  0.51100000000E-03 0.  1.
         11   -1    0    0    0    0 -0.00000000000E+00 -0.00000000000E+00 -0.45593999997E+02  0.45594000000E+02  0.51100000000E-03 0. -1.
    9900012    2    1    2    0    0  0.25210823804E+02 -0.32572596405E+02  0.18236059992E+02  0.46142316994E+02  0.99999930059E+01 0.  0.
         12    1    1    2    0    0 -0.25210823804E+02  0.32572596405E+02 -0.18236059992E+02  0.45045683006E+02  0.00000000000E+00 0. -1.
         11    1    3    3    0    0  0.16988930459E+02 -0.18342678509E+02  0.12837931818E+02  0.28104983662E+02  0.51100000000E-03 0. -1.
        -11    1    3    3    0    0  0.66483473615E+01 -0.70693232566E+01  0.43371094678E+01  0.10629504821E+02  0.51100000000E-03 0.  1.
         12    1    3    3    0    0  0.15735459839E+01 -0.71605946398E+01  0.10610187062E+01  0.74078285114E+01  0.00000000000E+00 0. -1.
</event>
<event>
 7    1  0.2328810E-008  0.4614232E+02  0.7816164E-02  0.1320468E+00
        -11   -1    0    0    0    0  0.00000000000E+00  0.00000000000E+00  0.45593999997E+02  0.45594000000E+02  0.51100000000E-03 0.  1.
         11   -1    0    0    0    0 -0.00000000000E+00 -0.00000000000E+00 -0.45593999997E+02  0.45594000000E+02  0.51100000000E-03 0. -1.
    9900012    2    1    2    0    0 -0.34360443629E+02  0.28664319578E+02  0.51797865336E+01  0.46142317723E+02  0.99999996536E+01 0.  0.
         12    1    1    2    0    0  0.34360443629E+02 -0.28664319578E+02 -0.51797865336E+01  0.45045682277E+02  0.00000000000E+00 0. -1.
         11    1    3    3    0    0 -0.18615107012E+01  0.26205339550E+01 -0.11284479265E+01  0.34067308793E+01  0.51100000000E-03 0. -1.
        -11    1    3    3    0    0 -0.15339597295E+02  0.11963320163E+02 -0.67884271547E+00  0.19464971158E+02  0.51100000000E-03 0.  1.
        -12    1    3    3    0    0 -0.17159335633E+02  0.14080465460E+02  0.69870771756E+01  0.23270615686E+02  0.00000000000E+00 0.  1.
</event>
<event>
 7    1  0.2328810E-008  0.4614232E+02  0.7816164E-02  0.1320468E+00
        -11   -1    0    0    0    0  0.00000000000E+00  0.00000000000E+00  0.45593999997E+02  0.45594000000E+02  0.51100000000E-03 0. -1.
         11   -1    0    0    0    0 -0.00000000000E+00 -0.00000000000E+00 -0.45593999997E+02  0.45594000000E+02  0.51100000000E-03 0.  1.
    9900012    2    1    2    0    0 -0.19372786823E+02 -0.37380596842E+02 -0.16015604923E+02  0.46142317736E+02  0.99999997752E+01 0.  0.
         12    1    1    2    0    0  0.19372786823E+02  0.37380596842E+02  0.16015604923E+02  0.45045682264E+02  0.00000000000E+00 0. -1.
         11    1    3    3    0    0 -0.27057830759E+01 -0.32314758317E+01 -0.12105410812E+01  0.43851006916E+01  0.51100000000E-03 0. -1.
        -11    1    3    3    0    0 -0.63976381801E+01 -0.49962510637E+01 -0.36037603105E+01  0.88814068486E+01  0.51100000000E-03 0.  1.
         12    1    3    3    0    0 -0.10269365567E+02 -0.29152869946E+02 -0.11201303531E+02  0.32875810196E+02  0.00000000000E+00 0. -1.
</event>
<event>
 7    1  0.2328810E-008  0.4614232E+02  0.7816164E-02  0.1320468E+00
        -11   -1    0    0    0    0  0.00000000000E+00  0.00000000000E+00  0.45593999997E+02  0.45594000000E+02  0.51100000000E-03 0.  1.
         11   -1    0    0    0    0 -0.00000000000E+00 -0.00000000000E+00 -0.45593999997E+02  0.45594000000E+02  0.51100000000E-03 0. -1.
    9900012    2    1    2    0    0 -0.31093711292E+02 -0.32504169504E+02 -0.24027997268E+01  0.46142319146E+02  0.10000012628E+02 0.  0.
         12    1    1    2    0    0  0.31093711292E+02  0.32504169504E+02  0.24027997268E+01  0.45045680854E+02  0.00000000000E+00 0. -1.
         11    1    3    3    0    0 -0.15807694903E+02 -0.16244172863E+02 -0.13897212838E+01  0.22708758127E+02  0.51100000000E-03 0. -1.
        -11    1    3    3    0    0 -0.12265527088E+02 -0.86475473421E+01  0.86086122518E+00  0.15032109369E+02  0.51100000000E-03 0.  1.
         12    1    3    3    0    0 -0.30204893016E+01 -0.76124492983E+01 -0.18739396682E+01  0.84014516496E+01  0.00000000000E+00 0. -1.
</event>
<event>
 7    1  0.2328810E-008  0.4614232E+02  0.7816164E-02  0.1320468E+00
        -11   -1    0    0    0    0  0.00000000000E+00  0.00000000000E+00  0.45593999997E+02  0.45594000000E+02  0.51100000000E-03 0.  1.
         11   -1    0    0    0    0 -0.00000000000E+00 -0.00000000000E+00 -0.45593999997E+02  0.45594000000E+02  0.51100000000E-03 0. -1.
    9900012    2    1    2    0    0 -0.37151411727E+02 -0.16086850715E+02  0.19750932542E+02  0.46142317682E+02  0.99999992756E+01 0.  0.
         12    1    1    2    0    0  0.37151411727E+02  0.16086850715E+02 -0.19750932542E+02  0.45045682318E+02  0.00000000000E+00 0. -1.
         11    1    3    3    0    0 -0.64935555677E+01  0.42909654393E-01  0.45278087062E+01  0.79163853551E+01  0.51100000000E-03 0. -1.
        -11    1    3    3    0    0 -0.10268276939E+02 -0.52872200299E+01  0.79246382448E+01  0.14006858981E+02  0.51100000000E-03 0.  1.
         12    1    3    3    0    0 -0.20389579220E+02 -0.10842540340E+02  0.72984855915E+01  0.24219073346E+02  0.00000000000E+00 0. -1.
</event>
<event>
 7    1  0.2328810E-008  0.4614232E+02  0.7816164E-02  0.1320468E+00
        -11   -1    0    0    0    0  0.00000000000E+00  0.00000000000E+00  0.45593999997E+02  0.45594000000E+02  0.51100000000E-03 0.  1.
         11   -1    0    0    0    0 -0.00000000000E+00 -0.00000000000E+00 -0.45593999997E+02  0.45594000000E+02  0.51100000000E-03 0. -1.
    9900012    2    1    2    0    0 -0.65533253819E-01  0.45028288734E+02  0.12499056242E+01  0.46142319353E+02  0.10000014517E+02 0.  0.
         12    1    1    2    0    0  0.65533253819E-01 -0.45028288734E+02 -0.12499056242E+01  0.45045680647E+02  0.00000000000E+00 0. -1.
         11    1    3    3    0    0  0.61637953675E+00  0.17161507950E+00 -0.68555038473E+00  0.93773933476E+00  0.51100000000E-03 0. -1.
        -11    1    3    3    0    0  0.45125153280E+00  0.42295177137E+02  0.23988597018E+01  0.42365553993E+02  0.51100000000E-03 0.  1.
         12    1    3    3    0    0 -0.11331643234E+01  0.25614965172E+01 -0.46340369281E+00  0.28390260256E+01  0.00000000000E+00 0. -1.
</event>
<event>
 7    1  0.2328810E-008  0.4614232E+02  0.7816164E-02  0.1320468E+00
        -11   -1    0    0    0    0  0.00000000000E+00  0.00000000000E+00  0.45593999997E+02  0.45594000000E+02  0.51100000000E-03 0.  1.
         11   -1    0    0    0    0 -0.00000000000E+00 -0.00000000000E+00 -0.45593999997E+02  0.45594000000E+02  0.51100000000E-03 0. -1.
    9900012    2    1    2    0    0 -0.10475152861E+02  0.37516214470E+01  0.43649856992E+02  0.46142317562E+02  0.99999981800E+01 0.  0.
         12    1    1    2    0    0  0.10475152861E+02 -0.37516214470E+01 -0.43649856992E+02  0.45045682438E+02  0.00000000000E+00 0. -1.
         11    1    3    3    0    0 -0.99448374808E+00 -0.14092634043E-01  0.18362318363E+02  0.18389234146E+02  0.51100000000E-03 0. -1.
        -11    1    3    3    0    0 -0.96211183211E+01  0.22076642553E+01  0.21872624225E+02  0.23996903758E+02  0.51100000000E-03 0.  1.
        -12    1    3    3    0    0  0.14044920846E+00  0.15580498258E+01  0.34149144031E+01  0.37561796576E+01  0.00000000000E+00 0.  1.
</event>
<event>
 7    1  0.2328810E-008  0.4614231E+02  0.7816164E-02  0.1320468E+00
        -11   -1    0    0    0    0  0.00000000000E+00  0.00000000000E+00  0.45593999997E+02  0.45594000000E+02  0.51100000000E-03 0.  1.
         11   -1    0    0    0    0 -0.00000000000E+00 -0.00000000000E+00 -0.45593999997E+02  0.45594000000E+02  0.51100000000E-03 0. -1.
    9900012    2    1    2    0    0  0.21562305758E+02 -0.10496457328E+01  0.39535794429E+02  0.46142314004E+02  0.99999657395E+01 0.  0.
         12    1    1    2    0    0 -0.21562305758E+02  0.10496457328E+01 -0.39535794429E+02  0.45045685996E+02  0.00000000000E+00 0. -1.
         11    1    3    3    0    0  0.55164076851E+00  0.62225217196E+00  0.31012474587E+01  0.32108007357E+01  0.51100000000E-03 0. -1.
        -11    1    3    3    0    0  0.17966683466E+02 -0.45184742720E+01  0.30311855018E+02  0.35525017655E+02  0.51100000000E-03 0.  1.
         12    1    3    3    0    0  0.30439815232E+01  0.28465763673E+01  0.61226919516E+01  0.74064956128E+01  0.00000000000E+00 0. -1.
</event>
<event>
 7    1  0.2328810E-008  0.4614232E+02  0.7816164E-02  0.1320468E+00
        -11   -1    0    0    0    0  0.00000000000E+00  0.00000000000E+00  0.45593999997E+02  0.45594000000E+02  0.51100000000E-03 0.  1.
         11   -1    0    0    0    0 -0.00000000000E+00 -0.00000000000E+00 -0.45593999997E+02  0.45594000000E+02  0.51100000000E-03 0. -1.
    9900012    2    1    2    0    0 -0.16801738716E+02 -0.24377866469E+02  0.33949003733E+02  0.46142315946E+02  0.99999834452E+01 0.  0.
         12    1    1    2    0    0  0.16801738716E+02  0.24377866469E+02 -0.33949003733E+02  0.45045684054E+02  0.00000000000E+00 0. -1.
         11    1    3    3    0    0 -0.50016946450E+01 -0.38266758426E+01  0.52170189922E+01  0.81778777658E+01  0.51100000000E-03 0. -1.
        -11    1    3    3    0    0 -0.23377984133E+01 -0.17966025190E+01  0.87618107094E+00  0.30758373759E+01  0.51100000000E-03 0.  1.
        -12    1    3    3    0    0 -0.94622456573E+01 -0.18754588108E+02  0.27855803670E+02  0.34888600804E+02  0.00000000000E+00 0.  1.
</event>
<event>
 7    1  0.2328810E-008  0.4614232E+02  0.7816164E-02  0.1320468E+00
        -11   -1    0    0    0    0  0.00000000000E+00  0.00000000000E+00  0.45593999997E+02  0.45594000000E+02  0.51100000000E-03 0.  1.
         11   -1    0    0    0    0 -0.00000000000E+00 -0.00000000000E+00 -0.45593999997E+02  0.45594000000E+02  0.51100000000E-03 0. -1.
    9900012    2    1    2    0    0  0.48687868245E+01  0.41443588638E+02  0.16965770477E+02  0.46142317719E+02  0.99999996122E+01 0.  0.
         12    1    1    2    0    0 -0.48687868245E+01 -0.41443588638E+02 -0.16965770477E+02  0.45045682281E+02  0.00000000000E+00 0. -1.
         11    1    3    3    0    0  0.19716014724E+01  0.11436926381E+02  0.34807379881E+00  0.11610842047E+02  0.51100000000E-03 0. -1.
        -11    1    3    3    0    0  0.18584067674E+01  0.72420401441E+01  0.43783933058E+01  0.86643608745E+01  0.51100000000E-03 0.  1.
        -12    1    3    3    0    0  0.10387785846E+01  0.22764622112E+02  0.12239303372E+02  0.25867114797E+02  0.00000000000E+00 0.  1.
</event>
<event>
 7    1  0.2328810E-008  0.4614232E+02  0.7816164E-02  0.1320468E+00
        -11   -1    0    0    0    0  0.00000000000E+00  0.00000000000E+00  0.45593999997E+02  0.45594000000E+02  0.51100000000E-03 0.  1.
         11   -1    0    0    0    0 -0.00000000000E+00 -0.00000000000E+00 -0.45593999997E+02  0.45594000000E+02  0.51100000000E-03 0. -1.
    9900012    2    1    2    0    0  0.23137806724E+02 -0.13318769405E+02  0.36281754590E+02  0.46142318358E+02  0.10000005444E+02 0.  0.
         12    1    1    2    0    0 -0.23137806724E+02  0.13318769405E+02 -0.36281754590E+02  0.45045681642E+02  0.00000000000E+00 0. -1.
         11    1    3    3    0    0  0.10812073580E+02 -0.12596387014E+01  0.15985463096E+02  0.19339665339E+02  0.51100000000E-03 0. -1.
        -11    1    3    3    0    0  0.35818180200E+01 -0.36732736809E+01  0.82681504186E+01  0.97306048871E+01  0.51100000000E-03 0.  1.
         12    1    3    3    0    0  0.87439151242E+01 -0.83858570230E+01  0.12028141075E+02  0.17072048132E+02  0.00000000000E+00 0. -1.
</event>
<event>
 7    1  0.2328810E-008  0.4614232E+02  0.7816164E-02  0.1320468E+00
        -11   -1    0    0    0    0  0.00000000000E+00  0.00000000000E+00  0.45593999997E+02  0.45594000000E+02  0.51100000000E-03 0. -1.
         11   -1    0    0    0    0 -0.00000000000E+00 -0.00000000000E+00 -0.45593999997E+02  0.45594000000E+02  0.51100000000E-03 0.  1.
    9900012    2    1    2    0    0  0.44594241570E+02  0.28060592217E+01  0.57090520414E+01  0.46142316247E+02  0.99999861949E+01 0.  0.
         12    1    1    2    0    0 -0.44594241570E+02 -0.28060592217E+01 -0.57090520414E+01  0.45045683753E+02  0.00000000000E+00 0. -1.
         11    1    3    3    0    0  0.57396630250E+01  0.62337781790E+00  0.18646934042E+01  0.60670761737E+01  0.51100000000E-03 0.  1.
        -11    1    3    3    0    0  0.12228842819E+02 -0.27638467516E+01  0.34005910045E+01  0.12990283484E+02  0.51100000000E-03 0. -1.
        -12    1    3    3    0    0  0.26625735726E+02  0.49465281554E+01  0.44376763272E+00  0.27084956590E+02  0.00000000000E+00 0.  1.
</event>
<event>
 7    1  0.2328810E-008  0.4614232E+02  0.7816164E-02  0.1320468E+00
        -11   -1    0    0    0    0  0.00000000000E+00  0.00000000000E+00  0.45593999997E+02  0.45594000000E+02  0.51100000000E-03 0. -1.
         11   -1    0    0    0    0 -0.00000000000E+00 -0.00000000000E+00 -0.45593999997E+02  0.45594000000E+02  0.51100000000E-03 0.  1.
    9900012    2    1    2    0    0  0.18784951584E+02 -0.15307853812E+02 -0.37972472641E+02  0.46142317934E+02  0.10000001578E+02 0.  0.
         12    1    1    2    0    0 -0.18784951584E+02  0.15307853812E+02  0.37972472641E+02  0.45045682066E+02  0.00000000000E+00 0. -1.
         11    1    3    3    0    0  0.89578024470E+01 -0.10398882916E+02 -0.22777598534E+02  0.26593194351E+02  0.51100000000E-03 0. -1.
        -11    1    3    3    0    0  0.44984785956E+00 -0.21852810248E+01 -0.47655126492E+01  0.52619319005E+01  0.51100000000E-03 0.  1.
        -12    1    3    3    0    0  0.93773012772E+01 -0.27236898717E+01 -0.10429361458E+02  0.14287191683E+02  0.00000000000E+00 0.  1.
</event>
<event>
 7    1  0.2328810E-008  0.4614232E+02  0.7816164E-02  0.1320468E+00
        -11   -1    0    0    0    0  0.00000000000E+00  0.00000000000E+00  0.45593999997E+02  0.45594000000E+02  0.51100000000E-03 0.  1.
         11   -1    0    0    0    0 -0.00000000000E+00 -0.00000000000E+00 -0.45593999997E+02  0.45594000000E+02  0.51100000000E-03 0. -1.
    9900012    2    1    2    0    0  0.15049439897E+02 -0.90394921409E+01  0.41483914576E+02  0.46142320652E+02  0.10000026364E+02 0.  0.
         12    1    1    2    0    0 -0.15049439897E+02  0.90394921409E+01 -0.41483914576E+02  0.45045679348E+02  0.00000000000E+00 0. -1.
         11    1    3    3    0    0  0.90543539396E+00 -0.24685736327E+01  0.46995411631E+01  0.53851050535E+01  0.51100000000E-03 0. -1.
        -11    1    3    3    0    0  0.68134457191E+01 -0.68329173960E+01  0.25831785882E+02  0.27575223750E+02  0.51100000000E-03 0.  1.
         12    1    3    3    0    0  0.73305587843E+01  0.26199888772E+00  0.10952587530E+02  0.13181991849E+02  0.00000000000E+00 0. -1.
</event>
<event>
 7    1  0.2328810E-008  0.4614232E+02  0.7816164E-02  0.1320468E+00
        -11   -1    0    0    0    0  0.00000000000E+00  0.00000000000E+00  0.45593999997E+02  0.45594000000E+02  0.51100000000E-03 0.  1.
         11   -1    0    0    0    0 -0.00000000000E+00 -0.00000000000E+00 -0.45593999997E+02  0.45594000000E+02  0.51100000000E-03 0. -1.
    9900012    2    1    2    0    0 -0.64652005555E+01 -0.27380596673E+02  0.35179787540E+02  0.46142319366E+02  0.10000014638E+02 0.  0.
         12    1    1    2    0    0  0.64652005555E+01  0.27380596673E+02 -0.35179787540E+02  0.45045680634E+02  0.00000000000E+00 0. -1.
         11    1    3    3    0    0  0.16305019021E+01 -0.30503235795E+01  0.40943870385E+01  0.53597589381E+01  0.51100000000E-03 0. -1.
        -11    1    3    3    0    0 -0.23443244812E+01 -0.60893259270E+01  0.40988129410E+01  0.77055833851E+01  0.51100000000E-03 0.  1.
         12    1    3    3    0    0 -0.57513779765E+01 -0.18240947167E+02  0.26986587560E+02  0.33076977043E+02  0.00000000000E+00 0. -1.
</event>
<event>
 7    1  0.2328810E-008  0.4614232E+02  0.7816164E-02  0.1320468E+00
        -11   -1    0    0    0    0  0.00000000000E+00  0.00000000000E+00  0.45593999997E+02  0.45594000000E+02  0.51100000000E-03 0.  1.
         11   -1    0    0    0    0 -0.00000000000E+00 -0.00000000000E+00 -0.45593999997E+02  0.45594000000E+02  0.51100000000E-03 0. -1.
    9900012    2    1    2    0    0  0.36760472470E+02 -0.22124852670E+01  0.25940047729E+02  0.46142317594E+02  0.99999984736E+01 0.  0.
         12    1    1    2    0    0 -0.36760472470E+02  0.22124852670E+01 -0.25940047729E+02  0.45045682406E+02  0.00000000000E+00 0. -1.
         11    1    3    3    0    0  0.34695017292E+01  0.13844543636E+01  0.53762016169E+01  0.65465792763E+01  0.51100000000E-03 0. -1.
        -11    1    3    3    0    0  0.27538595509E+02 -0.11830005177E+01  0.16058597981E+02  0.31900663037E+02  0.51100000000E-03 0.  1.
        -12    1    3    3    0    0  0.57523752321E+01 -0.24139391129E+01  0.45052481312E+01  0.76950752807E+01  0.00000000000E+00 0.  1.
</event>
<event>
 7    1  0.2328810E-008  0.4614232E+02  0.7816164E-02  0.1320468E+00
        -11   -1    0    0    0    0  0.00000000000E+00  0.00000000000E+00  0.45593999997E+02  0.45594000000E+02  0.51100000000E-03 0.  1.
         11   -1    0    0    0    0 -0.00000000000E+00 -0.00000000000E+00 -0.45593999997E+02  0.45594000000E+02  0.51100000000E-03 0. -1.
    9900012    2    1    2    0    0 -0.24356980119E+02  0.34360099888E+02  0.15976063771E+02  0.46142316983E+02  0.99999929004E+01 0.  0.
         12    1    1    2    0    0  0.24356980119E+02 -0.34360099888E+02 -0.15976063771E+02  0.45045683017E+02  0.00000000000E+00 0. -1.
         11    1    3    3    0    0 -0.95308230269E+01  0.16429780757E+02  0.58632025533E+01  0.19878416128E+02  0.51100000000E-03 0. -1.
        -11    1    3    3    0    0 -0.65090072035E+01  0.35703527543E+01  0.15257185615E+01  0.75790771837E+01  0.51100000000E-03 0.  1.
        -12    1    3    3    0    0 -0.83171498890E+01  0.14359966377E+02  0.85871426566E+01  0.18684823671E+02  0.00000000000E+00 0.  1.
</event>
<event>
 7    1  0.2328810E-008  0.4614232E+02  0.7816164E-02  0.1320468E+00
        -11   -1    0    0    0    0  0.00000000000E+00  0.00000000000E+00  0.45593999997E+02  0.45594000000E+02  0.51100000000E-03 0.  1.
         11   -1    0    0    0    0 -0.00000000000E+00 -0.00000000000E+00 -0.45593999997E+02  0.45594000000E+02  0.51100000000E-03 0. -1.
    9900012    2    1    2    0    0 -0.26569461657E+02  0.30812833309E+02 -0.19332524304E+02  0.46142317796E+02  0.10000000322E+02 0.  0.
         12    1    1    2    0    0  0.26569461657E+02 -0.30812833309E+02  0.19332524304E+02  0.45045682204E+02  0.00000000000E+00 0. -1.
         11    1    3    3    0    0 -0.10324696962E+01  0.31766311945E+01 -0.21322286731E+01  0.39627488938E+01  0.51100000000E-03 0. -1.
        -11    1    3    3    0    0 -0.14470134932E+02  0.21300781290E+02 -0.11042308266E+02  0.28018577062E+02  0.51100000000E-03 0.  1.
        -12    1    3    3    0    0 -0.11066857029E+02  0.63354208242E+01 -0.61579873647E+01  0.14160991840E+02  0.00000000000E+00 0.  1.
</event>
<event>
 7    1  0.2328810E-008  0.4614232E+02  0.7816164E-02  0.1320468E+00
        -11   -1    0    0    0    0  0.00000000000E+00  0.00000000000E+00  0.45593999997E+02  0.45594000000E+02  0.51100000000E-03 0.  1.
         11   -1    0    0    0    0 -0.00000000000E+00 -0.00000000000E+00 -0.45593999997E+02  0.45594000000E+02  0.51100000000E-03 0. -1.
    9900012    2    1    2    0    0  0.45648341030E+01 -0.39945315749E+02  0.20313726064E+02  0.46142318439E+02  0.10000006183E+02 0.  0.
         12    1    1    2    0    0 -0.45648341030E+01  0.39945315749E+02 -0.20313726064E+02  0.45045681561E+02  0.00000000000E+00 0. -1.
         11    1    3    3    0    0  0.93777991323E+00 -0.87630067004E+01  0.45793830773E+01  0.99317907362E+01  0.51100000000E-03 0.  1.
        -11    1    3    3    0    0  0.12278553915E+01 -0.30081600082E+01 -0.94226772827E+00  0.33829756473E+01  0.51100000000E-03 0. -1.
         12    1    3    3    0    0  0.23991987982E+01 -0.28174149040E+02  0.16676610715E+02  0.32827552056E+02  0.00000000000E+00 0. -1.
</event>
<event>
 7    1  0.2328810E-008  0.4614232E+02  0.7816164E-02  0.1320468E+00
        -11   -1    0    0    0    0  0.00000000000E+00  0.00000000000E+00  0.45593999997E+02  0.45594000000E+02  0.51100000000E-03 0. -1.
         11   -1    0    0    0    0 -0.00000000000E+00 -0.00000000000E+00 -0.45593999997E+02  0.45594000000E+02  0.51100000000E-03 0.  1.
    9900012    2    1    2    0    0 -0.42364595158E+01 -0.36089495102E+02 -0.26621688666E+02  0.46142317040E+02  0.99999934241E+01 0.  0.
         12    1    1    2    0    0  0.42364595158E+01  0.36089495102E+02  0.26621688666E+02  0.45045682960E+02  0.00000000000E+00 0. -1.
         11    1    3    3    0    0  0.12474615143E+00 -0.23263464006E+00  0.26326157516E+00  0.37281013416E+00  0.51100000000E-03 0. -1.
        -11    1    3    3    0    0 -0.11747071372E+01 -0.17841500378E+01 -0.42002490756E+01  0.47122415870E+01  0.51100000000E-03 0.  1.
        -12    1    3    3    0    0 -0.31864985300E+01 -0.34072710424E+02 -0.22684701165E+02  0.41057265319E+02  0.00000000000E+00 0.  1.
</event>
<event>
 7    1  0.2328810E-008  0.4614231E+02  0.7816164E-02  0.1320468E+00
        -11   -1    0    0    0    0  0.00000000000E+00  0.00000000000E+00  0.45593999997E+02  0.45594000000E+02  0.51100000000E-03 0. -1.
         11   -1    0    0    0    0 -0.00000000000E+00 -0.00000000000E+00 -0.45593999997E+02  0.45594000000E+02  0.51100000000E-03 0.  1.
    9900012    2    1    2    0    0  0.10991365424E+02 -0.43681445099E+02 -0.48519742651E+00  0.46142310124E+02  0.99999303602E+01 0.  0.
         12    1    1    2    0    0 -0.10991365424E+02  0.43681445099E+02  0.48519742651E+00  0.45045689876E+02  0.00000000000E+00 0. -1.
         11    1    3    3    0    0  0.28297880979E+01 -0.13819874782E+02 -0.25121449862E+01  0.14328555836E+02  0.51100000000E-03 0. -1.
        -11    1    3    3    0    0  0.56223346338E+01 -0.27697136065E+02  0.27637136082E+01  0.28396832677E+02  0.51100000000E-03 0.  1.
         12    1    3    3    0    0  0.25392426919E+01 -0.21644342528E+01 -0.73676604856E+00  0.34169216107E+01  0.00000000000E+00 0. -1.
</event>
<event>
 7    1  0.2328810E-008  0.4614232E+02  0.7816164E-02  0.1320468E+00
        -11   -1    0    0    0    0  0.00000000000E+00  0.00000000000E+00  0.45593999997E+02  0.45594000000E+02  0.51100000000E-03 0.  1.
         11   -1    0    0    0    0 -0.00000000000E+00 -0.00000000000E+00 -0.45593999997E+02  0.45594000000E+02  0.51100000000E-03 0. -1.
    9900012    2    1    2    0    0  0.98821649998E+01 -0.34514361185E+02 -0.27206892835E+02  0.46142319510E+02  0.10000015947E+02 0.  0.
         12    1    1    2    0    0 -0.98821649998E+01  0.34514361185E+02  0.27206892835E+02  0.45045680490E+02  0.00000000000E+00 0. -1.
         11    1    3    3    0    0 -0.71286052392E+00 -0.10771103582E+01 -0.13021093099E-01  0.12917068787E+01  0.51100000000E-03 0. -1.
        -11    1    3    3    0    0  0.67728167448E+01 -0.14447272987E+02 -0.92359598711E+01  0.18436314665E+02  0.51100000000E-03 0.  1.
        -12    1    3    3    0    0  0.38222087790E+01 -0.18989977840E+02 -0.17957911871E+02  0.26414297966E+02  0.00000000000E+00 0.  1.
</event>
<event>
 7    1  0.2328810E-008  0.4614232E+02  0.7816164E-02  0.1320468E+00
        -11   -1    0    0    0    0  0.00000000000E+00  0.00000000000E+00  0.45593999997E+02  0.45594000000E+02  0.51100000000E-03 0.  1.
         11   -1    0    0    0    0 -0.00000000000E+00 -0.00000000000E+00 -0.45593999997E+02  0.45594000000E+02  0.51100000000E-03 0. -1.
    9900012    2    1    2    0    0 -0.97056373663E+00 -0.28802437088E+02  0.34620675258E+02  0.46142317282E+02  0.99999956335E+01 0.  0.
         12    1    1    2    0    0  0.97056373663E+00  0.28802437088E+02 -0.34620675258E+02  0.45045682718E+02  0.00000000000E+00 0. -1.
         11    1    3    3    0    0  0.10538904634E+01 -0.16801493346E+01  0.25480801136E+01  0.32289780770E+01  0.51100000000E-03 0.  1.
        -11    1    3    3    0    0  0.30338060449E+00  0.34649531361E+00 -0.17132114064E+00  0.49137560774E+00  0.51100000000E-03 0. -1.
         12    1    3    3    0    0 -0.23278348046E+01 -0.27468783067E+02  0.32243916285E+02  0.42421963597E+02  0.00000000000E+00 0. -1.
</event>
<event>
 7    1  0.2328810E-008  0.4614232E+02  0.7816164E-02  0.1320468E+00
        -11   -1    0    0    0    0  0.00000000000E+00  0.00000000000E+00  0.45593999997E+02  0.45594000000E+02  0.51100000000E-03 0. -1.
         11   -1    0    0    0    0 -0.00000000000E+00 -0.00000000000E+00 -0.45593999997E+02  0.45594000000E+02  0.51100000000E-03 0.  1.
    9900012    2    1    2    0    0  0.34204318748E+02  0.51152617356E+00 -0.29307275143E+02  0.46142318117E+02  0.10000003242E+02 0.  0.
         12    1    1    2    0    0 -0.34204318748E+02 -0.51152617356E+00  0.29307275143E+02  0.45045681883E+02  0.00000000000E+00 0. -1.
         11    1    3    3    0    0  0.12278839893E+02 -0.33752123324E+00 -0.74113717554E+01  0.14346158415E+02  0.51100000000E-03 0. -1.
        -11    1    3    3    0    0  0.17085424107E+02 -0.23603631482E+01 -0.16284548286E+02  0.23720656489E+02  0.51100000000E-03 0.  1.
         12    1    3    3    0    0  0.48400547478E+01  0.32094105550E+01 -0.56113551015E+01  0.80755032132E+01  0.00000000000E+00 0. -1.
</event>
<event>
 7    1  0.2328810E-008  0.4614232E+02  0.7816164E-02  0.1320468E+00
        -11   -1    0    0    0    0  0.00000000000E+00  0.00000000000E+00  0.45593999997E+02  0.45594000000E+02  0.51100000000E-03 0. -1.
         11   -1    0    0    0    0 -0.00000000000E+00 -0.00000000000E+00 -0.45593999997E+02  0.45594000000E+02  0.51100000000E-03 0.  1.
    9900012    2    1    2    0    0 -0.43403898796E+02  0.11619556509E+02 -0.31938981292E+01  0.46142317527E+02  0.99999978677E+01 0.  0.
         12    1    1    2    0    0  0.43403898796E+02 -0.11619556509E+02  0.31938981292E+01  0.45045682473E+02  0.00000000000E+00 0. -1.
         11    1    3    3    0    0 -0.11866300022E+02  0.77134501008E+01 -0.82558401972E+00  0.14177022885E+02  0.51100000000E-03 0. -1.
        -11    1    3    3    0    0 -0.23785265493E+02  0.31624071046E+01 -0.72298150841E+00  0.24005465540E+02  0.51100000000E-03 0.  1.
         12    1    3    3    0    0 -0.77523332817E+01  0.74369930363E+00 -0.16453326011E+01  0.79598291020E+01  0.00000000000E+00 0. -1.
</event>
<event>
 7    1  0.2328810E-008  0.4614232E+02  0.7816164E-02  0.1320468E+00
        -11   -1    0    0    0    0  0.00000000000E+00  0.00000000000E+00  0.45593999997E+02  0.45594000000E+02  0.51100000000E-03 0.  1.
         11   -1    0    0    0    0 -0.00000000000E+00 -0.00000000000E+00 -0.45593999997E+02  0.45594000000E+02  0.51100000000E-03 0. -1.
    9900012    2    1    2    0    0  0.13995780183E+02  0.32572128249E+02  0.27790072776E+02  0.46142317116E+02  0.99999941144E+01 0.  0.
         12    1    1    2    0    0 -0.13995780183E+02 -0.32572128249E+02 -0.27790072776E+02  0.45045682884E+02  0.00000000000E+00 0. -1.
         11    1    3    3    0    0  0.54849526420E+01  0.73295616096E+01  0.33898171228E+01  0.97620714637E+01  0.51100000000E-03 0. -1.
        -11    1    3    3    0    0  0.35259396399E+01  0.57414106102E+01  0.46947956793E+01  0.82120127174E+01  0.51100000000E-03 0.  1.
         12    1    3    3    0    0  0.49848879010E+01  0.19501156029E+02  0.19705459974E+02  0.28168232935E+02  0.00000000000E+00 0. -1.
</event>
<event>
 7    1  0.2328810E-008  0.4614232E+02  0.7816164E-02  0.1320468E+00
        -11   -1    0    0    0    0  0.00000000000E+00  0.00000000000E+00  0.45593999997E+02  0.45594000000E+02  0.51100000000E-03 0.  1.
         11   -1    0    0    0    0 -0.00000000000E+00 -0.00000000000E+00 -0.45593999997E+02  0.45594000000E+02  0.51100000000E-03 0. -1.
    9900012    2    1    2    0    0  0.25363051205E+02  0.20158955064E+02  0.31296095396E+02  0.46142318489E+02  0.10000006641E+02 0.  0.
         12    1    1    2    0    0 -0.25363051205E+02 -0.20158955064E+02 -0.31296095396E+02  0.45045681511E+02  0.00000000000E+00 0. -1.
         11    1    3    3    0    0  0.35304241087E+01  0.43846977718E+00  0.62227011428E+01  0.71678560188E+01  0.51100000000E-03 0. -1.
        -11    1    3    3    0    0  0.10751090393E+02  0.65144526090E+01  0.97401556564E+01  0.15902662353E+02  0.51100000000E-03 0.  1.
        -12    1    3    3    0    0  0.11081536703E+02  0.13206032678E+02  0.15333238597E+02  0.23071800118E+02  0.00000000000E+00 0.  1.
</event>
<event>
 7    1  0.2328810E-008  0.4614232E+02  0.7816164E-02  0.1320468E+00
        -11   -1    0    0    0    0  0.00000000000E+00  0.00000000000E+00  0.45593999997E+02  0.45594000000E+02  0.51100000000E-03 0.  1.
         11   -1    0    0    0    0 -0.00000000000E+00 -0.00000000000E+00 -0.45593999997E+02  0.45594000000E+02  0.51100000000E-03 0. -1.
    9900012    2    1    2    0    0 -0.43869198375E+02 -0.16640779206E+01  0.10091473838E+02  0.46142316904E+02  0.99999921860E+01 0.  0.
         12    1    1    2    0    0  0.43869198375E+02  0.16640779206E+01 -0.10091473838E+02  0.45045683096E+02  0.00000000000E+00 0. -1.
         11    1    3    3    0    0 -0.26452324796E+02  0.28430947500E+00  0.98753841030E+01  0.28237024107E+02  0.51100000000E-03 0.  1.
        -11    1    3    3    0    0 -0.14380093082E+01  0.40672394860E+00  0.89069113915E+00  0.17397201233E+01  0.51100000000E-03 0. -1.
        -12    1    3    3    0    0 -0.15978864270E+02 -0.23551113441E+01 -0.67460140451E+00  0.16165572673E+02  0.00000000000E+00 0.  1.
</event>
<event>
 7    1  0.2328810E-008  0.4614232E+02  0.7816164E-02  0.1320468E+00
        -11   -1    0    0    0    0  0.00000000000E+00  0.00000000000E+00  0.45593999997E+02  0.45594000000E+02  0.51100000000E-03 0.  1.
         11   -1    0    0    0    0 -0.00000000000E+00 -0.00000000000E+00 -0.45593999997E+02  0.45594000000E+02  0.51100000000E-03 0. -1.
    9900012    2    1    2    0    0  0.72130121301E+01 -0.24861862993E+02  0.36864260978E+02  0.46142317489E+02  0.99999975146E+01 0.  0.
         12    1    1    2    0    0 -0.72130121301E+01  0.24861862993E+02 -0.36864260978E+02  0.45045682511E+02  0.00000000000E+00 0. -1.
         11    1    3    3    0    0  0.14774582340E+01 -0.13847049784E+02  0.20909945749E+02  0.25122688990E+02  0.51100000000E-03 0. -1.
        -11    1    3    3    0    0  0.68693327109E+01 -0.89945676754E+01  0.13886334592E+02  0.17914247632E+02  0.51100000000E-03 0.  1.
        -12    1    3    3    0    0 -0.11337788148E+01 -0.20202455332E+01  0.20679806366E+01  0.31053808670E+01  0.00000000000E+00 0.  1.
</event>
<event>
 7    1  0.2328810E-008  0.4614232E+02  0.7816164E-02  0.1320468E+00
        -11   -1    0    0    0    0  0.00000000000E+00  0.00000000000E+00  0.45593999997E+02  0.45594000000E+02  0.51100000000E-03 0. -1.
         11   -1    0    0    0    0 -0.00000000000E+00 -0.00000000000E+00 -0.45593999997E+02  0.45594000000E+02  0.51100000000E-03 0.  1.
    9900012    2    1    2    0    0  0.14170019836E+02 -0.42744598317E+02  0.11059754060E+01  0.46142319530E+02  0.10000016129E+02 0.  0.
         12    1    1    2    0    0 -0.14170019836E+02  0.42744598317E+02 -0.11059754060E+01  0.45045680470E+02  0.00000000000E+00 0. -1.
         11    1    3    3    0    0  0.22475819014E+01 -0.89326588674E+01 -0.34663809785E+01  0.98417384741E+01  0.51100000000E-03 0.  1.
        -11    1    3    3    0    0  0.99102422334E+00 -0.65856080628E+01  0.12234641608E+01  0.67712057554E+01  0.51100000000E-03 0. -1.
         12    1    3    3    0    0  0.10931413711E+02 -0.27226331387E+02  0.33488922237E+01  0.29529375300E+02  0.00000000000E+00 0. -1.
</event>
<event>
 7    1  0.2328810E-008  0.4614232E+02  0.7816164E-02  0.1320468E+00
        -11   -1    0    0    0    0  0.00000000000E+00  0.00000000000E+00  0.45593999997E+02  0.45594000000E+02  0.51100000000E-03 0. -1.
         11   -1    0    0    0    0 -0.00000000000E+00 -0.00000000000E+00 -0.45593999997E+02  0.45594000000E+02  0.51100000000E-03 0.  1.
    9900012    2    1    2    0    0  0.25098351235E+01 -0.29129088785E+02 -0.34268211101E+02  0.46142318988E+02  0.10000011184E+02 0.  0.
         12    1    1    2    0    0 -0.25098351235E+01  0.29129088785E+02  0.34268211101E+02  0.45045681012E+02  0.00000000000E+00 0. -1.
         11    1    3    3    0    0  0.11345663175E-01 -0.18439168645E+01 -0.61989628791E+01  0.64674028145E+01  0.51100000000E-03 0. -1.
        -11    1    3    3    0    0 -0.18342707446E+01 -0.12408055381E+02 -0.12357015256E+02  0.17607390886E+02  0.51100000000E-03 0.  1.
        -12    1    3    3    0    0  0.43327602050E+01 -0.14877116540E+02 -0.15712232966E+02  0.22067525287E+02  0.00000000000E+00 0.  1.
</event>
<event>
 7    1  0.2328810E-008  0.4614232E+02  0.7816164E-02  0.1320468E+00
        -11   -1    0    0    0    0  0.00000000000E+00  0.00000000000E+00  0.45593999997E+02  0.45594000000E+02  0.51100000000E-03 0. -1.
         11   -1    0    0    0    0 -0.00000000000E+00 -0.00000000000E+00 -0.45593999997E+02  0.45594000000E+02  0.51100000000E-03 0.  1.
    9900012    2    1    2    0    0 -0.31739102289E+02  0.68846181332E+01 -0.31214498095E+02  0.46142317940E+02  0.10000001628E+02 0.  0.
         12    1    1    2    0    0  0.31739102289E+02 -0.68846181332E+01  0.31214498095E+02  0.45045682060E+02  0.00000000000E+00 0. -1.
         11    1    3    3    0    0 -0.32529821853E+01 -0.23148371910E+00 -0.15875757856E+01  0.36271028309E+01  0.51100000000E-03 0. -1.
        -11    1    3    3    0    0 -0.67538557850E+01  0.50980244326E+01 -0.10575290214E+02  0.13544046089E+02  0.51100000000E-03 0.  1.
        -12    1    3    3    0    0 -0.21732264319E+02  0.20180774197E+01 -0.19051632095E+02  0.28971169020E+02  0.00000000000E+00 0.  1.
</event>
<event>
 7    1  0.2328810E-008  0.4614231E+02  0.7816164E-02  0.1320468E+00
        -11   -1    0    0    0    0  0.00000000000E+00  0.00000000000E+00  0.45593999997E+02  0.45594000000E+02  0.51100000000E-03 0. -1.
         11   -1    0    0    0    0 -0.00000000000E+00 -0.00000000000E+00 -0.45593999997E+02  0.45594000000E+02  0.51100000000E-03 0.  1.
    9900012    2    1    2    0    0  0.33333227896E+02  0.31612006511E+01 -0.30133319005E+02  0.46142310020E+02  0.99999294096E+01 0.  0.
         12    1    1    2    0    0 -0.33333227896E+02 -0.31612006511E+01  0.30133319005E+02  0.45045689980E+02  0.00000000000E+00 0. -1.
         11    1    3    3    0    0  0.24157954562E+01  0.85700254089E+00 -0.82386576135E+00  0.26924479744E+01  0.51100000000E-03 0. -1.
        -11    1    3    3    0    0  0.30153199335E+02  0.29738246591E+01 -0.25798218850E+02  0.39794561932E+02  0.51100000000E-03 0.  1.
        -12    1    3    3    0    0  0.76423310426E+00 -0.66962654890E+00 -0.35112343934E+01  0.36553001133E+01  0.00000000000E+00 0.  1.
</event>
<event>
 7    1  0.2328810E-008  0.4614232E+02  0.7816164E-02  0.1320468E+00
        -11   -1    0    0    0    0  0.00000000000E+00  0.00000000000E+00  0.45593999997E+02  0.45594000000E+02  0.51100000000E-03 0.  1.
         11   -1    0    0    0    0 -0.00000000000E+00 -0.00000000000E+00 -0.45593999997E+02  0.45594000000E+02  0.51100000000E-03 0. -1.
    9900012    2    1    2    0    0  0.33896174642E+02 -0.27629819400E+02  0.10805353609E+02  0.46142320496E+02  0.10000024935E+02 0.  0.
         12    1    1    2    0    0 -0.33896174642E+02  0.27629819400E+02 -0.10805353609E+02  0.45045679504E+02  0.00000000000E+00 0. -1.
         11    1    3    3    0    0  0.19247883848E+02 -0.15554033649E+02  0.14180692611E+01  0.24787495155E+02  0.51100000000E-03 0. -1.
        -11    1    3    3    0    0  0.37114797637E+01 -0.46789952698E+01  0.31586377899E+01  0.67561136550E+01  0.51100000000E-03 0.  1.
         12    1    3    3    0    0  0.10936811030E+02 -0.73967904812E+01  0.62286465580E+01  0.14598711686E+02  0.00000000000E+00 0. -1.
</event>
<event>
 7    1  0.2328810E-008  0.4614232E+02  0.7816164E-02  0.1320468E+00
        -11   -1    0    0    0    0  0.00000000000E+00  0.00000000000E+00  0.45593999997E+02  0.45594000000E+02  0.51100000000E-03 0.  1.
         11   -1    0    0    0    0 -0.00000000000E+00 -0.00000000000E+00 -0.45593999997E+02  0.45594000000E+02  0.51100000000E-03 0. -1.
    9900012    2    1    2    0    0 -0.33231296723E+02 -0.28870332488E+01  0.30273071744E+02  0.46142324117E+02  0.10000057962E+02 0.  0.
         12    1    1    2    0    0  0.33231296723E+02  0.28870332488E+01 -0.30273071744E+02  0.45045675883E+02  0.00000000000E+00 0. -1.
         11    1    3    3    0    0 -0.23688150179E+02 -0.17743883294E+01  0.15505712259E+02  0.28367305578E+02  0.51100000000E-03 0. -1.
        -11    1    3    3    0    0 -0.82090885156E+01 -0.17721541894E+01  0.12300113392E+02  0.14893705195E+02  0.51100000000E-03 0.  1.
         12    1    3    3    0    0 -0.13340580284E+01  0.65950926994E+00  0.24672460934E+01  0.28813133439E+01  0.00000000000E+00 0. -1.
</event>
<event>
 7    1  0.2328810E-008  0.4614232E+02  0.7816164E-02  0.1320468E+00
        -11   -1    0    0    0    0  0.00000000000E+00  0.00000000000E+00  0.45593999997E+02  0.45594000000E+02  0.51100000000E-03 0. -1.
         11   -1    0    0    0    0 -0.00000000000E+00 -0.00000000000E+00 -0.45593999997E+02  0.45594000000E+02  0.51100000000E-03 0.  1.
    9900012    2    1    2    0    0  0.18033858843E+02 -0.17558168465E+02 -0.37357785019E+02  0.46142318230E+02  0.10000004277E+02 0.  0.
         12    1    1    2    0    0 -0.18033858843E+02  0.17558168465E+02  0.37357785019E+02  0.45045681770E+02  0.00000000000E+00 0. -1.
         11    1    3    3    0    0  0.49279524321E+01 -0.74329680433E+01 -0.12069395975E+02  0.15006800077E+02  0.51100000000E-03 0. -1.
        -11    1    3    3    0    0  0.10290297856E+02 -0.95342375227E+01 -0.24363483776E+02  0.28113542236E+02  0.51100000000E-03 0.  1.
         12    1    3    3    0    0  0.28156085556E+01 -0.59096289864E+00 -0.92490526777E+00  0.30219759165E+01  0.00000000000E+00 0. -1.
</event>
<event>
 7    1  0.2328810E-008  0.4614232E+02  0.7816164E-02  0.1320468E+00
        -11   -1    0    0    0    0  0.00000000000E+00  0.00000000000E+00  0.45593999997E+02  0.45594000000E+02  0.51100000000E-03 0.  1.
         11   -1    0    0    0    0 -0.00000000000E+00 -0.00000000000E+00 -0.45593999997E+02  0.45594000000E+02  0.51100000000E-03 0. -1.
    9900012    2    1    2    0    0  0.22220755899E+02 -0.10128918387E+02  0.37851769278E+02  0.46142318543E+02  0.10000007127E+02 0.  0.
         12    1    1    2    0    0 -0.22220755899E+02  0.10128918387E+02 -0.37851769278E+02  0.45045681457E+02  0.00000000000E+00 0. -1.
         11    1    3    3    0    0  0.37821245317E+01 -0.94320736204E+00  0.19540389274E+01  0.43603181641E+01  0.51100000000E-03 0. -1.
        -11    1    3    3    0    0  0.54844730130E+00 -0.66442627825E+00  0.10222416382E+00  0.86758674628E+00  0.51100000000E-03 0.  1.
        -12    1    3    3    0    0  0.17890184066E+02 -0.85212847471E+01  0.35795506187E+02  0.40914413632E+02  0.00000000000E+00 0.  1.
</event>
<event>
 7    1  0.2328810E-008  0.4614232E+02  0.7816164E-02  0.1320468E+00
        -11   -1    0    0    0    0  0.00000000000E+00  0.00000000000E+00  0.45593999997E+02  0.45594000000E+02  0.51100000000E-03 0.  1.
         11   -1    0    0    0    0 -0.00000000000E+00 -0.00000000000E+00 -0.45593999997E+02  0.45594000000E+02  0.51100000000E-03 0. -1.
    9900012    2    1    2    0    0 -0.39248105649E+02  0.69237520263E+01  0.20994308518E+02  0.46142321746E+02  0.10000036341E+02 0.  0.
         12    1    1    2    0    0  0.39248105649E+02 -0.69237520263E+01 -0.20994308518E+02  0.45045678254E+02  0.00000000000E+00 0. -1.
         11    1    3    3    0    0 -0.82922646920E+01  0.28868821380E+01  0.23691271563E+01  0.90944216939E+01  0.51100000000E-03 0. -1.
        -11    1    3    3    0    0 -0.30323465858E+02  0.45115276398E+01  0.16576184263E+02  0.34851633366E+02  0.51100000000E-03 0.  1.
         12    1    3    3    0    0 -0.63237509895E+00 -0.47465775146E+00  0.20489970991E+01  0.21962666867E+01  0.00000000000E+00 0. -1.
</event>
<event>
 7    1  0.2328810E-008  0.4614232E+02  0.7816164E-02  0.1320468E+00
        -11   -1    0    0    0    0  0.00000000000E+00  0.00000000000E+00  0.45593999997E+02  0.45594000000E+02  0.51100000000E-03 0. -1.
         11   -1    0    0    0    0 -0.00000000000E+00 -0.00000000000E+00 -0.45593999997E+02  0.45594000000E+02  0.51100000000E-03 0.  1.
    9900012    2    1    2    0    0  0.36402834842E+02 -0.25125398378E+02 -0.85241673716E+01  0.46142318103E+02  0.10000003118E+02 0.  0.
         12    1    1    2    0    0 -0.36402834842E+02  0.25125398378E+02  0.85241673716E+01  0.45045681897E+02  0.00000000000E+00 0. -1.
         11    1    3    3    0    0  0.16935944690E+02 -0.12982137008E+02 -0.58085131337E+01  0.22115626351E+02  0.51100000000E-03 0. -1.
        -11    1    3    3    0    0  0.17916610702E+02 -0.12958969348E+02 -0.23435906809E+01  0.22235832414E+02  0.51100000000E-03 0.  1.
         12    1    3    3    0    0  0.15502794502E+01  0.81570797733E+00 -0.37206355699E+00  0.17908593380E+01  0.00000000000E+00 0. -1.
</event>
<event>
 7    1  0.2328810E-008  0.4614232E+02  0.7816164E-02  0.1320468E+00
        -11   -1    0    0    0    0  0.00000000000E+00  0.00000000000E+00  0.45593999997E+02  0.45594000000E+02  0.51100000000E-03 0.  1.
         11   -1    0    0    0    0 -0.00000000000E+00 -0.00000000000E+00 -0.45593999997E+02  0.45594000000E+02  0.51100000000E-03 0. -1.
    9900012    2    1    2    0    0 -0.34946066634E+02 -0.62121908790E+01  0.27736162331E+02  0.46142316638E+02  0.99999897569E+01 0.  0.
         12    1    1    2    0    0  0.34946066634E+02  0.62121908790E+01 -0.27736162331E+02  0.45045683362E+02  0.00000000000E+00 0. -1.
         11    1    3    3    0    0 -0.86799818862E+01  0.49835278206E+00  0.78495184268E+01  0.11713470059E+02  0.51100000000E-03 0. -1.
        -11    1    3    3    0    0 -0.10769080826E+02  0.49618377989E+00  0.55723260495E+01  0.12135490020E+02  0.51100000000E-03 0.  1.
         12    1    3    3    0    0 -0.15497003923E+02 -0.72067274409E+01  0.14314317854E+02  0.22293356558E+02  0.00000000000E+00 0. -1.
</event>
<event>
 7    1  0.2328810E-008  0.4614232E+02  0.7816164E-02  0.1320468E+00
        -11   -1    0    0    0    0  0.00000000000E+00  0.00000000000E+00  0.45593999997E+02  0.45594000000E+02  0.51100000000E-03 0. -1.
         11   -1    0    0    0    0 -0.00000000000E+00 -0.00000000000E+00 -0.45593999997E+02  0.45594000000E+02  0.51100000000E-03 0.  1.
    9900012    2    1    2    0    0  0.32256759205E+02  0.26575415564E+02  0.16803636615E+02  0.46142318406E+02  0.10000005877E+02 0.  0.
         12    1    1    2    0    0 -0.32256759205E+02 -0.26575415564E+02 -0.16803636615E+02  0.45045681594E+02  0.00000000000E+00 0. -1.
         11    1    3    3    0    0  0.27302675332E+01  0.42908948266E+01  0.30182630627E+01  0.59140554100E+01  0.51100000000E-03 0. -1.
        -11    1    3    3    0    0  0.21213194708E+02  0.19742542939E+02  0.92261408529E+01  0.30411992811E+02  0.51100000000E-03 0.  1.
         12    1    3    3    0    0  0.83132969639E+01  0.25419777985E+01  0.45592326994E+01  0.98162701850E+01  0.00000000000E+00 0. -1.
</event>
<event>
 7    1  0.2328810E-008  0.4614232E+02  0.7816164E-02  0.1320468E+00
        -11   -1    0    0    0    0  0.00000000000E+00  0.00000000000E+00  0.45593999997E+02  0.45594000000E+02  0.51100000000E-03 0. -1.
         11   -1    0    0    0    0 -0.00000000000E+00 -0.00000000000E+00 -0.45593999997E+02  0.45594000000E+02  0.51100000000E-03 0.  1.
    9900012    2    1    2    0    0  0.28342255849E+02  0.19640276532E+02 -0.28984298549E+02  0.46142317729E+02  0.99999997095E+01 0.  0.
         12    1    1    2    0    0 -0.28342255849E+02 -0.19640276532E+02  0.28984298549E+02  0.45045682271E+02  0.00000000000E+00 0. -1.
         11    1    3    3    0    0  0.10350815604E+02  0.50308391914E+01 -0.72037319832E+01  0.13577278129E+02  0.51100000000E-03 0. -1.
        -11    1    3    3    0    0  0.13113775376E+02  0.98003606037E+01 -0.10764933105E+02  0.19593416179E+02  0.51100000000E-03 0.  1.
         12    1    3    3    0    0  0.48776648692E+01  0.48090767374E+01 -0.11015633460E+02  0.12971623421E+02  0.00000000000E+00 0. -1.
</event>
<event>
 7    1  0.2328810E-008  0.4614232E+02  0.7816164E-02  0.1320468E+00
        -11   -1    0    0    0    0  0.00000000000E+00  0.00000000000E+00  0.45593999997E+02  0.45594000000E+02  0.51100000000E-03 0.  1.
         11   -1    0    0    0    0 -0.00000000000E+00 -0.00000000000E+00 -0.45593999997E+02  0.45594000000E+02  0.51100000000E-03 0. -1.
    9900012    2    1    2    0    0  0.60045909495E+00 -0.10117980696E+02  0.43890539696E+02  0.46142316974E+02  0.99999928188E+01 0.  0.
         12    1    1    2    0    0 -0.60045909495E+00  0.10117980696E+02 -0.43890539696E+02  0.45045683026E+02  0.00000000000E+00 0. -1.
         11    1    3    3    0    0  0.24989166323E+01 -0.14541802732E+01  0.12658712408E+02  0.12984691937E+02  0.51100000000E-03 0. -1.
        -11    1    3    3    0    0  0.16879209160E+01 -0.32281706041E+01  0.18519414008E+02  0.18874290926E+02  0.51100000000E-03 0.  1.
         12    1    3    3    0    0 -0.35863784533E+01 -0.54356298188E+01  0.12712413279E+02  0.14283334111E+02  0.00000000000E+00 0. -1.
</event>
<event>
 7    1  0.2328810E-008  0.4614232E+02  0.7816164E-02  0.1320468E+00
        -11   -1    0    0    0    0  0.00000000000E+00  0.00000000000E+00  0.45593999997E+02  0.45594000000E+02  0.51100000000E-03 0.  1.
         11   -1    0    0    0    0 -0.00000000000E+00 -0.00000000000E+00 -0.45593999997E+02  0.45594000000E+02  0.51100000000E-03 0. -1.
    9900012    2    1    2    0    0  0.10974152913E+02 -0.14174630488E+02  0.41325068723E+02  0.46142317781E+02  0.10000000181E+02 0.  0.
         12    1    1    2    0    0 -0.10974152913E+02  0.14174630488E+02 -0.41325068723E+02  0.45045682219E+02  0.00000000000E+00 0. -1.
         11    1    3    3    0    0 -0.92775579786E+00 -0.53133624153E+00  0.62197731860E+00  0.12368933131E+01  0.51100000000E-03 0. -1.
        -11    1    3    3    0    0  0.60902012820E+01 -0.32418567870E+01  0.12268531269E+02  0.14075405744E+02  0.51100000000E-03 0.  1.
        -12    1    3    3    0    0  0.58117074293E+01 -0.10401437459E+02  0.28434560135E+02  0.30830018724E+02  0.00000000000E+00 0.  1.
</event>
<event>
 7    1  0.2328810E-008  0.4614232E+02  0.7816164E-02  0.1320468E+00
        -11   -1    0    0    0    0  0.00000000000E+00  0.00000000000E+00  0.45593999997E+02  0.45594000000E+02  0.51100000000E-03 0.  1.
         11   -1    0    0    0    0 -0.00000000000E+00 -0.00000000000E+00 -0.45593999997E+02  0.45594000000E+02  0.51100000000E-03 0. -1.
    9900012    2    1    2    0    0  0.12212324628E+02 -0.28928830919E+02  0.32296987504E+02  0.46142317266E+02  0.99999954820E+01 0.  0.
         12    1    1    2    0    0 -0.12212324628E+02  0.28928830919E+02 -0.32296987504E+02  0.45045682734E+02  0.00000000000E+00 0. -1.
         11    1    3    3    0    0 -0.12323229191E+01 -0.11667805388E+01  0.35224366029E+01  0.39099304962E+01  0.51100000000E-03 0. -1.
        -11    1    3    3    0    0  0.58306966091E+01 -0.98247735525E+01  0.10418989104E+02  0.15462164548E+02  0.51100000000E-03 0.  1.
        -12    1    3    3    0    0  0.76139509383E+01 -0.17937276828E+02  0.18355561797E+02  0.26770222221E+02  0.00000000000E+00 0.  1.
</event>
<event>
 7    1  0.2328810E-008  0.4614232E+02  0.7816164E-02  0.1320468E+00
        -11   -1    0    0    0    0  0.00000000000E+00  0.00000000000E+00  0.45593999997E+02  0.45594000000E+02  0.51100000000E-03 0. -1.
         11   -1    0    0    0    0 -0.00000000000E+00 -0.00000000000E+00 -0.45593999997E+02  0.45594000000E+02  0.51100000000E-03 0.  1.
    9900012    2    1    2    0    0  0.51924814960E+01 -0.15527201225E+02 -0.41964957189E+02  0.46142317922E+02  0.10000001468E+02 0.  0.
         12    1    1    2    0    0 -0.51924814960E+01  0.15527201225E+02  0.41964957189E+02  0.45045682078E+02  0.00000000000E+00 0. -1.
         11    1    3    3    0    0 -0.71277229086E+00 -0.10134420278E+01 -0.10164011606E+00  0.12431572936E+01  0.51100000000E-03 0. -1.
        -11    1    3    3    0    0  0.12450519640E+00 -0.23754018347E+01 -0.10668327294E+02  0.10930290158E+02  0.51100000000E-03 0.  1.
         12    1    3    3    0    0  0.57807485904E+01 -0.12138357363E+02 -0.31194989779E+02  0.33968870470E+02  0.00000000000E+00 0. -1.
</event>
<event>
 7    1  0.2328810E-008  0.4614232E+02  0.7816164E-02  0.1320468E+00
        -11   -1    0    0    0    0  0.00000000000E+00  0.00000000000E+00  0.45593999997E+02  0.45594000000E+02  0.51100000000E-03 0. -1.
         11   -1    0    0    0    0 -0.00000000000E+00 -0.00000000000E+00 -0.45593999997E+02  0.45594000000E+02  0.51100000000E-03 0.  1.
    9900012    2    1    2    0    0 -0.77210972650E+01  0.12751071572E+02 -0.42507743985E+02  0.46142317988E+02  0.10000002072E+02 0.  0.
         12    1    1    2    0    0  0.77210972650E+01 -0.12751071572E+02  0.42507743985E+02  0.45045682012E+02  0.00000000000E+00 0. -1.
         11    1    3    3    0    0  0.52982017533E+00  0.16721563248E+01 -0.85914691868E+01  0.87687033957E+01  0.51100000000E-03 0. -1.
        -11    1    3    3    0    0 -0.92559453203E+00  0.10802818392E+01 -0.12872043715E+02  0.12950414810E+02  0.51100000000E-03 0.  1.
         12    1    3    3    0    0 -0.73253229083E+01  0.99986334082E+01 -0.21044231083E+02  0.24423199783E+02  0.00000000000E+00 0. -1.
</event>
<event>
 7    1  0.2328810E-008  0.4614232E+02  0.7816164E-02  0.1320468E+00
        -11   -1    0    0    0    0  0.00000000000E+00  0.00000000000E+00  0.45593999997E+02  0.45594000000E+02  0.51100000000E-03 0.  1.
         11   -1    0    0    0    0 -0.00000000000E+00 -0.00000000000E+00 -0.45593999997E+02  0.45594000000E+02  0.51100000000E-03 0. -1.
    9900012    2    1    2    0    0 -0.34559057992E+02 -0.10465134702E+02  0.26930765155E+02  0.46142316017E+02  0.99999840984E+01 0.  0.
         12    1    1    2    0    0  0.34559057992E+02  0.10465134702E+02 -0.26930765155E+02  0.45045683983E+02  0.00000000000E+00 0. -1.
         11    1    3    3    0    0 -0.15588545137E+02 -0.75863134561E+01  0.11973157958E+02  0.21069205090E+02  0.51100000000E-03 0. -1.
        -11    1    3    3    0    0 -0.97358521703E+01 -0.42351228086E+01  0.63191686499E+01  0.12355362211E+02  0.51100000000E-03 0.  1.
        -12    1    3    3    0    0 -0.92346606843E+01  0.13563015624E+01  0.86384385471E+01  0.12717748716E+02  0.00000000000E+00 0.  1.
</event>
<event>
 7    1  0.2328810E-008  0.4614232E+02  0.7816164E-02  0.1320468E+00
        -11   -1    0    0    0    0  0.00000000000E+00  0.00000000000E+00  0.45593999997E+02  0.45594000000E+02  0.51100000000E-03 0. -1.
         11   -1    0    0    0    0 -0.00000000000E+00 -0.00000000000E+00 -0.45593999997E+02  0.45594000000E+02  0.51100000000E-03 0.  1.
    9900012    2    1    2    0    0 -0.27262572612E+02 -0.35788316376E+02 -0.22498917107E+01  0.46142317997E+02  0.10000002147E+02 0.  0.
         12    1    1    2    0    0  0.27262572612E+02  0.35788316376E+02  0.22498917107E+01  0.45045682003E+02  0.00000000000E+00 0. -1.
         11    1    3    3    0    0 -0.25346507124E+02 -0.29344973249E+02 -0.28865792647E+01  0.38883225413E+02  0.51100000000E-03 0.  1.
        -11    1    3    3    0    0 -0.60264296422E+00  0.49721571950E-01  0.98914203762E-01  0.61272755599E+00  0.51100000000E-03 0. -1.
         12    1    3    3    0    0 -0.13134225238E+01 -0.64930646987E+01  0.53777335033E+00  0.66463650279E+01  0.00000000000E+00 0. -1.
</event>
<event>
 7    1  0.2328810E-008  0.4614232E+02  0.7816164E-02  0.1320468E+00
        -11   -1    0    0    0    0  0.00000000000E+00  0.00000000000E+00  0.45593999997E+02  0.45594000000E+02  0.51100000000E-03 0. -1.
         11   -1    0    0    0    0 -0.00000000000E+00 -0.00000000000E+00 -0.45593999997E+02  0.45594000000E+02  0.51100000000E-03 0.  1.
    9900012    2    1    2    0    0  0.32081931038E+02 -0.11827172010E+02 -0.29325436110E+02  0.46142317633E+02  0.99999988319E+01 0.  0.
         12    1    1    2    0    0 -0.32081931038E+02  0.11827172010E+02  0.29325436110E+02  0.45045682367E+02  0.00000000000E+00 0. -1.
         11    1    3    3    0    0  0.64993506283E+01 -0.48338809808E+01 -0.40184918829E+01  0.90419157926E+01  0.51100000000E-03 0. -1.
        -11    1    3    3    0    0  0.93327742589E+01 -0.14282339532E+01 -0.56773278548E+01  0.11016922412E+02  0.51100000000E-03 0.  1.
        -12    1    3    3    0    0  0.16249806151E+02 -0.55650570760E+01 -0.19629616372E+02  0.26083479429E+02  0.00000000000E+00 0.  1.
</event>
<event>
 7    1  0.2328810E-008  0.4614231E+02  0.7816164E-02  0.1320468E+00
        -11   -1    0    0    0    0  0.00000000000E+00  0.00000000000E+00  0.45593999997E+02  0.45594000000E+02  0.51100000000E-03 0.  1.
         11   -1    0    0    0    0 -0.00000000000E+00 -0.00000000000E+00 -0.45593999997E+02  0.45594000000E+02  0.51100000000E-03 0. -1.
    9900012    2    1    2    0    0  0.68980368542E+00  0.12825431990E+02  0.43175763935E+02  0.46142310681E+02  0.99999354376E+01 0.  0.
         12    1    1    2    0    0 -0.68980368542E+00 -0.12825431990E+02 -0.43175763935E+02  0.45045689319E+02  0.00000000000E+00 0. -1.
         11    1    3    3    0    0  0.32024327354E+00 -0.35031801182E+00  0.13887385770E+02  0.13895494314E+02  0.51100000000E-03 0. -1.
        -11    1    3    3    0    0  0.75734335432E+00  0.60248284049E+01  0.16617533397E+02  0.17692217010E+02  0.51100000000E-03 0.  1.
         12    1    3    3    0    0 -0.38778294244E+00  0.71509215964E+01  0.12670844769E+02  0.14554599357E+02  0.00000000000E+00 0. -1.
</event>
<event>
 7    1  0.2328810E-008  0.4614232E+02  0.7816164E-02  0.1320468E+00
        -11   -1    0    0    0    0  0.00000000000E+00  0.00000000000E+00  0.45593999997E+02  0.45594000000E+02  0.51100000000E-03 0.  1.
         11   -1    0    0    0    0 -0.00000000000E+00 -0.00000000000E+00 -0.45593999997E+02  0.45594000000E+02  0.51100000000E-03 0. -1.
    9900012    2    1    2    0    0  0.27047735503E+02 -0.28814103743E+02  0.21616681558E+02  0.46142317721E+02  0.99999996370E+01 0.  0.
         12    1    1    2    0    0 -0.27047735503E+02  0.28814103743E+02 -0.21616681558E+02  0.45045682279E+02  0.00000000000E+00 0. -1.
         11    1    3    3    0    0  0.10149608763E+02 -0.54059209601E+01  0.44381805672E+01  0.12326231642E+02  0.51100000000E-03 0. -1.
        -11    1    3    3    0    0  0.82883782446E+01 -0.99293040171E+01  0.96590222430E+01  0.16142645481E+02  0.51100000000E-03 0.  1.
         12    1    3    3    0    0  0.86097484952E+01 -0.13478878766E+02  0.75194787482E+01  0.17673440598E+02  0.00000000000E+00 0. -1.
</event>
<event>
 7    1  0.2328810E-008  0.4614232E+02  0.7816164E-02  0.1320468E+00
        -11   -1    0    0    0    0  0.00000000000E+00  0.00000000000E+00  0.45593999997E+02  0.45594000000E+02  0.51100000000E-03 0.  1.
         11   -1    0    0    0    0 -0.00000000000E+00 -0.00000000000E+00 -0.45593999997E+02  0.45594000000E+02  0.51100000000E-03 0. -1.
    9900012    2    1    2    0    0  0.65425602534E+01  0.27162497093E+02  0.35334220785E+02  0.46142317616E+02  0.99999986728E+01 0.  0.
         12    1    1    2    0    0 -0.65425602534E+01 -0.27162497093E+02 -0.35334220785E+02  0.45045682384E+02  0.00000000000E+00 0. -1.
         11    1    3    3    0    0 -0.29747876302E+00  0.13006394155E+01  0.69383676156E+00  0.15038504635E+01  0.51100000000E-03 0. -1.
        -11    1    3    3    0    0 -0.54943495216E+00  0.14607531106E+02  0.19627957060E+02  0.24473220924E+02  0.51100000000E-03 0.  1.
        -12    1    3    3    0    0  0.73894739686E+01  0.11254326571E+02  0.15012426963E+02  0.20165246228E+02  0.00000000000E+00 0.  1.
</event>
<event>
 7    1  0.2328810E-008  0.4614232E+02  0.7816164E-02  0.1320468E+00
        -11   -1    0    0    0    0  0.00000000000E+00  0.00000000000E+00  0.45593999997E+02  0.45594000000E+02  0.51100000000E-03 0.  1.
         11   -1    0    0    0    0 -0.00000000000E+00 -0.00000000000E+00 -0.45593999997E+02  0.45594000000E+02  0.51100000000E-03 0. -1.
    9900012    2    1    2    0    0  0.14726978757E+02  0.24669432124E+02  0.34693642026E+02  0.46142316725E+02  0.99999905542E+01 0.  0.
         12    1    1    2    0    0 -0.14726978757E+02 -0.24669432124E+02 -0.34693642026E+02  0.45045683275E+02  0.00000000000E+00 0. -1.
         11    1    3    3    0    0  0.18046578213E+01  0.98769869954E+01  0.10386613406E+02  0.14446224430E+02  0.51100000000E-03 0. -1.
        -11    1    3    3    0    0  0.12843794533E+02  0.13749657694E+02  0.20850616487E+02  0.28084948866E+02  0.51100000000E-03 0.  1.
        -12    1    3    3    0    0  0.78526403361E-01  0.10427874349E+01  0.34564121337E+01  0.36111434295E+01  0.00000000000E+00 0.  1.
</event>
<event>
 7    1  0.2328810E-008  0.4614231E+02  0.7816164E-02  0.1320468E+00
        -11   -1    0    0    0    0  0.00000000000E+00  0.00000000000E+00  0.45593999997E+02  0.45594000000E+02  0.51100000000E-03 0.  1.
         11   -1    0    0    0    0 -0.00000000000E+00 -0.00000000000E+00 -0.45593999997E+02  0.45594000000E+02  0.51100000000E-03 0. -1.
    9900012    2    1    2    0    0 -0.37987290305E+01 -0.35007468335E+02  0.28092014121E+02  0.46142307211E+02  0.99999037949E+01 0.  0.
         12    1    1    2    0    0  0.37987290305E+01  0.35007468335E+02 -0.28092014121E+02  0.45045692789E+02  0.00000000000E+00 0. -1.
         11    1    3    3    0    0  0.25014318998E+01 -0.66459990833E+01  0.60231000962E+01  0.93115090289E+01  0.51100000000E-03 0. -1.
        -11    1    3    3    0    0  0.42559649518E+00 -0.53392196409E+01  0.26788421539E+01  0.59887055611E+01  0.51100000000E-03 0.  1.
        -12    1    3    3    0    0 -0.67257574255E+01 -0.23022249611E+02  0.19390071871E+02  0.30842092621E+02  0.00000000000E+00 0.  1.
</event>
<event>
 7    1  0.2328810E-008  0.4614232E+02  0.7816164E-02  0.1320468E+00
        -11   -1    0    0    0    0  0.00000000000E+00  0.00000000000E+00  0.45593999997E+02  0.45594000000E+02  0.51100000000E-03 0. -1.
         11   -1    0    0    0    0 -0.00000000000E+00 -0.00000000000E+00 -0.45593999997E+02  0.45594000000E+02  0.51100000000E-03 0.  1.
    9900012    2    1    2    0    0  0.14499990413E+02 -0.21373454063E+02 -0.36905813776E+02  0.46142319285E+02  0.10000013900E+02 0.  0.
         12    1    1    2    0    0 -0.14499990413E+02  0.21373454063E+02  0.36905813776E+02  0.45045680715E+02  0.00000000000E+00 0. -1.
         11    1    3    3    0    0  0.11050788193E+01  0.50430080533E+00 -0.10130953271E+01  0.15817335117E+01  0.51100000000E-03 0. -1.
        -11    1    3    3    0    0  0.14603964183E+01 -0.44264057502E+01 -0.32989796545E+01  0.57104371625E+01  0.51100000000E-03 0.  1.
        -12    1    3    3    0    0  0.11934515175E+02 -0.17451349118E+02 -0.32593738795E+02  0.38850148611E+02  0.00000000000E+00 0.  1.
</event>
<event>
 7    1  0.2328810E-008  0.4614232E+02  0.7816164E-02  0.1320468E+00
        -11   -1    0    0    0    0  0.00000000000E+00  0.00000000000E+00  0.45593999997E+02  0.45594000000E+02  0.51100000000E-03 0.  1.
         11   -1    0    0    0    0 -0.00000000000E+00 -0.00000000000E+00 -0.45593999997E+02  0.45594000000E+02  0.51100000000E-03 0. -1.
    9900012    2    1    2    0    0 -0.12034387079E+02  0.71143691951E+00  0.43402543206E+02  0.46142319057E+02  0.10000011819E+02 0.  0.
         12    1    1    2    0    0  0.12034387079E+02 -0.71143691951E+00 -0.43402543206E+02  0.45045680943E+02  0.00000000000E+00 0. -1.
         11    1    3    3    0    0 -0.58814150755E+01  0.93139502513E-01  0.15471273089E+02  0.16551737356E+02  0.51100000000E-03 0. -1.
        -11    1    3    3    0    0 -0.47855949884E+01  0.17278899581E+01  0.27219962542E+02  0.27691404518E+02  0.51100000000E-03 0.  1.
         12    1    3    3    0    0 -0.13673770147E+01 -0.11095925411E+01  0.71130757499E+00  0.18991771833E+01  0.00000000000E+00 0. -1.
</event>
<event>
 7    1  0.2328810E-008  0.4614232E+02  0.7816164E-02  0.1320468E+00
        -11   -1    0    0    0    0  0.00000000000E+00  0.00000000000E+00  0.45593999997E+02  0.45594000000E+02  0.51100000000E-03 0.  1.
         11   -1    0    0    0    0 -0.00000000000E+00 -0.00000000000E+00 -0.45593999997E+02  0.45594000000E+02  0.51100000000E-03 0. -1.
    9900012    2    1    2    0    0 -0.31911818353E+02 -0.13337753528E+02  0.28859204880E+02  0.46142317343E+02  0.99999961831E+01 0.  0.
         12    1    1    2    0    0  0.31911818353E+02  0.13337753528E+02 -0.28859204880E+02  0.45045682657E+02  0.00000000000E+00 0. -1.
         11    1    3    3    0    0 -0.55989353551E+01 -0.25627283823E+01  0.38689038742E+01  0.72721435162E+01  0.51100000000E-03 0.  1.
        -11    1    3    3    0    0 -0.69849953153E+01 -0.22726018567E+01  0.12028137829E+02  0.14093650295E+02  0.51100000000E-03 0. -1.
         12    1    3    3    0    0 -0.19327887683E+02 -0.85024232891E+01  0.12962163177E+02  0.24776523531E+02  0.00000000000E+00 0. -1.
</event>
<event>
 7    1  0.2328810E-008  0.4614232E+02  0.7816164E-02  0.1320468E+00
        -11   -1    0    0    0    0  0.00000000000E+00  0.00000000000E+00  0.45593999997E+02  0.45594000000E+02  0.51100000000E-03 0.  1.
         11   -1    0    0    0    0 -0.00000000000E+00 -0.00000000000E+00 -0.45593999997E+02  0.45594000000E+02  0.51100000000E-03 0. -1.
    9900012    2    1    2    0    0 -0.44960974355E+02  0.21174544080E+00 -0.27530744274E+01  0.46142317966E+02  0.10000001871E+02 0.  0.
         12    1    1    2    0    0  0.44960974355E+02 -0.21174544080E+00  0.27530744274E+01  0.45045682034E+02  0.00000000000E+00 0. -1.
         11    1    3    3    0    0 -0.30877862511E+02  0.18397437457E+01 -0.57830102556E+01  0.31468559836E+02  0.51100000000E-03 0. -1.
        -11    1    3    3    0    0 -0.97583913999E+01 -0.50940764552E+00  0.11947932679E+01  0.98444517408E+01  0.51100000000E-03 0.  1.
         12    1    3    3    0    0 -0.43247204443E+01 -0.11185906594E+01  0.18351425603E+01  0.48293063892E+01  0.00000000000E+00 0. -1.
</event>
<event>
 7    1  0.2328810E-008  0.4614232E+02  0.7816164E-02  0.1320468E+00
        -11   -1    0    0    0    0  0.00000000000E+00  0.00000000000E+00  0.45593999997E+02  0.45594000000E+02  0.51100000000E-03 0.  1.
         11   -1    0    0    0    0 -0.00000000000E+00 -0.00000000000E+00 -0.45593999997E+02  0.45594000000E+02  0.51100000000E-03 0. -1.
    9900012    2    1    2    0    0 -0.42020660814E+02 -0.94798627972E+01  0.13172304187E+02  0.46142319502E+02  0.10000015875E+02 0.  0.
         12    1    1    2    0    0  0.42020660814E+02  0.94798627972E+01 -0.13172304187E+02  0.45045680498E+02  0.00000000000E+00 0. -1.
         11    1    3    3    0    0 -0.97366248396E+01 -0.37580244246E+01  0.40059252488E+01  0.11179089775E+02  0.51100000000E-03 0. -1.
        -11    1    3    3    0    0 -0.89709124473E+01 -0.41387862653E+01  0.55094986283E+01  0.11312002355E+02  0.51100000000E-03 0.  1.
         12    1    3    3    0    0 -0.23313123528E+02 -0.15830521073E+01  0.36568803095E+01  0.23651227372E+02  0.00000000000E+00 0. -1.
</event>
<event>
 7    1  0.2328810E-008  0.4614232E+02  0.7816164E-02  0.1320468E+00
        -11   -1    0    0    0    0  0.00000000000E+00  0.00000000000E+00  0.45593999997E+02  0.45594000000E+02  0.51100000000E-03 0. -1.
         11   -1    0    0    0    0 -0.00000000000E+00 -0.00000000000E+00 -0.45593999997E+02  0.45594000000E+02  0.51100000000E-03 0.  1.
    9900012    2    1    2    0    0 -0.42601096411E+02 -0.14594031129E+02 -0.11288015666E+01  0.46142319264E+02  0.10000013703E+02 0.  0.
         12    1    1    2    0    0  0.42601096411E+02  0.14594031129E+02  0.11288015666E+01  0.45045680736E+02  0.00000000000E+00 0. -1.
         11    1    3    3    0    0 -0.16558182953E+01 -0.16682605018E+01  0.27877377517E+00  0.23669690340E+01  0.51100000000E-03 0. -1.
        -11    1    3    3    0    0 -0.67872451213E+01 -0.49502942214E+01 -0.22202697486E+01  0.86891718382E+01  0.51100000000E-03 0.  1.
        -12    1    3    3    0    0 -0.34158032994E+02 -0.79754764062E+01  0.81269440687E+00  0.35086178392E+02  0.00000000000E+00 0.  1.
</event>
<event>
 7    1  0.2328810E-008  0.4614232E+02  0.7816164E-02  0.1320468E+00
        -11   -1    0    0    0    0  0.00000000000E+00  0.00000000000E+00  0.45593999997E+02  0.45594000000E+02  0.51100000000E-03 0.  1.
         11   -1    0    0    0    0 -0.00000000000E+00 -0.00000000000E+00 -0.45593999997E+02  0.45594000000E+02  0.51100000000E-03 0. -1.
    9900012    2    1    2    0    0 -0.20522701687E+01 -0.37791746569E+02  0.24427147886E+02  0.46142317905E+02  0.10000001313E+02 0.  0.
         12    1    1    2    0    0  0.20522701687E+01  0.37791746569E+02 -0.24427147886E+02  0.45045682095E+02  0.00000000000E+00 0. -1.
         11    1    3    3    0    0 -0.16601847691E+00 -0.36275076907E+00  0.13937438061E+01  0.14497145627E+01  0.51100000000E-03 0. -1.
        -11    1    3    3    0    0  0.29734643071E+01 -0.18980385850E+02  0.12072208890E+02  0.22689970576E+02  0.51100000000E-03 0.  1.
         12    1    3    3    0    0 -0.48597159989E+01 -0.18448609950E+02  0.10961195190E+02  0.22002632766E+02  0.00000000000E+00 0. -1.
</event>
<event>
 7    1  0.2328810E-008  0.4614232E+02  0.7816164E-02  0.1320468E+00
        -11   -1    0    0    0    0  0.00000000000E+00  0.00000000000E+00  0.45593999997E+02  0.45594000000E+02  0.51100000000E-03 0.  1.
         11   -1    0    0    0    0 -0.00000000000E+00 -0.00000000000E+00 -0.45593999997E+02  0.45594000000E+02  0.51100000000E-03 0. -1.
    9900012    2    1    2    0    0 -0.28230271845E+02  0.32915161162E+02  0.12196610848E+02  0.46142318753E+02  0.10000009048E+02 0.  0.
         12    1    1    2    0    0  0.28230271845E+02 -0.32915161162E+02 -0.12196610848E+02  0.45045681247E+02  0.00000000000E+00 0. -1.
         11    1    3    3    0    0 -0.19704045697E+01  0.53213115549E+01  0.10307922226E+00  0.56753393220E+01  0.51100000000E-03 0. -1.
        -11    1    3    3    0    0 -0.29456183423E+00  0.12914064690E-01 -0.47250480306E+00  0.55695107262E+00  0.51100000000E-03 0.  1.
        -12    1    3    3    0    0 -0.25965305441E+02  0.27580935542E+02  0.12566036429E+02  0.39910028359E+02  0.00000000000E+00 0.  1.
</event>
<event>
 7    1  0.2328810E-008  0.4614232E+02  0.7816164E-02  0.1320468E+00
        -11   -1    0    0    0    0  0.00000000000E+00  0.00000000000E+00  0.45593999997E+02  0.45594000000E+02  0.51100000000E-03 0.  1.
         11   -1    0    0    0    0 -0.00000000000E+00 -0.00000000000E+00 -0.45593999997E+02  0.45594000000E+02  0.51100000000E-03 0. -1.
    9900012    2    1    2    0    0 -0.37189025232E+02  0.25327565979E+02  0.21457319573E+01  0.46142319167E+02  0.10000012818E+02 0.  0.
         12    1    1    2    0    0  0.37189025232E+02 -0.25327565979E+02 -0.21457319573E+01  0.45045680833E+02  0.00000000000E+00 0. -1.
         11    1    3    3    0    0 -0.16866328108E+02  0.15625059303E+02  0.19311590450E+01  0.23072600148E+02  0.51100000000E-03 0. -1.
        -11    1    3    3    0    0 -0.14747440801E+02  0.81934443760E+01 -0.17679906665E+01  0.16963057866E+02  0.51100000000E-03 0.  1.
        -12    1    3    3    0    0 -0.55752563230E+01  0.15090623005E+01  0.19825635789E+01  0.61066611531E+01  0.00000000000E+00 0.  1.
</event>
<event>
 7    1  0.2328810E-008  0.4614232E+02  0.7816164E-02  0.1320468E+00
        -11   -1    0    0    0    0  0.00000000000E+00  0.00000000000E+00  0.45593999997E+02  0.45594000000E+02  0.51100000000E-03 0. -1.
         11   -1    0    0    0    0 -0.00000000000E+00 -0.00000000000E+00 -0.45593999997E+02  0.45594000000E+02  0.51100000000E-03 0.  1.
    9900012    2    1    2    0    0  0.27362532128E+02  0.32221647345E+02 -0.15561837481E+02  0.46142317545E+02  0.99999980288E+01 0.  0.
         12    1    1    2    0    0 -0.27362532128E+02 -0.32221647345E+02  0.15561837481E+02  0.45045682455E+02  0.00000000000E+00 0. -1.
         11    1    3    3    0    0  0.15776342663E+01  0.39654404213E+01 -0.26913718696E+01  0.50455059622E+01  0.51100000000E-03 0. -1.
        -11    1    3    3    0    0  0.13749816354E+02  0.14243170720E+02 -0.26150869148E+01  0.19969077139E+02  0.51100000000E-03 0.  1.
         12    1    3    3    0    0  0.12035081507E+02  0.14013036203E+02 -0.10255378697E+02  0.21127734444E+02  0.00000000000E+00 0. -1.
</event>
<event>
 7    1  0.2328810E-008  0.4614232E+02  0.7816164E-02  0.1320468E+00
        -11   -1    0    0    0    0  0.00000000000E+00  0.00000000000E+00  0.45593999997E+02  0.45594000000E+02  0.51100000000E-03 0.  1.
         11   -1    0    0    0    0 -0.00000000000E+00 -0.00000000000E+00 -0.45593999997E+02  0.45594000000E+02  0.51100000000E-03 0. -1.
    9900012    2    1    2    0    0  0.36037327801E+02 -0.26753093398E+02  0.38336197430E+01  0.46142316059E+02  0.99999844762E+01 0.  0.
         12    1    1    2    0    0 -0.36037327801E+02  0.26753093398E+02 -0.38336197430E+01  0.45045683941E+02  0.00000000000E+00 0. -1.
         11    1    3    3    0    0  0.19649802771E+02 -0.10087029388E+02  0.34074409411E+01  0.22348905227E+02  0.51100000000E-03 0. -1.
        -11    1    3    3    0    0  0.48009904268E+01 -0.30207657317E+01  0.14779578494E+01  0.58616460444E+01  0.51100000000E-03 0.  1.
        -12    1    3    3    0    0  0.11586534603E+02 -0.13645298279E+02 -0.10517790476E+01  0.17931764787E+02  0.00000000000E+00 0.  1.
</event>
<event>
 7    1  0.2328810E-008  0.4614232E+02  0.7816164E-02  0.1320468E+00
        -11   -1    0    0    0    0  0.00000000000E+00  0.00000000000E+00  0.45593999997E+02  0.45594000000E+02  0.51100000000E-03 0.  1.
         11   -1    0    0    0    0 -0.00000000000E+00 -0.00000000000E+00 -0.45593999997E+02  0.45594000000E+02  0.51100000000E-03 0. -1.
    9900012    2    1    2    0    0 -0.17489924863E+02  0.29827454725E+02  0.28871073244E+02  0.46142318771E+02  0.10000009211E+02 0.  0.
         12    1    1    2    0    0  0.17489924863E+02 -0.29827454725E+02 -0.28871073244E+02  0.45045681229E+02  0.00000000000E+00 0. -1.
         11    1    3    3    0    0 -0.31426857173E+01  0.19563315875E+01  0.11001190822E+01  0.38618608279E+01  0.51100000000E-03 0. -1.
        -11    1    3    3    0    0 -0.11798997255E+02  0.20049820868E+02  0.23266274319E+02  0.32901841499E+02  0.51100000000E-03 0.  1.
        -12    1    3    3    0    0 -0.25482418906E+01  0.78213022694E+01  0.45046798421E+01  0.93786164439E+01  0.00000000000E+00 0.  1.
</event>
<event>
 7    1  0.3142142E-008  0.4614232E+02  0.7816164E-02  0.1320468E+00
        -11   -1    0    0    0    0  0.00000000000E+00  0.00000000000E+00  0.45593999997E+02  0.45594000000E+02  0.51100000000E-03 0. -1.
         11   -1    0    0    0    0 -0.00000000000E+00 -0.00000000000E+00 -0.45593999997E+02  0.45594000000E+02  0.51100000000E-03 0.  1.
    9900012    2    1    2    0    0  0.17959458329E+02  0.10584480052E+02 -0.39931693573E+02  0.46142317487E+02  0.99999974960E+01 0.  0.
         12    1    1    2    0    0 -0.17959458329E+02 -0.10584480052E+02  0.39931693573E+02  0.45045682513E+02  0.00000000000E+00 0. -1.
         11    1    3    3    0    0 -0.68560220134E+00  0.27464254266E+00 -0.10775822767E+01  0.13063930223E+01  0.51100000000E-03 0. -1.
        -11    1    3    3    0    0  0.23497313189E+01  0.41427248029E+01 -0.10921127030E+02  0.11914462721E+02  0.51100000000E-03 0.  1.
        -12    1    3    3    0    0  0.16295329212E+02  0.61671127067E+01 -0.27932984267E+02  0.32921461743E+02  0.00000000000E+00 0.  1.
</event>
<event>
 7    1  0.2328810E-008  0.4614232E+02  0.7816164E-02  0.1320468E+00
        -11   -1    0    0    0    0  0.00000000000E+00  0.00000000000E+00  0.45593999997E+02  0.45594000000E+02  0.51100000000E-03 0.  1.
         11   -1    0    0    0    0 -0.00000000000E+00 -0.00000000000E+00 -0.45593999997E+02  0.45594000000E+02  0.51100000000E-03 0. -1.
    9900012    2    1    2    0    0  0.17565587327E+02 -0.20869630087E+02  0.35847206182E+02  0.46142317530E+02  0.99999978947E+01 0.  0.
         12    1    1    2    0    0 -0.17565587327E+02  0.20869630087E+02 -0.35847206182E+02  0.45045682470E+02  0.00000000000E+00 0. -1.
         11    1    3    3    0    0  0.59914952842E+01 -0.78806692250E+01  0.17462802881E+02  0.20073675496E+02  0.51100000000E-03 0. -1.
        -11    1    3    3    0    0  0.96013412269E+01 -0.95958468132E+01  0.10159610090E+02  0.16955344492E+02  0.51100000000E-03 0.  1.
         12    1    3    3    0    0  0.19727508158E+01 -0.33931140488E+01  0.82247932110E+01  0.91132975422E+01  0.00000000000E+00 0. -1.
</event>
<event>
 7    1  0.2328810E-008  0.4614232E+02  0.7816164E-02  0.1320468E+00
        -11   -1    0    0    0    0  0.00000000000E+00  0.00000000000E+00  0.45593999997E+02  0.45594000000E+02  0.51100000000E-03 0. -1.
         11   -1    0    0    0    0 -0.00000000000E+00 -0.00000000000E+00 -0.45593999997E+02  0.45594000000E+02  0.51100000000E-03 0.  1.
    9900012    2    1    2    0    0  0.40095304349E+02  0.19969221228E+02 -0.47655313087E+01  0.46142317454E+02  0.99999972036E+01 0.  0.
         12    1    1    2    0    0 -0.40095304349E+02 -0.19969221228E+02  0.47655313087E+01  0.45045682546E+02  0.00000000000E+00 0. -1.
         11    1    3    3    0    0  0.16349151587E+02  0.11435734506E+02 -0.36177801848E+01  0.20277058836E+02  0.51100000000E-03 0. -1.
        -11    1    3    3    0    0  0.18828379838E+02  0.89869673838E+01 -0.37534855073E+00  0.20866584696E+02  0.51100000000E-03 0.  1.
        -12    1    3    3    0    0  0.49177729239E+01 -0.45348066191E+00 -0.77240257320E+00  0.49986739219E+01  0.00000000000E+00 0.  1.
</event>
<event>
 7    1  0.2328810E-008  0.4614232E+02  0.7816164E-02  0.1320468E+00
        -11   -1    0    0    0    0  0.00000000000E+00  0.00000000000E+00  0.45593999997E+02  0.45594000000E+02  0.51100000000E-03 0.  1.
         11   -1    0    0    0    0 -0.00000000000E+00 -0.00000000000E+00 -0.45593999997E+02  0.45594000000E+02  0.51100000000E-03 0. -1.
    9900012    2    1    2    0    0  0.91898663107E+00  0.32650501022E+02  0.31019571814E+02  0.46142316645E+02  0.99999898239E+01 0.  0.
         12    1    1    2    0    0 -0.91898663107E+00 -0.32650501022E+02 -0.31019571814E+02  0.45045683355E+02  0.00000000000E+00 0. -1.
         11    1    3    3    0    0 -0.34011257021E+01  0.19212678853E+02  0.19195585692E+02  0.27370882249E+02  0.51100000000E-03 0. -1.
        -11    1    3    3    0    0  0.10136518495E+01  0.84580185033E+01  0.59496630467E+01  0.10390575427E+02  0.51100000000E-03 0.  1.
         12    1    3    3    0    0  0.33064604837E+01  0.49798036650E+01  0.58743230750E+01  0.83808589692E+01  0.00000000000E+00 0. -1.
</event>
<event>
 7    1  0.2328810E-008  0.4614232E+02  0.7816164E-02  0.1320468E+00
        -11   -1    0    0    0    0  0.00000000000E+00  0.00000000000E+00  0.45593999997E+02  0.45594000000E+02  0.51100000000E-03 0. -1.
         11   -1    0    0    0    0 -0.00000000000E+00 -0.00000000000E+00 -0.45593999997E+02  0.45594000000E+02  0.51100000000E-03 0.  1.
    9900012    2    1    2    0    0  0.32011551180E+02 -0.31682119251E+02  0.78575975464E+00  0.46142317548E+02  0.99999980555E+01 0.  0.
         12    1    1    2    0    0 -0.32011551180E+02  0.31682119251E+02 -0.78575975464E+00  0.45045682452E+02  0.00000000000E+00 0. -1.
         11    1    3    3    0    0  0.18362402586E+02 -0.14384539402E+02  0.31718892408E+01  0.23540469072E+02  0.51100000000E-03 0. -1.
        -11    1    3    3    0    0  0.13441052411E+02 -0.15405390097E+02 -0.14931442398E+01  0.20499205203E+02  0.51100000000E-03 0.  1.
         12    1    3    3    0    0  0.20809618207E+00 -0.18921897525E+01 -0.89298524642E+00  0.21026432724E+01  0.00000000000E+00 0. -1.
</event>
<event>
 7    1  0.2328810E-008  0.4614232E+02  0.7816164E-02  0.1320468E+00
        -11   -1    0    0    0    0  0.00000000000E+00  0.00000000000E+00  0.45593999997E+02  0.45594000000E+02  0.51100000000E-03 0.  1.
         11   -1    0    0    0    0 -0.00000000000E+00 -0.00000000000E+00 -0.45593999997E+02  0.45594000000E+02  0.51100000000E-03 0. -1.
    9900012    2    1    2    0    0 -0.18314775653E+02  0.10702824075E+02  0.39738294175E+02  0.46142317917E+02  0.10000001420E+02 0.  0.
         12    1    1    2    0    0  0.18314775653E+02 -0.10702824075E+02 -0.39738294175E+02  0.45045682083E+02  0.00000000000E+00 0. -1.
         11    1    3    3    0    0 -0.32558091068E+01  0.31447069459E+01  0.42561155229E+01  0.62132112729E+01  0.51100000000E-03 0. -1.
        -11    1    3    3    0    0 -0.94606739626E+01  0.80631067671E+01  0.21126418111E+02  0.24512110987E+02  0.51100000000E-03 0.  1.
        -12    1    3    3    0    0 -0.55982925837E+01 -0.50498963763E+00  0.14355760541E+02  0.15416995657E+02  0.00000000000E+00 0.  1.
</event>
<event>
 7    1  0.2328810E-008  0.4614232E+02  0.7816164E-02  0.1320468E+00
        -11   -1    0    0    0    0  0.00000000000E+00  0.00000000000E+00  0.45593999997E+02  0.45594000000E+02  0.51100000000E-03 0.  1.
         11   -1    0    0    0    0 -0.00000000000E+00 -0.00000000000E+00 -0.45593999997E+02  0.45594000000E+02  0.51100000000E-03 0. -1.
    9900012    2    1    2    0    0  0.40891058449E+01  0.16788259110E+01  0.44828274620E+02  0.46142318204E+02  0.10000004035E+02 0.  0.
         12    1    1    2    0    0 -0.40891058449E+01 -0.16788259110E+01 -0.44828274620E+02  0.45045681796E+02  0.00000000000E+00 0. -1.
         11    1    3    3    0    0  0.14817093910E+01  0.22846525027E+01  0.83301067290E+01  0.87638905832E+01  0.51100000000E-03 0. -1.
        -11    1    3    3    0    0  0.50069570210E+01  0.51432369076E+00  0.28825151679E+02  0.29261297255E+02  0.51100000000E-03 0.  1.
         12    1    3    3    0    0 -0.23995605671E+01 -0.11201502824E+01  0.76730162126E+01  0.81171303654E+01  0.00000000000E+00 0. -1.
</event>
<event>
 7    1  0.2328810E-008  0.4614232E+02  0.7816164E-02  0.1320468E+00
        -11   -1    0    0    0    0  0.00000000000E+00  0.00000000000E+00  0.45593999997E+02  0.45594000000E+02  0.51100000000E-03 0.  1.
         11   -1    0    0    0    0 -0.00000000000E+00 -0.00000000000E+00 -0.45593999997E+02  0.45594000000E+02  0.51100000000E-03 0. -1.
    9900012    2    1    2    0    0  0.40338640751E+02 -0.18599144565E+01  0.19961167958E+02  0.46142318235E+02  0.10000004322E+02 0.  0.
         12    1    1    2    0    0 -0.40338640751E+02  0.18599144565E+01 -0.19961167958E+02  0.45045681765E+02  0.00000000000E+00 0. -1.
         11    1    3    3    0    0  0.10120690843E+02 -0.25739524039E+01  0.89043952895E+01  0.13723770249E+02  0.51100000000E-03 0. -1.
        -11    1    3    3    0    0  0.10084866536E+02  0.98854522213E-01  0.17748792144E+01  0.10240336994E+02  0.51100000000E-03 0.  1.
         12    1    3    3    0    0  0.20133083372E+02  0.61518342516E+00  0.92818934542E+01  0.22178210992E+02  0.00000000000E+00 0. -1.
</event>
<event>
 7    1  0.2328810E-008  0.4614232E+02  0.7816164E-02  0.1320468E+00
        -11   -1    0    0    0    0  0.00000000000E+00  0.00000000000E+00  0.45593999997E+02  0.45594000000E+02  0.51100000000E-03 0.  1.
         11   -1    0    0    0    0 -0.00000000000E+00 -0.00000000000E+00 -0.45593999997E+02  0.45594000000E+02  0.51100000000E-03 0. -1.
    9900012    2    1    2    0    0 -0.25868240755E+02  0.12390441434E+02  0.34733621692E+02  0.46142318803E+02  0.10000009498E+02 0.  0.
         12    1    1    2    0    0  0.25868240755E+02 -0.12390441434E+02 -0.34733621692E+02  0.45045681197E+02  0.00000000000E+00 0. -1.
         11    1    3    3    0    0 -0.47743851723E+01 -0.22663555334E+00  0.20450251258E+01  0.51988696342E+01  0.51100000000E-03 0. -1.
        -11    1    3    3    0    0 -0.42490873989E+01  0.17880090725E+01  0.55099461487E+01  0.71840954191E+01  0.51100000000E-03 0.  1.
         12    1    3    3    0    0 -0.16844768184E+02  0.10829067914E+02  0.27178650418E+02  0.33759353749E+02  0.00000000000E+00 0. -1.
</event>
<event>
 7    1  0.2328810E-008  0.4614232E+02  0.7816164E-02  0.1320468E+00
        -11   -1    0    0    0    0  0.00000000000E+00  0.00000000000E+00  0.45593999997E+02  0.45594000000E+02  0.51100000000E-03 0. -1.
         11   -1    0    0    0    0 -0.00000000000E+00 -0.00000000000E+00 -0.45593999997E+02  0.45594000000E+02  0.51100000000E-03 0.  1.
    9900012    2    1    2    0    0  0.37316166814E+01  0.43890224165E+02  0.94253226036E+01  0.46142318226E+02  0.10000004238E+02 0.  0.
         12    1    1    2    0    0 -0.37316166814E+01 -0.43890224165E+02 -0.94253226036E+01  0.45045681774E+02  0.00000000000E+00 0. -1.
         11    1    3    3    0    0  0.16937720267E+01  0.23321828446E+01  0.19995931132E+00  0.28892775025E+01  0.51100000000E-03 0. -1.
        -11    1    3    3    0    0  0.36497573728E+00  0.36201451675E+01 -0.12714321202E+01  0.38542441827E+01  0.51100000000E-03 0.  1.
        -12    1    3    3    0    0  0.16728689174E+01  0.37937896153E+02  0.10496795412E+02  0.39398796541E+02  0.00000000000E+00 0.  1.
</event>
<event>
 7    1  0.2328810E-008  0.4614232E+02  0.7816164E-02  0.1320468E+00
        -11   -1    0    0    0    0  0.00000000000E+00  0.00000000000E+00  0.45593999997E+02  0.45594000000E+02  0.51100000000E-03 0.  1.
         11   -1    0    0    0    0 -0.00000000000E+00 -0.00000000000E+00 -0.45593999997E+02  0.45594000000E+02  0.51100000000E-03 0. -1.
    9900012    2    1    2    0    0 -0.11598153159E+02 -0.37193876651E+02  0.22609999270E+02  0.46142315589E+02  0.99999801922E+01 0.  0.
         12    1    1    2    0    0  0.11598153159E+02  0.37193876651E+02 -0.22609999270E+02  0.45045684411E+02  0.00000000000E+00 0. -1.
         11    1    3    3    0    0 -0.17729319757E+00 -0.45534523511E+00 -0.25605532451E+00  0.55166724696E+00  0.51100000000E-03 0. -1.
        -11    1    3    3    0    0 -0.11884311275E+02 -0.27602994511E+02  0.19592852087E+02  0.35875367783E+02  0.51100000000E-03 0.  1.
        -12    1    3    3    0    0  0.46345131339E+00 -0.91355369056E+01  0.32732025079E+01  0.97152805585E+01  0.00000000000E+00 0.  1.
</event>
<event>
 7    1  0.2328810E-008  0.4614232E+02  0.7816164E-02  0.1320468E+00
        -11   -1    0    0    0    0  0.00000000000E+00  0.00000000000E+00  0.45593999997E+02  0.45594000000E+02  0.51100000000E-03 0.  1.
         11   -1    0    0    0    0 -0.00000000000E+00 -0.00000000000E+00 -0.45593999997E+02  0.45594000000E+02  0.51100000000E-03 0. -1.
    9900012    2    1    2    0    0 -0.24992983830E+02  0.36442001636E+02  0.87432597791E+01  0.46142319680E+02  0.10000017496E+02 0.  0.
         12    1    1    2    0    0  0.24992983830E+02 -0.36442001636E+02 -0.87432597791E+01  0.45045680320E+02  0.00000000000E+00 0. -1.
         11    1    3    3    0    0 -0.16844673896E+02  0.18552762499E+02  0.15914664893E+01  0.25109376751E+02  0.51100000000E-03 0. -1.
        -11    1    3    3    0    0 -0.50079589770E+01  0.83964272757E+01  0.37588209825E+01  0.10474176796E+02  0.51100000000E-03 0.  1.
         12    1    3    3    0    0 -0.31403509574E+01  0.94928118612E+01  0.33929723073E+01  0.10558766133E+02  0.00000000000E+00 0. -1.
</event>
<event>
 7    1  0.2328810E-008  0.4614232E+02  0.7816164E-02  0.1320468E+00
        -11   -1    0    0    0    0  0.00000000000E+00  0.00000000000E+00  0.45593999997E+02  0.45594000000E+02  0.51100000000E-03 0.  1.
         11   -1    0    0    0    0 -0.00000000000E+00 -0.00000000000E+00 -0.45593999997E+02  0.45594000000E+02  0.51100000000E-03 0. -1.
    9900012    2    1    2    0    0  0.31097624616E+02 -0.32156433657E+02  0.52929216803E+01  0.46142317608E+02  0.99999986019E+01 0.  0.
         12    1    1    2    0    0 -0.31097624616E+02  0.32156433657E+02 -0.52929216803E+01  0.45045682392E+02  0.00000000000E+00 0. -1.
         11    1    3    3    0    0  0.74998608485E+01 -0.73508090182E+01  0.40224458639E+01  0.11245549207E+02  0.51100000000E-03 0.  1.
        -11    1    3    3    0    0  0.56840225574E+00  0.37826051830E-01  0.84441744381E+00  0.10186034631E+01  0.51100000000E-03 0. -1.
        -12    1    3    3    0    0  0.23029361512E+02 -0.24843450690E+02  0.42605837258E+00  0.33878164938E+02  0.00000000000E+00 0.  1.
</event>
<event>
 7    1  0.2328810E-008  0.4614232E+02  0.7816164E-02  0.1320468E+00
        -11   -1    0    0    0    0  0.00000000000E+00  0.00000000000E+00  0.45593999997E+02  0.45594000000E+02  0.51100000000E-03 0.  1.
         11   -1    0    0    0    0 -0.00000000000E+00 -0.00000000000E+00 -0.45593999997E+02  0.45594000000E+02  0.51100000000E-03 0. -1.
    9900012    2    1    2    0    0 -0.30453124935E+01  0.25906622947E+02  0.36724467186E+02  0.46142317290E+02  0.99999957047E+01 0.  0.
         12    1    1    2    0    0  0.30453124935E+01 -0.25906622947E+02 -0.36724467186E+02  0.45045682710E+02  0.00000000000E+00 0. -1.
         11    1    3    3    0    0  0.60925447092E+00  0.22339561381E+01  0.57901027316E+01  0.62359474774E+01  0.51100000000E-03 0.  1.
        -11    1    3    3    0    0 -0.10930513511E+01  0.10838137904E+02  0.80534652745E+01  0.13546892547E+02  0.51100000000E-03 0. -1.
         12    1    3    3    0    0 -0.25615156133E+01  0.12834528905E+02  0.22880899180E+02  0.26359477266E+02  0.00000000000E+00 0. -1.
</event>
<event>
 7    1  0.2328810E-008  0.4614232E+02  0.7816164E-02  0.1320468E+00
        -11   -1    0    0    0    0  0.00000000000E+00  0.00000000000E+00  0.45593999997E+02  0.45594000000E+02  0.51100000000E-03 0.  1.
         11   -1    0    0    0    0 -0.00000000000E+00 -0.00000000000E+00 -0.45593999997E+02  0.45594000000E+02  0.51100000000E-03 0. -1.
    9900012    2    1    2    0    0  0.25270882026E+02  0.30864922335E+02  0.20924927337E+02  0.46142317708E+02  0.99999995143E+01 0.  0.
         12    1    1    2    0    0 -0.25270882026E+02 -0.30864922335E+02 -0.20924927337E+02  0.45045682292E+02  0.00000000000E+00 0. -1.
         11    1    3    3    0    0  0.31454960537E+01  0.76375456850E+01  0.14677744663E+01  0.83893153272E+01  0.51100000000E-03 0. -1.
        -11    1    3    3    0    0  0.43003863619E+01  0.71419990027E+01  0.53432150619E+01  0.99020917020E+01  0.51100000000E-03 0.  1.
        -12    1    3    3    0    0  0.17824999610E+02  0.16085377647E+02  0.14113937809E+02  0.27850910679E+02  0.00000000000E+00 0.  1.
</event>
<event>
 7    1  0.2328810E-008  0.4614232E+02  0.7816164E-02  0.1320468E+00
        -11   -1    0    0    0    0  0.00000000000E+00  0.00000000000E+00  0.45593999997E+02  0.45594000000E+02  0.51100000000E-03 0. -1.
         11   -1    0    0    0    0 -0.00000000000E+00 -0.00000000000E+00 -0.45593999997E+02  0.45594000000E+02  0.51100000000E-03 0.  1.
    9900012    2    1    2    0    0 -0.11416997687E+02 -0.27239821963E+02 -0.34011142902E+02  0.46142316763E+02  0.99999908977E+01 0.  0.
         12    1    1    2    0    0  0.11416997687E+02  0.27239821963E+02  0.34011142902E+02  0.45045683237E+02  0.00000000000E+00 0. -1.
         11    1    3    3    0    0  0.73548458384E+00 -0.98005089998E+01 -0.95681712539E+01  0.13716443257E+02  0.51100000000E-03 0. -1.
        -11    1    3    3    0    0 -0.60714059195E+01 -0.94782997877E+01 -0.12032798881E+02  0.16476904620E+02  0.51100000000E-03 0.  1.
         12    1    3    3    0    0 -0.60810763512E+01 -0.79610131757E+01 -0.12410172768E+02  0.15948968885E+02  0.00000000000E+00 0. -1.
</event>
<event>
 7    1  0.2328810E-008  0.4614232E+02  0.7816164E-02  0.1320468E+00
        -11   -1    0    0    0    0  0.00000000000E+00  0.00000000000E+00  0.45593999997E+02  0.45594000000E+02  0.51100000000E-03 0.  1.
         11   -1    0    0    0    0 -0.00000000000E+00 -0.00000000000E+00 -0.45593999997E+02  0.45594000000E+02  0.51100000000E-03 0. -1.
    9900012    2    1    2    0    0 -0.36323679136E+01 -0.43494515043E+02  0.11142114390E+02  0.46142315983E+02  0.99999837834E+01 0.  0.
         12    1    1    2    0    0  0.36323679136E+01  0.43494515043E+02 -0.11142114390E+02  0.45045684017E+02  0.00000000000E+00 0. -1.
         11    1    3    3    0    0 -0.52593814944E+00 -0.12395350447E+02  0.39244514475E+01  0.13012403432E+02  0.51100000000E-03 0. -1.
        -11    1    3    3    0    0  0.18297358431E+01 -0.19515884852E+02  0.58988944192E+01  0.20469847347E+02  0.51100000000E-03 0.  1.
         12    1    3    3    0    0 -0.49361656073E+01 -0.11583279744E+02  0.13187685231E+01  0.12660065203E+02  0.00000000000E+00 0. -1.
</event>
<event>
 7    1  0.2328810E-008  0.4614232E+02  0.7816164E-02  0.1320468E+00
        -11   -1    0    0    0    0  0.00000000000E+00  0.00000000000E+00  0.45593999997E+02  0.45594000000E+02  0.51100000000E-03 0.  1.
         11   -1    0    0    0    0 -0.00000000000E+00 -0.00000000000E+00 -0.45593999997E+02  0.45594000000E+02  0.51100000000E-03 0. -1.
    9900012    2    1    2    0    0 -0.18872181792E+02 -0.21382895349E+02  0.34867266035E+02  0.46142315413E+02  0.99999785899E+01 0.  0.
         12    1    1    2    0    0  0.18872181792E+02  0.21382895349E+02 -0.34867266035E+02  0.45045684587E+02  0.00000000000E+00 0. -1.
         11    1    3    3    0    0 -0.62534238410E+01 -0.72035366166E+01  0.17015233768E+02  0.19506779077E+02  0.51100000000E-03 0. -1.
        -11    1    3    3    0    0 -0.82749466716E+01 -0.88308716805E+01  0.76244953754E+01  0.14303564837E+02  0.51100000000E-03 0.  1.
        -12    1    3    3    0    0 -0.43438112798E+01 -0.53484870523E+01  0.10227536892E+02  0.12331971499E+02  0.00000000000E+00 0.  1.
</event>
<event>
 7    1  0.2328810E-008  0.4614233E+02  0.7816164E-02  0.1320468E+00
        -11   -1    0    0    0    0  0.00000000000E+00  0.00000000000E+00  0.45593999997E+02  0.45594000000E+02  0.51100000000E-03 0.  1.
         11   -1    0    0    0    0 -0.00000000000E+00 -0.00000000000E+00 -0.45593999997E+02  0.45594000000E+02  0.51100000000E-03 0. -1.
    9900012    2    1    2    0    0  0.17203618356E+02  0.77751191273E+01  0.40898604007E+02  0.46142325716E+02  0.10000072538E+02 0.  0.
         12    1    1    2    0    0 -0.17203618356E+02 -0.77751191273E+01 -0.40898604007E+02  0.45045674284E+02  0.00000000000E+00 0. -1.
         11    1    3    3    0    0  0.44625873565E+01 -0.21470102734E+00  0.71499119185E+01  0.84310155467E+01  0.51100000000E-03 0. -1.
        -11    1    3    3    0    0  0.66728761643E+01  0.24748433023E+01  0.80936958240E+01  0.10777756632E+02  0.51100000000E-03 0.  1.
        -12    1    3    3    0    0  0.60681548350E+01  0.55149768523E+01  0.25654996265E+02  0.26933553537E+02  0.00000000000E+00 0.  1.
</event>
<event>
 7    1  0.2328810E-008  0.4614232E+02  0.7816164E-02  0.1320468E+00
        -11   -1    0    0    0    0  0.00000000000E+00  0.00000000000E+00  0.45593999997E+02  0.45594000000E+02  0.51100000000E-03 0.  1.
         11   -1    0    0    0    0 -0.00000000000E+00 -0.00000000000E+00 -0.45593999997E+02  0.45594000000E+02  0.51100000000E-03 0. -1.
    9900012    2    1    2    0    0 -0.22502193880E+02  0.47855732784E+01  0.38728066533E+02  0.46142316762E+02  0.99999908891E+01 0.  0.
         12    1    1    2    0    0  0.22502193880E+02 -0.47855732784E+01 -0.38728066533E+02  0.45045683238E+02  0.00000000000E+00 0. -1.
         11    1    3    3    0    0 -0.10881976401E+02  0.13840010404E+01  0.18837009714E+02  0.21798298202E+02  0.51100000000E-03 0.  1.
        -11    1    3    3    0    0 -0.50649588918E+01  0.14420405398E+01  0.15098580516E+02  0.15990635489E+02  0.51100000000E-03 0. -1.
         12    1    3    3    0    0 -0.65552585866E+01  0.19595316981E+01  0.47924763035E+01  0.83533830711E+01  0.00000000000E+00 0. -1.
</event>
<event>
 7    1  0.2328810E-008  0.4614231E+02  0.7816164E-02  0.1320468E+00
        -11   -1    0    0    0    0  0.00000000000E+00  0.00000000000E+00  0.45593999997E+02  0.45594000000E+02  0.51100000000E-03 0. -1.
         11   -1    0    0    0    0 -0.00000000000E+00 -0.00000000000E+00 -0.45593999997E+02  0.45594000000E+02  0.51100000000E-03 0.  1.
    9900012    2    1    2    0    0 -0.90644252289E+01  0.28691914283E+02 -0.33522000730E+02  0.46142308942E+02  0.99999195787E+01 0.  0.
         12    1    1    2    0    0  0.90644252289E+01 -0.28691914283E+02  0.33522000730E+02  0.45045691058E+02  0.00000000000E+00 0. -1.
         11    1    3    3    0    0 -0.54273730894E+01  0.78285093398E+01 -0.66447731341E+01  0.11614428415E+02  0.51100000000E-03 0. -1.
        -11    1    3    3    0    0 -0.24582728497E+01  0.10939586362E+02 -0.10612990583E+02  0.15438692450E+02  0.51100000000E-03 0.  1.
        -12    1    3    3    0    0 -0.11787792898E+01  0.99238185808E+01 -0.16264237013E+02  0.19089188077E+02  0.00000000000E+00 0.  1.
</event>
<event>
 7    1  0.2328810E-008  0.4614232E+02  0.7816164E-02  0.1320468E+00
        -11   -1    0    0    0    0  0.00000000000E+00  0.00000000000E+00  0.45593999997E+02  0.45594000000E+02  0.51100000000E-03 0.  1.
         11   -1    0    0    0    0 -0.00000000000E+00 -0.00000000000E+00 -0.45593999997E+02  0.45594000000E+02  0.51100000000E-03 0. -1.
    9900012    2    1    2    0    0  0.39773679562E+02  0.12375487189E+02  0.17146863269E+02  0.46142321084E+02  0.10000030300E+02 0.  0.
         12    1    1    2    0    0 -0.39773679562E+02 -0.12375487189E+02 -0.17146863269E+02  0.45045678916E+02  0.00000000000E+00 0. -1.
         11    1    3    3    0    0  0.57899142010E+00 -0.21014656836E+00 -0.68232409529E-01  0.61971652195E+00  0.51100000000E-03 0. -1.
        -11    1    3    3    0    0  0.59087556290E+01 -0.85067129738E+00  0.43691314075E+01  0.73977256137E+01  0.51100000000E-03 0.  1.
        -12    1    3    3    0    0  0.33285932513E+02  0.13436305055E+02  0.12845964271E+02  0.38124878948E+02  0.00000000000E+00 0.  1.
</event>
<event>
 7    1  0.2328810E-008  0.4614232E+02  0.7816164E-02  0.1320468E+00
        -11   -1    0    0    0    0  0.00000000000E+00  0.00000000000E+00  0.45593999997E+02  0.45594000000E+02  0.51100000000E-03 0.  1.
         11   -1    0    0    0    0 -0.00000000000E+00 -0.00000000000E+00 -0.45593999997E+02  0.45594000000E+02  0.51100000000E-03 0. -1.
    9900012    2    1    2    0    0 -0.83915293110E+01 -0.13357393775E+02  0.42193314063E+02  0.46142317807E+02  0.10000000415E+02 0.  0.
         12    1    1    2    0    0  0.83915293110E+01  0.13357393775E+02 -0.42193314063E+02  0.45045682193E+02  0.00000000000E+00 0. -1.
         11    1    3    3    0    0  0.37070632904E+00 -0.63114163311E+00  0.64252552660E+00  0.97396214346E+00  0.51100000000E-03 0. -1.
        -11    1    3    3    0    0 -0.13894813632E+00 -0.72269966694E+01  0.21079185122E+02  0.22284093724E+02  0.51100000000E-03 0.  1.
         12    1    3    3    0    0 -0.86232875037E+01 -0.54992554725E+01  0.20471603414E+02  0.22884261939E+02  0.00000000000E+00 0. -1.
</event>
<event>
 7    1  0.2328810E-008  0.4614232E+02  0.7816164E-02  0.1320468E+00
        -11   -1    0    0    0    0  0.00000000000E+00  0.00000000000E+00  0.45593999997E+02  0.45594000000E+02  0.51100000000E-03 0.  1.
         11   -1    0    0    0    0 -0.00000000000E+00 -0.00000000000E+00 -0.45593999997E+02  0.45594000000E+02  0.51100000000E-03 0. -1.
    9900012    2    1    2    0    0 -0.16319338626E+02 -0.19421481103E+02  0.37223631400E+02  0.46142317898E+02  0.10000001251E+02 0.  0.
         12    1    1    2    0    0  0.16319338626E+02  0.19421481103E+02 -0.37223631400E+02  0.45045682102E+02  0.00000000000E+00 0. -1.
         11    1    3    3    0    0 -0.61252411191E+01 -0.83124076148E+01  0.16042427715E+02  0.19078107515E+02  0.51100000000E-03 0. -1.
        -11    1    3    3    0    0 -0.34585067739E+01 -0.55728742790E+01  0.15015780880E+02  0.16385721605E+02  0.51100000000E-03 0.  1.
         12    1    3    3    0    0 -0.67355907332E+01 -0.55361992093E+01  0.61654228049E+01  0.10678488778E+02  0.00000000000E+00 0. -1.
</event>
<event>
 7    1  0.2328810E-008  0.4614232E+02  0.7816164E-02  0.1320468E+00
        -11   -1    0    0    0    0  0.00000000000E+00  0.00000000000E+00  0.45593999997E+02  0.45594000000E+02  0.51100000000E-03 0.  1.
         11   -1    0    0    0    0 -0.00000000000E+00 -0.00000000000E+00 -0.45593999997E+02  0.45594000000E+02  0.51100000000E-03 0. -1.
    9900012    2    1    2    0    0 -0.84764561792E+01  0.30262151895E+02  0.32271743164E+02  0.46142317038E+02  0.99999934085E+01 0.  0.
         12    1    1    2    0    0  0.84764561792E+01 -0.30262151895E+02 -0.32271743164E+02  0.45045682962E+02  0.00000000000E+00 0. -1.
         11    1    3    3    0    0 -0.38044095653E+01  0.99836732159E+01  0.83679684924E+01  0.13570930697E+02  0.51100000000E-03 0. -1.
        -11    1    3    3    0    0 -0.61722709939E+01  0.19460734914E+02  0.22073410499E+02  0.30067467202E+02  0.51100000000E-03 0.  1.
        -12    1    3    3    0    0  0.15002243799E+01  0.81774376488E+00  0.18303641723E+01  0.25039191398E+01  0.00000000000E+00 0.  1.
</event>
<event>
 7    1  0.2328810E-008  0.4614232E+02  0.7816164E-02  0.1320468E+00
        -11   -1    0    0    0    0  0.00000000000E+00  0.00000000000E+00  0.45593999997E+02  0.45594000000E+02  0.51100000000E-03 0. -1.
         11   -1    0    0    0    0 -0.00000000000E+00 -0.00000000000E+00 -0.45593999997E+02  0.45594000000E+02  0.51100000000E-03 0.  1.
    9900012    2    1    2    0    0  0.40427237211E+02  0.19861717315E+02 -0.51389565470E+00  0.46142318609E+02  0.10000007734E+02 0.  0.
         12    1    1    2    0    0 -0.40427237211E+02 -0.19861717315E+02  0.51389565470E+00  0.45045681391E+02  0.00000000000E+00 0. -1.
         11    1    3    3    0    0  0.14038794671E+02  0.93783978003E+01  0.14809171238E+01  0.16948015132E+02  0.51100000000E-03 0. -1.
        -11    1    3    3    0    0  0.10742013037E+02  0.65863404228E+01  0.15183943203E+01  0.12691581691E+02  0.51100000000E-03 0.  1.
         12    1    3    3    0    0  0.15646429503E+02  0.38969790915E+01 -0.35132070988E+01  0.16502721786E+02  0.00000000000E+00 0. -1.
</event>
<event>
 7    1  0.2328810E-008  0.4614232E+02  0.7816164E-02  0.1320468E+00
        -11   -1    0    0    0    0  0.00000000000E+00  0.00000000000E+00  0.45593999997E+02  0.45594000000E+02  0.51100000000E-03 0.  1.
         11   -1    0    0    0    0 -0.00000000000E+00 -0.00000000000E+00 -0.45593999997E+02  0.45594000000E+02  0.51100000000E-03 0. -1.
    9900012    2    1    2    0    0 -0.17234116821E+02 -0.54389188875E+01  0.41261565620E+02  0.46142318535E+02  0.10000007054E+02 0.  0.
         12    1    1    2    0    0  0.17234116821E+02  0.54389188875E+01 -0.41261565620E+02  0.45045681465E+02  0.00000000000E+00 0. -1.
         11    1    3    3    0    0 -0.29079815237E+01 -0.75542202048E+00  0.48059880488E+01  0.56678514763E+01  0.51100000000E-03 0. -1.
        -11    1    3    3    0    0 -0.11571446952E+02  0.18584989477E+00  0.28393306320E+02  0.30661258435E+02  0.51100000000E-03 0.  1.
         12    1    3    3    0    0 -0.27546883452E+01 -0.48693467618E+01  0.80622712511E+01  0.98132086238E+01  0.00000000000E+00 0. -1.
</event>
<event>
 7    1  0.2328810E-008  0.4614232E+02  0.7816164E-02  0.1320468E+00
        -11   -1    0    0    0    0  0.00000000000E+00  0.00000000000E+00  0.45593999997E+02  0.45594000000E+02  0.51100000000E-03 0.  1.
         11   -1    0    0    0    0 -0.00000000000E+00 -0.00000000000E+00 -0.45593999997E+02  0.45594000000E+02  0.51100000000E-03 0. -1.
    9900012    2    1    2    0    0  0.98057819289E+00 -0.27243946341E+02  0.35859717409E+02  0.46142317871E+02  0.10000001004E+02 0.  0.
         12    1    1    2    0    0 -0.98057819289E+00  0.27243946341E+02 -0.35859717409E+02  0.45045682129E+02  0.00000000000E+00 0. -1.
         11    1    3    3    0    0 -0.11105598189E+01 -0.49157099500E+01  0.24988681143E+01  0.56251124023E+01  0.51100000000E-03 0. -1.
        -11    1    3    3    0    0 -0.14928863635E+01 -0.77612740084E+01  0.13240076488E+02  0.15419653355E+02  0.51100000000E-03 0.  1.
         12    1    3    3    0    0  0.35840243754E+01 -0.14566962382E+02  0.20120772807E+02  0.25097552114E+02  0.00000000000E+00 0. -1.
</event>
<event>
 7    1  0.2328810E-008  0.4614232E+02  0.7816164E-02  0.1320468E+00
        -11   -1    0    0    0    0  0.00000000000E+00  0.00000000000E+00  0.45593999997E+02  0.45594000000E+02  0.51100000000E-03 0. -1.
         11   -1    0    0    0    0 -0.00000000000E+00 -0.00000000000E+00 -0.45593999997E+02  0.45594000000E+02  0.51100000000E-03 0.  1.
    9900012    2    1    2    0    0 -0.25938787386E+02  0.25032643518E+02 -0.27012207029E+02  0.46142320284E+02  0.10000023005E+02 0.  0.
         12    1    1    2    0    0  0.25938787386E+02 -0.25032643518E+02  0.27012207029E+02  0.45045679716E+02  0.00000000000E+00 0. -1.
         11    1    3    3    0    0 -0.20045115908E+01  0.22647064406E+01 -0.57416118459E+00  0.30784124653E+01  0.51100000000E-03 0. -1.
        -11    1    3    3    0    0 -0.14948108785E+02  0.10413088326E+02 -0.10686050747E+02  0.21120370394E+02  0.51100000000E-03 0.  1.
        -12    1    3    3    0    0 -0.89861670099E+01  0.12354848751E+02 -0.15751995097E+02  0.21943537425E+02  0.00000000000E+00 0.  1.
</event>
<event>
 7    1  0.2328810E-008  0.4614232E+02  0.7816164E-02  0.1320468E+00
        -11   -1    0    0    0    0  0.00000000000E+00  0.00000000000E+00  0.45593999997E+02  0.45594000000E+02  0.51100000000E-03 0. -1.
         11   -1    0    0    0    0 -0.00000000000E+00 -0.00000000000E+00 -0.45593999997E+02  0.45594000000E+02  0.51100000000E-03 0.  1.
    9900012    2    1    2    0    0 -0.38454446391E+02 -0.23197242525E+02 -0.35009970146E+01  0.46142317764E+02  0.10000000026E+02 0.  0.
         12    1    1    2    0    0  0.38454446391E+02  0.23197242525E+02  0.35009970146E+01  0.45045682236E+02  0.00000000000E+00 0. -1.
         11    1    3    3    0    0 -0.67127199959E+01 -0.46467657367E+01 -0.18346971388E+01  0.83677449416E+01  0.51100000000E-03 0. -1.
        -11    1    3    3    0    0 -0.25264483157E+02 -0.13558683504E+02 -0.46939458512E+01  0.29054520052E+02  0.51100000000E-03 0.  1.
        -12    1    3    3    0    0 -0.64772432387E+01 -0.49917932838E+01  0.30276459755E+01  0.87200527702E+01  0.00000000000E+00 0.  1.
</event>
<event>
 7    1  0.2328810E-008  0.4614232E+02  0.7816164E-02  0.1320468E+00
        -11   -1    0    0    0    0  0.00000000000E+00  0.00000000000E+00  0.45593999997E+02  0.45594000000E+02  0.51100000000E-03 0.  1.
         11   -1    0    0    0    0 -0.00000000000E+00 -0.00000000000E+00 -0.45593999997E+02  0.45594000000E+02  0.51100000000E-03 0. -1.
    9900012    2    1    2    0    0  0.11547383726E+02  0.40746347748E+02  0.15346223826E+02  0.46142317505E+02  0.99999976619E+01 0.  0.
         12    1    1    2    0    0 -0.11547383726E+02 -0.40746347748E+02 -0.15346223826E+02  0.45045682495E+02  0.00000000000E+00 0. -1.
         11    1    3    3    0    0  0.14344791950E+01  0.12223765371E+02  0.44422623630E+01  0.13084795206E+02  0.51100000000E-03 0. -1.
        -11    1    3    3    0    0  0.39359154345E+01  0.15845072638E+02  0.94904985258E+01  0.18884578887E+02  0.51100000000E-03 0.  1.
         12    1    3    3    0    0  0.61769890969E+01  0.12677509739E+02  0.14134629374E+01  0.14172943412E+02  0.00000000000E+00 0. -1.
</event>
<event>
 7    1  0.2328810E-008  0.4614232E+02  0.7816164E-02  0.1320468E+00
        -11   -1    0    0    0    0  0.00000000000E+00  0.00000000000E+00  0.45593999997E+02  0.45594000000E+02  0.51100000000E-03 0.  1.
         11   -1    0    0    0    0 -0.00000000000E+00 -0.00000000000E+00 -0.45593999997E+02  0.45594000000E+02  0.51100000000E-03 0. -1.
    9900012    2    1    2    0    0  0.24110626300E+01  0.12187654773E+02  0.43298514793E+02  0.46142317242E+02  0.99999952628E+01 0.  0.
         12    1    1    2    0    0 -0.24110626300E+01 -0.12187654773E+02 -0.43298514793E+02  0.45045682758E+02  0.00000000000E+00 0. -1.
         11    1    3    3    0    0 -0.10373900247E+00  0.16318345224E+01  0.11244525017E+02  0.11362789658E+02  0.51100000000E-03 0.  1.
        -11    1    3    3    0    0  0.21857166434E+01  0.46919943953E+00  0.13262059947E+02  0.13449153864E+02  0.51100000000E-03 0. -1.
         12    1    3    3    0    0  0.32908498906E+00  0.10086620811E+02  0.18791929829E+02  0.21330373720E+02  0.00000000000E+00 0. -1.
</event>
<event>
 7    1  0.2328810E-008  0.4614232E+02  0.7816164E-02  0.1320468E+00
        -11   -1    0    0    0    0  0.00000000000E+00  0.00000000000E+00  0.45593999997E+02  0.45594000000E+02  0.51100000000E-03 0.  1.
         11   -1    0    0    0    0 -0.00000000000E+00 -0.00000000000E+00 -0.45593999997E+02  0.45594000000E+02  0.51100000000E-03 0. -1.
    9900012    2    1    2    0    0 -0.40356034227E+02  0.88783551390E+01  0.17935406242E+02  0.46142317792E+02  0.10000000285E+02 0.  0.
         12    1    1    2    0    0  0.40356034227E+02 -0.88783551390E+01 -0.17935406242E+02  0.45045682208E+02  0.00000000000E+00 0. -1.
         11    1    3    3    0    0 -0.73651515079E+01  0.32716987115E+01  0.36872522538E+01  0.88625785546E+01  0.51100000000E-03 0. -1.
        -11    1    3    3    0    0 -0.19629483691E+02  0.41204161073E+01  0.41911762325E+01  0.20490495781E+02  0.51100000000E-03 0.  1.
        -12    1    3    3    0    0 -0.13361399028E+02  0.14862403203E+01  0.10056977756E+02  0.16789243457E+02  0.00000000000E+00 0.  1.
</event>
<event>
 7    1  0.2328810E-008  0.4614232E+02  0.7816164E-02  0.1320468E+00
        -11   -1    0    0    0    0  0.00000000000E+00  0.00000000000E+00  0.45593999997E+02  0.45594000000E+02  0.51100000000E-03 0. -1.
         11   -1    0    0    0    0 -0.00000000000E+00 -0.00000000000E+00 -0.45593999997E+02  0.45594000000E+02  0.51100000000E-03 0.  1.
    9900012    2    1    2    0    0 -0.17550523187E+02  0.16131073952E+02 -0.38221474382E+02  0.46142317466E+02  0.99999973118E+01 0.  0.
         12    1    1    2    0    0  0.17550523187E+02 -0.16131073952E+02  0.38221474382E+02  0.45045682534E+02  0.00000000000E+00 0. -1.
         11    1    3    3    0    0 -0.15068941920E+02  0.11516274588E+02 -0.25573892934E+02  0.31838994818E+02  0.51100000000E-03 0. -1.
        -11    1    3    3    0    0 -0.26114914381E+01  0.10136043798E+01 -0.35785348077E+01  0.45445784184E+01  0.51100000000E-03 0.  1.
         12    1    3    3    0    0  0.12991017183E+00  0.36011949840E+01 -0.90690466409E+01  0.97587442297E+01  0.00000000000E+00 0. -1.
</event>
<event>
 7    1  0.2328810E-008  0.4614232E+02  0.7816164E-02  0.1320468E+00
        -11   -1    0    0    0    0  0.00000000000E+00  0.00000000000E+00  0.45593999997E+02  0.45594000000E+02  0.51100000000E-03 0.  1.
         11   -1    0    0    0    0 -0.00000000000E+00 -0.00000000000E+00 -0.45593999997E+02  0.45594000000E+02  0.51100000000E-03 0. -1.
    9900012    2    1    2    0    0  0.23798777844E+01 -0.22192100513E+02  0.39127488007E+02  0.46142318063E+02  0.10000002753E+02 0.  0.
         12    1    1    2    0    0 -0.23798777844E+01  0.22192100513E+02 -0.39127488007E+02  0.45045681937E+02  0.00000000000E+00 0. -1.
         11    1    3    3    0    0 -0.32792258424E+00 -0.47971919088E+01  0.12108521730E+02  0.13028310795E+02  0.51100000000E-03 0. -1.
        -11    1    3    3    0    0 -0.14207486541E+00 -0.88624505094E-01 -0.47403738487E+00  0.50274374552E+00  0.51100000000E-03 0.  1.
        -12    1    3    3    0    0  0.28498752340E+01 -0.17306284100E+02  0.27493003662E+02  0.32611263522E+02  0.00000000000E+00 0.  1.
</event>
<event>
 7    1  0.2328810E-008  0.4614232E+02  0.7816164E-02  0.1320468E+00
        -11   -1    0    0    0    0  0.00000000000E+00  0.00000000000E+00  0.45593999997E+02  0.45594000000E+02  0.51100000000E-03 0.  1.
         11   -1    0    0    0    0 -0.00000000000E+00 -0.00000000000E+00 -0.45593999997E+02  0.45594000000E+02  0.51100000000E-03 0. -1.
    9900012    2    1    2    0    0 -0.33782736896E+02  0.25709458285E+02  0.15061999632E+02  0.46142318848E+02  0.10000009912E+02 0.  0.
         12    1    1    2    0    0  0.33782736896E+02 -0.25709458285E+02 -0.15061999632E+02  0.45045681152E+02  0.00000000000E+00 0. -1.
         11    1    3    3    0    0 -0.14078270422E+02  0.15109427063E+02  0.87522269850E+01  0.22429756167E+02  0.51100000000E-03 0. -1.
        -11    1    3    3    0    0 -0.13576548150E+02  0.63952973338E+01  0.63120352081E+01  0.16280794710E+02  0.51100000000E-03 0.  1.
        -12    1    3    3    0    0 -0.61279183246E+01  0.42047338891E+01 -0.22625608994E-02  0.74317679720E+01  0.00000000000E+00 0.  1.
</event>
<event>
 7    1  0.2328810E-008  0.4614232E+02  0.7816164E-02  0.1320468E+00
        -11   -1    0    0    0    0  0.00000000000E+00  0.00000000000E+00  0.45593999997E+02  0.45594000000E+02  0.51100000000E-03 0.  1.
         11   -1    0    0    0    0 -0.00000000000E+00 -0.00000000000E+00 -0.45593999997E+02  0.45594000000E+02  0.51100000000E-03 0. -1.
    9900012    2    1    2    0    0 -0.30990116626E+02 -0.83312448757E+00  0.32680759317E+02  0.46142318138E+02  0.10000003432E+02 0.  0.
         12    1    1    2    0    0  0.30990116626E+02  0.83312448757E+00 -0.32680759317E+02  0.45045681862E+02  0.00000000000E+00 0. -1.
         11    1    3    3    0    0 -0.63160395421E+01  0.14480989653E+01  0.74983369018E+01  0.99103179901E+01  0.51100000000E-03 0. -1.
        -11    1    3    3    0    0 -0.17070898627E+02 -0.38576546449E+00  0.21815370845E+02  0.27703335545E+02  0.51100000000E-03 0.  1.
         12    1    3    3    0    0 -0.76031784567E+01 -0.18954579884E+01  0.33670515705E+01  0.85286646029E+01  0.00000000000E+00 0. -1.
</event>
<event>
 7    1  0.2328810E-008  0.4614232E+02  0.7816164E-02  0.1320468E+00
        -11   -1    0    0    0    0  0.00000000000E+00  0.00000000000E+00  0.45593999997E+02  0.45594000000E+02  0.51100000000E-03 0.  1.
         11   -1    0    0    0    0 -0.00000000000E+00 -0.00000000000E+00 -0.45593999997E+02  0.45594000000E+02  0.51100000000E-03 0. -1.
    9900012    2    1    2    0    0 -0.20053695618E+02 -0.22091513800E+02  0.33748005190E+02  0.46142317141E+02  0.99999943477E+01 0.  0.
         12    1    1    2    0    0  0.20053695618E+02  0.22091513800E+02 -0.33748005190E+02  0.45045682859E+02  0.00000000000E+00 0. -1.
         11    1    3    3    0    0 -0.12141661492E+01 -0.14443333771E+01  0.33093895037E+01  0.38095088254E+01  0.51100000000E-03 0. -1.
        -11    1    3    3    0    0 -0.49509457292E+01 -0.89721060089E+01  0.16622766811E+02  0.19527593978E+02  0.51100000000E-03 0.  1.
         12    1    3    3    0    0 -0.13888583740E+02 -0.11675074414E+02  0.13815848875E+02  0.22805214338E+02  0.00000000000E+00 0. -1.
</event>
<event>
 7    1  0.2328810E-008  0.4614232E+02  0.7816164E-02  0.1320468E+00
        -11   -1    0    0    0    0  0.00000000000E+00  0.00000000000E+00  0.45593999997E+02  0.45594000000E+02  0.51100000000E-03 0.  1.
         11   -1    0    0    0    0 -0.00000000000E+00 -0.00000000000E+00 -0.45593999997E+02  0.45594000000E+02  0.51100000000E-03 0. -1.
    9900012    2    1    2    0    0  0.22376832687E+02 -0.37148936624E+02 -0.12179793769E+02  0.46142317525E+02  0.99999978464E+01 0.  0.
         12    1    1    2    0    0 -0.22376832687E+02  0.37148936624E+02  0.12179793769E+02  0.45045682475E+02  0.00000000000E+00 0. -1.
         11    1    3    3    0    0  0.21587719441E+01 -0.10481713250E+02 -0.29368340341E+01  0.11097369210E+02  0.51100000000E-03 0. -1.
        -11    1    3    3    0    0  0.57683485485E+01 -0.10825975722E+02 -0.46388571336E+01  0.13114670834E+02  0.51100000000E-03 0.  1.
        -12    1    3    3    0    0  0.14449712194E+02 -0.15841247652E+02 -0.46041026014E+01  0.21930277482E+02  0.00000000000E+00 0.  1.
</event>
<event>
 7    1  0.2328810E-008  0.4614232E+02  0.7816164E-02  0.1320468E+00
        -11   -1    0    0    0    0  0.00000000000E+00  0.00000000000E+00  0.45593999997E+02  0.45594000000E+02  0.51100000000E-03 0.  1.
         11   -1    0    0    0    0 -0.00000000000E+00 -0.00000000000E+00 -0.45593999997E+02  0.45594000000E+02  0.51100000000E-03 0. -1.
    9900012    2    1    2    0    0  0.29742980287E+01  0.21350435358E+02  0.39552824961E+02  0.46142317620E+02  0.99999987099E+01 0.  0.
         12    1    1    2    0    0 -0.29742980287E+01 -0.21350435358E+02 -0.39552824961E+02  0.45045682380E+02  0.00000000000E+00 0. -1.
         11    1    3    3    0    0 -0.20414096082E+00  0.13570114329E+00 -0.18768797175E+00  0.30873187078E+00  0.51100000000E-03 0. -1.
        -11    1    3    3    0    0  0.75656912859E-01 -0.56987541480E+00  0.26102584244E+01  0.26728133605E+01  0.51100000000E-03 0.  1.
        -12    1    3    3    0    0  0.31027820766E+01  0.21784609629E+02  0.37130254508E+02  0.43160772388E+02  0.00000000000E+00 0.  1.
</event>
<event>
 7    1  0.2328810E-008  0.4614232E+02  0.7816164E-02  0.1320468E+00
        -11   -1    0    0    0    0  0.00000000000E+00  0.00000000000E+00  0.45593999997E+02  0.45594000000E+02  0.51100000000E-03 0.  1.
         11   -1    0    0    0    0 -0.00000000000E+00 -0.00000000000E+00 -0.45593999997E+02  0.45594000000E+02  0.51100000000E-03 0. -1.
    9900012    2    1    2    0    0 -0.43532607094E+01  0.12106913124E+01  0.44818484751E+02  0.46142320655E+02  0.10000026387E+02 0.  0.
         12    1    1    2    0    0  0.43532607094E+01 -0.12106913124E+01 -0.44818484751E+02  0.45045679345E+02  0.00000000000E+00 0. -1.
         11    1    3    3    0    0  0.17529649739E+01 -0.39775786005E+00  0.84191062593E+01  0.86088586922E+01  0.51100000000E-03 0. -1.
        -11    1    3    3    0    0 -0.42520375694E+01  0.26383116812E+01  0.33846681637E+02  0.34214592941E+02  0.51100000000E-03 0.  1.
         12    1    3    3    0    0 -0.18541881139E+01 -0.10298625088E+01  0.25526968548E+01  0.33188690214E+01  0.00000000000E+00 0. -1.
</event>
<event>
 7    1  0.2328810E-008  0.4614232E+02  0.7816164E-02  0.1320468E+00
        -11   -1    0    0    0    0  0.00000000000E+00  0.00000000000E+00  0.45593999997E+02  0.45594000000E+02  0.51100000000E-03 0.  1.
         11   -1    0    0    0    0 -0.00000000000E+00 -0.00000000000E+00 -0.45593999997E+02  0.45594000000E+02  0.51100000000E-03 0. -1.
    9900012    2    1    2    0    0 -0.12575758859E+02  0.40184652251E+02  0.16004920787E+02  0.46142317890E+02  0.10000001173E+02 0.  0.
         12    1    1    2    0    0  0.12575758859E+02 -0.40184652251E+02 -0.16004920787E+02  0.45045682110E+02  0.00000000000E+00 0. -1.
         11    1    3    3    0    0 -0.42049603483E+01  0.24050816355E+02  0.91408489116E+01  0.26070645906E+02  0.51100000000E-03 0. -1.
        -11    1    3    3    0    0 -0.84636617435E+01  0.15590261732E+02  0.74737567639E+01  0.19249594058E+02  0.51100000000E-03 0.  1.
         12    1    3    3    0    0  0.92863232986E-01  0.54357416419E+00 -0.60968488898E+00  0.82207792567E+00  0.00000000000E+00 0. -1.
</event>
<event>
 7    1  0.2328810E-008  0.4614232E+02  0.7816164E-02  0.1320468E+00
        -11   -1    0    0    0    0  0.00000000000E+00  0.00000000000E+00  0.45593999997E+02  0.45594000000E+02  0.51100000000E-03 0.  1.
         11   -1    0    0    0    0 -0.00000000000E+00 -0.00000000000E+00 -0.45593999997E+02  0.45594000000E+02  0.51100000000E-03 0. -1.
    9900012    2    1    2    0    0  0.22342152362E+02 -0.24707573145E+02  0.30322888979E+02  0.46142317200E+02  0.99999948817E+01 0.  0.
         12    1    1    2    0    0 -0.22342152362E+02  0.24707573145E+02 -0.30322888979E+02  0.45045682800E+02  0.00000000000E+00 0. -1.
         11    1    3    3    0    0  0.32816945298E+01 -0.37237209071E+01  0.80175944203E+01  0.94296042828E+01  0.51100000000E-03 0. -1.
        -11    1    3    3    0    0  0.62780437704E+00 -0.10543304057E+01  0.34458038628E+01  0.36577746599E+01  0.51100000000E-03 0.  1.
        -12    1    3    3    0    0  0.18432653455E+02 -0.19929521833E+02  0.18859490696E+02  0.33054938257E+02  0.00000000000E+00 0.  1.
</event>
<event>
 7    1  0.2328810E-008  0.4614232E+02  0.7816164E-02  0.1320468E+00
        -11   -1    0    0    0    0  0.00000000000E+00  0.00000000000E+00  0.45593999997E+02  0.45594000000E+02  0.51100000000E-03 0.  1.
         11   -1    0    0    0    0 -0.00000000000E+00 -0.00000000000E+00 -0.45593999997E+02  0.45594000000E+02  0.51100000000E-03 0. -1.
    9900012    2    1    2    0    0 -0.35937411699E+01  0.28118157050E+01  0.44813974335E+02  0.46142316757E+02  0.99999908400E+01 0.  0.
         12    1    1    2    0    0  0.35937411699E+01 -0.28118157050E+01 -0.44813974335E+02  0.45045683243E+02  0.00000000000E+00 0. -1.
         11    1    3    3    0    0 -0.25192056353E+01  0.14508408037E+01  0.10582503366E+02  0.10974548456E+02  0.51100000000E-03 0. -1.
        -11    1    3    3    0    0  0.32136727674E+00  0.44447301179E+01  0.23368794417E+02  0.23789902386E+02  0.51100000000E-03 0.  1.
         12    1    3    3    0    0 -0.13959028114E+01 -0.30837552166E+01  0.10862676552E+02  0.11377865914E+02  0.00000000000E+00 0. -1.
</event>
<event>
 7    1  0.2328810E-008  0.4614232E+02  0.7816164E-02  0.1320468E+00
        -11   -1    0    0    0    0  0.00000000000E+00  0.00000000000E+00  0.45593999997E+02  0.45594000000E+02  0.51100000000E-03 0.  1.
         11   -1    0    0    0    0 -0.00000000000E+00 -0.00000000000E+00 -0.45593999997E+02  0.45594000000E+02  0.51100000000E-03 0. -1.
    9900012    2    1    2    0    0  0.32881658833E+02  0.29712463682E+02  0.80671899931E+01  0.46142317187E+02  0.99999947686E+01 0.  0.
         12    1    1    2    0    0 -0.32881658833E+02 -0.29712463682E+02 -0.80671899931E+01  0.45045682813E+02  0.00000000000E+00 0. -1.
         11    1    3    3    0    0  0.12050318127E+02  0.14530595725E+02  0.40220521935E+01  0.19300914051E+02  0.51100000000E-03 0. -1.
        -11    1    3    3    0    0  0.38552842842E+01  0.12892460254E+01 -0.12917598593E+01  0.42654444107E+01  0.51100000000E-03 0.  1.
        -12    1    3    3    0    0  0.16976056422E+02  0.13892621931E+02  0.53368976589E+01  0.22575958725E+02  0.00000000000E+00 0.  1.
</event>
<event>
 7    1  0.2328810E-008  0.4614232E+02  0.7816164E-02  0.1320468E+00
        -11   -1    0    0    0    0  0.00000000000E+00  0.00000000000E+00  0.45593999997E+02  0.45594000000E+02  0.51100000000E-03 0.  1.
         11   -1    0    0    0    0 -0.00000000000E+00 -0.00000000000E+00 -0.45593999997E+02  0.45594000000E+02  0.51100000000E-03 0. -1.
    9900012    2    1    2    0    0  0.42518807851E+02 -0.92161039269E+01  0.11675955542E+02  0.46142317294E+02  0.99999957416E+01 0.  0.
         12    1    1    2    0    0 -0.42518807851E+02  0.92161039269E+01 -0.11675955542E+02  0.45045682706E+02  0.00000000000E+00 0. -1.
         11    1    3    3    0    0  0.69138509801E+01 -0.19476006393E+01 -0.32652296042E-02  0.71829307771E+01  0.51100000000E-03 0. -1.
        -11    1    3    3    0    0  0.33123921326E+02 -0.46218805570E+01  0.11343658490E+02  0.35316207782E+02  0.51100000000E-03 0.  1.
         12    1    3    3    0    0  0.24810355441E+01 -0.26466227306E+01  0.33556228150E+00  0.36431787348E+01  0.00000000000E+00 0. -1.
</event>
<event>
 7    1  0.2328810E-008  0.4614232E+02  0.7816164E-02  0.1320468E+00
        -11   -1    0    0    0    0  0.00000000000E+00  0.00000000000E+00  0.45593999997E+02  0.45594000000E+02  0.51100000000E-03 0.  1.
         11   -1    0    0    0    0 -0.00000000000E+00 -0.00000000000E+00 -0.45593999997E+02  0.45594000000E+02  0.51100000000E-03 0. -1.
    9900012    2    1    2    0    0 -0.15233279085E+02 -0.31863051895E+02  0.27960798912E+02  0.46142321588E+02  0.10000034896E+02 0.  0.
         12    1    1    2    0    0  0.15233279085E+02  0.31863051895E+02 -0.27960798912E+02  0.45045678412E+02  0.00000000000E+00 0. -1.
         11    1    3    3    0    0 -0.47033098139E+01 -0.61389382205E+01  0.28176844833E+01  0.82308585086E+01  0.51100000000E-03 0. -1.
        -11    1    3    3    0    0 -0.19585797692E+01 -0.25518362294E+01  0.10039017855E+01  0.33698252047E+01  0.51100000000E-03 0.  1.
        -12    1    3    3    0    0 -0.85713895023E+01 -0.23172277445E+02  0.24139212644E+02  0.34541637875E+02  0.00000000000E+00 0.  1.
</event>
<event>
 7    1  0.2328810E-008  0.4614232E+02  0.7816164E-02  0.1320468E+00
        -11   -1    0    0    0    0  0.00000000000E+00  0.00000000000E+00  0.45593999997E+02  0.45594000000E+02  0.51100000000E-03 0.  1.
         11   -1    0    0    0    0 -0.00000000000E+00 -0.00000000000E+00 -0.45593999997E+02  0.45594000000E+02  0.51100000000E-03 0. -1.
    9900012    2    1    2    0    0 -0.37018141800E+02  0.23937730259E+02  0.92604387340E+01  0.46142317878E+02  0.10000001064E+02 0.  0.
         12    1    1    2    0    0  0.37018141800E+02 -0.23937730259E+02 -0.92604387340E+01  0.45045682122E+02  0.00000000000E+00 0. -1.
         11    1    3    3    0    0 -0.13737078560E+02  0.69926266295E+01  0.75665710625E+01  0.17171405081E+02  0.51100000000E-03 0. -1.
        -11    1    3    3    0    0 -0.11231960647E+02  0.67672458970E+01  0.14871217642E+01  0.13197124248E+02  0.51100000000E-03 0.  1.
         12    1    3    3    0    0 -0.12049102593E+02  0.10177857732E+02  0.20674590730E+00  0.15773788549E+02  0.00000000000E+00 0. -1.
</event>
<event>
 7    1  0.2328810E-008  0.4614232E+02  0.7816164E-02  0.1320468E+00
        -11   -1    0    0    0    0  0.00000000000E+00  0.00000000000E+00  0.45593999997E+02  0.45594000000E+02  0.51100000000E-03 0. -1.
         11   -1    0    0    0    0 -0.00000000000E+00 -0.00000000000E+00 -0.45593999997E+02  0.45594000000E+02  0.51100000000E-03 0.  1.
    9900012    2    1    2    0    0 -0.41672928443E+02  0.13784752048E+01 -0.17046419217E+02  0.46142316888E+02  0.99999920411E+01 0.  0.
         12    1    1    2    0    0  0.41672928443E+02 -0.13784752048E+01  0.17046419217E+02  0.45045683112E+02  0.00000000000E+00 0. -1.
         11    1    3    3    0    0 -0.11384685416E+02  0.20268171941E-01 -0.74142532847E+01  0.13586118829E+02  0.51100000000E-03 0.  1.
        -11    1    3    3    0    0 -0.18379145503E+02  0.18913595243E+01 -0.24477960526E+01  0.18637648351E+02  0.51100000000E-03 0. -1.
         12    1    3    3    0    0 -0.11909097524E+02 -0.53315249142E+00 -0.71843698794E+01  0.13918549708E+02  0.00000000000E+00 0. -1.
</event>
<event>
 7    1  0.2328810E-008  0.4614232E+02  0.7816164E-02  0.1320468E+00
        -11   -1    0    0    0    0  0.00000000000E+00  0.00000000000E+00  0.45593999997E+02  0.45594000000E+02  0.51100000000E-03 0.  1.
         11   -1    0    0    0    0 -0.00000000000E+00 -0.00000000000E+00 -0.45593999997E+02  0.45594000000E+02  0.51100000000E-03 0. -1.
    9900012    2    1    2    0    0 -0.24207762356E+02 -0.33583143975E+02 -0.17755848694E+02  0.46142317850E+02  0.10000000807E+02 0.  0.
         12    1    1    2    0    0  0.24207762356E+02  0.33583143975E+02  0.17755848694E+02  0.45045682150E+02  0.00000000000E+00 0. -1.
         11    1    3    3    0    0 -0.85354004996E+01 -0.85975357997E+01 -0.44782688320E+01  0.12916097534E+02  0.51100000000E-03 0. -1.
        -11    1    3    3    0    0 -0.14168467634E+02 -0.16325484870E+02 -0.10308823617E+02  0.23948669608E+02  0.51100000000E-03 0.  1.
         12    1    3    3    0    0 -0.15038942219E+01 -0.86601233055E+01 -0.29687562455E+01  0.92775507081E+01  0.00000000000E+00 0. -1.
</event>
<event>
 7    1  0.2328810E-008  0.4614232E+02  0.7816164E-02  0.1320468E+00
        -11   -1    0    0    0    0  0.00000000000E+00  0.00000000000E+00  0.45593999997E+02  0.45594000000E+02  0.51100000000E-03 0. -1.
         11   -1    0    0    0    0 -0.00000000000E+00 -0.00000000000E+00 -0.45593999997E+02  0.45594000000E+02  0.51100000000E-03 0.  1.
    9900012    2    1    2    0    0 -0.28145714785E+02 -0.35156055453E+02  0.99190524900E+00  0.46142319055E+02  0.10000011800E+02 0.  0.
         12    1    1    2    0    0  0.28145714785E+02  0.35156055453E+02 -0.99190524900E+00  0.45045680945E+02  0.00000000000E+00 0. -1.
         11    1    3    3    0    0 -0.83557412502E+01 -0.80678876641E+01  0.49984923244E+00  0.11625793423E+02  0.51100000000E-03 0. -1.
        -11    1    3    3    0    0 -0.19322965548E+02 -0.25408971968E+02 -0.13893205062E+01  0.31951886732E+02  0.51100000000E-03 0.  1.
         12    1    3    3    0    0 -0.46700798648E+00 -0.16791958216E+01  0.18813765227E+01  0.25646389000E+01  0.00000000000E+00 0. -1.
</event>
<event>
 7    1  0.2328810E-008  0.4614232E+02  0.7816164E-02  0.1320468E+00
        -11   -1    0    0    0    0  0.00000000000E+00  0.00000000000E+00  0.45593999997E+02  0.45594000000E+02  0.51100000000E-03 0.  1.
         11   -1    0    0    0    0 -0.00000000000E+00 -0.00000000000E+00 -0.45593999997E+02  0.45594000000E+02  0.51100000000E-03 0. -1.
    9900012    2    1    2    0    0 -0.66076252608E+01  0.39480354900E+02 -0.20658032881E+02  0.46142318107E+02  0.10000003158E+02 0.  0.
         12    1    1    2    0    0  0.66076252608E+01 -0.39480354900E+02  0.20658032881E+02  0.45045681893E+02  0.00000000000E+00 0. -1.
         11    1    3    3    0    0 -0.49952585014E+01  0.12511017997E+02 -0.64135124833E+01  0.14920164927E+02  0.51100000000E-03 0. -1.
        -11    1    3    3    0    0 -0.12458033986E+01  0.15885268030E+01 -0.26093047201E+01  0.32990778856E+01  0.51100000000E-03 0.  1.
        -12    1    3    3    0    0 -0.36656336082E+00  0.25380810101E+02 -0.11635215678E+02  0.27923075295E+02  0.00000000000E+00 0.  1.
</event>
<event>
 7    1  0.2328810E-008  0.4614232E+02  0.7816164E-02  0.1320468E+00
        -11   -1    0    0    0    0  0.00000000000E+00  0.00000000000E+00  0.45593999997E+02  0.45594000000E+02  0.51100000000E-03 0.  1.
         11   -1    0    0    0    0 -0.00000000000E+00 -0.00000000000E+00 -0.45593999997E+02  0.45594000000E+02  0.51100000000E-03 0. -1.
    9900012    2    1    2    0    0  0.28728071724E+02 -0.28719075741E+02  0.19468591159E+02  0.46142318097E+02  0.10000003060E+02 0.  0.
         12    1    1    2    0    0 -0.28728071724E+02  0.28719075741E+02 -0.19468591159E+02  0.45045681903E+02  0.00000000000E+00 0. -1.
         11    1    3    3    0    0  0.17919862031E+02 -0.17877631038E+02  0.10281510672E+02  0.27321065293E+02  0.51100000000E-03 0. -1.
        -11    1    3    3    0    0  0.21155505158E+01 -0.14360300199E+01  0.45145188851E+01  0.51883154518E+01  0.51100000000E-03 0.  1.
        -12    1    3    3    0    0  0.86926591768E+01 -0.94054146832E+01  0.46725616021E+01  0.13632937352E+02  0.00000000000E+00 0.  1.
</event>
<event>
 7    1  0.2328810E-008  0.4614232E+02  0.7816164E-02  0.1320468E+00
        -11   -1    0    0    0    0  0.00000000000E+00  0.00000000000E+00  0.45593999997E+02  0.45594000000E+02  0.51100000000E-03 0.  1.
         11   -1    0    0    0    0 -0.00000000000E+00 -0.00000000000E+00 -0.45593999997E+02  0.45594000000E+02  0.51100000000E-03 0. -1.
    9900012    2    1    2    0    0 -0.15981914379E+01  0.42532711684E+02  0.14748813467E+02  0.46142320099E+02  0.10000021321E+02 0.  0.
         12    1    1    2    0    0  0.15981914379E+01 -0.42532711684E+02 -0.14748813467E+02  0.45045679901E+02  0.00000000000E+00 0. -1.
         11    1    3    3    0    0 -0.18789943884E+01  0.27247954380E+01  0.17951239886E+01  0.37653154564E+01  0.51100000000E-03 0. -1.
        -11    1    3    3    0    0 -0.52913083985E+00  0.35974260464E+01  0.32579120551E+01  0.48821557559E+01  0.51100000000E-03 0.  1.
        -12    1    3    3    0    0  0.80993379032E+00  0.36210490199E+02  0.96957774230E+01  0.37494848887E+02  0.00000000000E+00 0.  1.
</event>
<event>
 7    1  0.2328810E-008  0.4614232E+02  0.7816164E-02  0.1320468E+00
        -11   -1    0    0    0    0  0.00000000000E+00  0.00000000000E+00  0.45593999997E+02  0.45594000000E+02  0.51100000000E-03 0.  1.
         11   -1    0    0    0    0 -0.00000000000E+00 -0.00000000000E+00 -0.45593999997E+02  0.45594000000E+02  0.51100000000E-03 0. -1.
    9900012    2    1    2    0    0 -0.41987918841E+02  0.56575960798E+01  0.15300971894E+02  0.46142318044E+02  0.10000002576E+02 0.  0.
         12    1    1    2    0    0  0.41987918841E+02 -0.56575960798E+01 -0.15300971894E+02  0.45045681956E+02  0.00000000000E+00 0. -1.
         11    1    3    3    0    0 -0.16280119613E+01 -0.16949920232E+01  0.19408948306E+00  0.23581967461E+01  0.51100000000E-03 0. -1.
        -11    1    3    3    0    0 -0.34818780865E+02  0.59333193348E+01  0.13770109865E+02  0.37909994794E+02  0.51100000000E-03 0.  1.
         12    1    3    3    0    0 -0.55411260147E+01  0.14192687682E+01  0.13367725453E+01  0.58741265040E+01  0.00000000000E+00 0. -1.
</event>
<event>
 7    1  0.2328810E-008  0.4614232E+02  0.7816164E-02  0.1320468E+00
        -11   -1    0    0    0    0  0.00000000000E+00  0.00000000000E+00  0.45593999997E+02  0.45594000000E+02  0.51100000000E-03 0.  1.
         11   -1    0    0    0    0 -0.00000000000E+00 -0.00000000000E+00 -0.45593999997E+02  0.45594000000E+02  0.51100000000E-03 0. -1.
    9900012    2    1    2    0    0 -0.29349290494E+02 -0.32510680121E+02 -0.10525601634E+02  0.46142318030E+02  0.10000002450E+02 0.  0.
         12    1    1    2    0    0  0.29349290494E+02  0.32510680121E+02  0.10525601634E+02  0.45045681970E+02  0.00000000000E+00 0. -1.
         11    1    3    3    0    0 -0.11496500956E+02 -0.13394315209E+02 -0.72653171374E+01  0.19088269893E+02  0.51100000000E-03 0. -1.
        -11    1    3    3    0    0 -0.35461132400E+01 -0.79596928292E+01 -0.11311789697E+01  0.87869901086E+01  0.51100000000E-03 0.  1.
        -12    1    3    3    0    0 -0.14306676298E+02 -0.11156672083E+02 -0.21291055265E+01  0.18267058028E+02  0.00000000000E+00 0.  1.
</event>
<event>
 7    1  0.2328810E-008  0.4614232E+02  0.7816164E-02  0.1320468E+00
        -11   -1    0    0    0    0  0.00000000000E+00  0.00000000000E+00  0.45593999997E+02  0.45594000000E+02  0.51100000000E-03 0.  1.
         11   -1    0    0    0    0 -0.00000000000E+00 -0.00000000000E+00 -0.45593999997E+02  0.45594000000E+02  0.51100000000E-03 0. -1.
    9900012    2    1    2    0    0  0.30512357130E+02  0.14242190203E+02  0.29921056775E+02  0.46142316989E+02  0.99999929580E+01 0.  0.
         12    1    1    2    0    0 -0.30512357130E+02 -0.14242190203E+02 -0.29921056775E+02  0.45045683011E+02  0.00000000000E+00 0. -1.
         11    1    3    3    0    0  0.32079894613E+01  0.59715414943E+00  0.58962023940E+01  0.67389162626E+01  0.51100000000E-03 0. -1.
        -11    1    3    3    0    0  0.22697445332E+02  0.11233751982E+02  0.22765003974E+02  0.34053143972E+02  0.51100000000E-03 0.  1.
        -12    1    3    3    0    0  0.46069223363E+01  0.24112840708E+01  0.12598504074E+01  0.53502567538E+01  0.00000000000E+00 0.  1.
</event>
<event>
 7    1  0.2328810E-008  0.4614232E+02  0.7816164E-02  0.1320468E+00
        -11   -1    0    0    0    0  0.00000000000E+00  0.00000000000E+00  0.45593999997E+02  0.45594000000E+02  0.51100000000E-03 0. -1.
         11   -1    0    0    0    0 -0.00000000000E+00 -0.00000000000E+00 -0.45593999997E+02  0.45594000000E+02  0.51100000000E-03 0.  1.
    9900012    2    1    2    0    0  0.29653656288E+02 -0.18145255251E+02 -0.28644781619E+02  0.46142321702E+02  0.10000035933E+02 0.  0.
         12    1    1    2    0    0 -0.29653656288E+02  0.18145255251E+02  0.28644781619E+02  0.45045678298E+02  0.00000000000E+00 0. -1.
         11    1    3    3    0    0  0.20289546749E+02 -0.14827345502E+02 -0.18375165418E+02  0.31131376236E+02  0.51100000000E-03 0. -1.
        -11    1    3    3    0    0  0.57582732684E+01 -0.42826730687E+01 -0.61412248274E+01  0.94452973637E+01  0.51100000000E-03 0.  1.
        -12    1    3    3    0    0  0.36058362703E+01  0.96476331931E+00 -0.41283913727E+01  0.55656481022E+01  0.00000000000E+00 0.  1.
</event>
<event>
 7    1  0.2328810E-008  0.4614232E+02  0.7816164E-02  0.1320468E+00
        -11   -1    0    0    0    0  0.00000000000E+00  0.00000000000E+00  0.45593999997E+02  0.45594000000E+02  0.51100000000E-03 0.  1.
         11   -1    0    0    0    0 -0.00000000000E+00 -0.00000000000E+00 -0.45593999997E+02  0.45594000000E+02  0.51100000000E-03 0. -1.
    9900012    2    1    2    0    0  0.26532932653E+02  0.23432264740E+02  0.27857599874E+02  0.46142318556E+02  0.10000007248E+02 0.  0.
         12    1    1    2    0    0 -0.26532932653E+02 -0.23432264740E+02 -0.27857599874E+02  0.45045681444E+02  0.00000000000E+00 0. -1.
         11    1    3    3    0    0  0.15495374667E+02  0.15353988882E+02  0.15894050307E+02  0.26990228715E+02  0.51100000000E-03 0.  1.
        -11    1    3    3    0    0  0.79740330303E+01  0.62890728895E+01  0.11844664030E+02  0.15602362219E+02  0.51100000000E-03 0. -1.
         12    1    3    3    0    0  0.30635249553E+01  0.17892029683E+01  0.11888553665E+00  0.35497276211E+01  0.00000000000E+00 0. -1.
</event>
<event>
 7    1  0.2328810E-008  0.4614232E+02  0.7816164E-02  0.1320468E+00
        -11   -1    0    0    0    0  0.00000000000E+00  0.00000000000E+00  0.45593999997E+02  0.45594000000E+02  0.51100000000E-03 0. -1.
         11   -1    0    0    0    0 -0.00000000000E+00 -0.00000000000E+00 -0.45593999997E+02  0.45594000000E+02  0.51100000000E-03 0.  1.
    9900012    2    1    2    0    0 -0.22807345876E+02  0.89421752851E+01 -0.37801796586E+02  0.46142319299E+02  0.10000014021E+02 0.  0.
         12    1    1    2    0    0  0.22807345876E+02 -0.89421752851E+01  0.37801796586E+02  0.45045680701E+02  0.00000000000E+00 0. -1.
         11    1    3    3    0    0 -0.72154757351E+01  0.22546901703E+01 -0.72396758796E+01  0.10467073371E+02  0.51100000000E-03 0. -1.
        -11    1    3    3    0    0 -0.73897319699E+01  0.23042487701E+01 -0.73702326854E+01  0.10688219266E+02  0.51100000000E-03 0.  1.
        -12    1    3    3    0    0 -0.82021381706E+01  0.43832363447E+01 -0.23191888021E+02  0.24987026662E+02  0.00000000000E+00 0.  1.
</event>
<event>
 7    1  0.2328810E-008  0.4614232E+02  0.7816164E-02  0.1320468E+00
        -11   -1    0    0    0    0  0.00000000000E+00  0.00000000000E+00  0.45593999997E+02  0.45594000000E+02  0.51100000000E-03 0. -1.
         11   -1    0    0    0    0 -0.00000000000E+00 -0.00000000000E+00 -0.45593999997E+02  0.45594000000E+02  0.51100000000E-03 0.  1.
    9900012    2    1    2    0    0 -0.35885453369E+02 -0.27214943741E+02  0.83338605929E+00  0.46142318091E+02  0.10000003006E+02 0.  0.
         12    1    1    2    0    0  0.35885453369E+02  0.27214943741E+02 -0.83338605929E+00  0.45045681909E+02  0.00000000000E+00 0. -1.
         11    1    3    3    0    0 -0.60497328983E+01 -0.57762523976E+01  0.34214672035E+01  0.90371897173E+01  0.51100000000E-03 0. -1.
        -11    1    3    3    0    0 -0.40184717534E+01 -0.29198404893E+01  0.11934044522E+01  0.51086004115E+01  0.51100000000E-03 0.  1.
        -12    1    3    3    0    0 -0.25817248717E+02 -0.18518850855E+02 -0.37814855965E+01  0.31996527962E+02  0.00000000000E+00 0.  1.
</event>
<event>
 7    1  0.2328810E-008  0.4614232E+02  0.7816164E-02  0.1320468E+00
        -11   -1    0    0    0    0  0.00000000000E+00  0.00000000000E+00  0.45593999997E+02  0.45594000000E+02  0.51100000000E-03 0. -1.
         11   -1    0    0    0    0 -0.00000000000E+00 -0.00000000000E+00 -0.45593999997E+02  0.45594000000E+02  0.51100000000E-03 0.  1.
    9900012    2    1    2    0    0  0.66915385362E+01 -0.42619134161E+02 -0.12959400838E+02  0.46142319245E+02  0.10000013532E+02 0.  0.
         12    1    1    2    0    0 -0.66915385362E+01  0.42619134161E+02  0.12959400838E+02  0.45045680755E+02  0.00000000000E+00 0. -1.
         11    1    3    3    0    0  0.48692580501E+01 -0.30039834519E+02 -0.58942124770E+01  0.30997468814E+02  0.51100000000E-03 0.  1.
        -11    1    3    3    0    0 -0.85817309902E+00 -0.63552932933E+00 -0.12961846724E+00  0.10757136257E+01  0.51100000000E-03 0. -1.
        -12    1    3    3    0    0  0.26804535850E+01 -0.11943770312E+02 -0.69355698934E+01  0.14069136805E+02  0.00000000000E+00 0.  1.
</event>
<event>
 7    1  0.2328810E-008  0.4614232E+02  0.7816164E-02  0.1320468E+00
        -11   -1    0    0    0    0  0.00000000000E+00  0.00000000000E+00  0.45593999997E+02  0.45594000000E+02  0.51100000000E-03 0.  1.
         11   -1    0    0    0    0 -0.00000000000E+00 -0.00000000000E+00 -0.45593999997E+02  0.45594000000E+02  0.51100000000E-03 0. -1.
    9900012    2    1    2    0    0 -0.42718406712E+02  0.12807276124E+02  0.63423196141E+01  0.46142316391E+02  0.99999875023E+01 0.  0.
         12    1    1    2    0    0  0.42718406712E+02 -0.12807276124E+02 -0.63423196141E+01  0.45045683609E+02  0.00000000000E+00 0. -1.
         11    1    3    3    0    0 -0.16839660195E+02  0.60246157940E+01 -0.83127067493E+00  0.17904221908E+02  0.51100000000E-03 0. -1.
        -11    1    3    3    0    0 -0.85329311452E+00  0.11859124739E+01 -0.37150738023E+00  0.15074864940E+01  0.51100000000E-03 0.  1.
        -12    1    3    3    0    0 -0.25025453403E+02  0.55967478565E+01  0.75450976693E+01  0.26730607988E+02  0.00000000000E+00 0.  1.
</event>
<event>
 7    1  0.2328810E-008  0.4614232E+02  0.7816164E-02  0.1320468E+00
        -11   -1    0    0    0    0  0.00000000000E+00  0.00000000000E+00  0.45593999997E+02  0.45594000000E+02  0.51100000000E-03 0.  1.
         11   -1    0    0    0    0 -0.00000000000E+00 -0.00000000000E+00 -0.45593999997E+02  0.45594000000E+02  0.51100000000E-03 0. -1.
    9900012    2    1    2    0    0  0.10876884881E+02  0.32718490465E+02  0.28988047239E+02  0.46142321786E+02  0.10000036702E+02 0.  0.
         12    1    1    2    0    0 -0.10876884881E+02 -0.32718490465E+02 -0.28988047239E+02  0.45045678214E+02  0.00000000000E+00 0. -1.
         11    1    3    3    0    0  0.20658439850E+01  0.25787096378E+01  0.44330525416E+01  0.55289610112E+01  0.51100000000E-03 0. -1.
        -11    1    3    3    0    0  0.28430789472E+01  0.52094039387E+01  0.84971418944E+01  0.10364478179E+02  0.51100000000E-03 0.  1.
         12    1    3    3    0    0  0.59679619492E+01  0.24930376888E+02  0.16057852803E+02  0.30248882595E+02  0.00000000000E+00 0. -1.
</event>
<event>
 7    1  0.2328810E-008  0.4614232E+02  0.7816164E-02  0.1320468E+00
        -11   -1    0    0    0    0  0.00000000000E+00  0.00000000000E+00  0.45593999997E+02  0.45594000000E+02  0.51100000000E-03 0.  1.
         11   -1    0    0    0    0 -0.00000000000E+00 -0.00000000000E+00 -0.45593999997E+02  0.45594000000E+02  0.51100000000E-03 0. -1.
    9900012    2    1    2    0    0 -0.27397881663E+02 -0.99307019842E+01  0.34348955572E+02  0.46142317516E+02  0.99999977687E+01 0.  0.
         12    1    1    2    0    0  0.27397881663E+02  0.99307019842E+01 -0.34348955572E+02  0.45045682484E+02  0.00000000000E+00 0. -1.
         11    1    3    3    0    0 -0.33716611976E+01 -0.30157471055E+01  0.74051718240E+01  0.86775226787E+01  0.51100000000E-03 0. -1.
        -11    1    3    3    0    0 -0.20460224604E+02 -0.82728655629E+01  0.21451346970E+02  0.30776961880E+02  0.51100000000E-03 0.  1.
        -12    1    3    3    0    0 -0.35659958614E+01  0.13579106842E+01  0.54924367780E+01  0.66878329577E+01  0.00000000000E+00 0.  1.
</event>
<event>
 7    1  0.2328810E-008  0.4614232E+02  0.7816164E-02  0.1320468E+00
        -11   -1    0    0    0    0  0.00000000000E+00  0.00000000000E+00  0.45593999997E+02  0.45594000000E+02  0.51100000000E-03 0.  1.
         11   -1    0    0    0    0 -0.00000000000E+00 -0.00000000000E+00 -0.45593999997E+02  0.45594000000E+02  0.51100000000E-03 0. -1.
    9900012    2    1    2    0    0  0.42141862867E+02 -0.84037256756E+01  0.13511265609E+02  0.46142317526E+02  0.99999978573E+01 0.  0.
         12    1    1    2    0    0 -0.42141862867E+02  0.84037256756E+01 -0.13511265609E+02  0.45045682474E+02  0.00000000000E+00 0. -1.
         11    1    3    3    0    0  0.13730029672E+01 -0.20184163704E+01  0.14179390353E+00  0.24452500004E+01  0.51100000000E-03 0. -1.
        -11    1    3    3    0    0  0.27604852997E+02 -0.43159922101E+01  0.64206707948E+01  0.28668461966E+02  0.51100000000E-03 0.  1.
         12    1    3    3    0    0  0.13164006903E+02 -0.20693170951E+01  0.69488009108E+01  0.15028605560E+02  0.00000000000E+00 0. -1.
</event>
<event>
 7    1  0.2328810E-008  0.4614232E+02  0.7816164E-02  0.1320468E+00
        -11   -1    0    0    0    0  0.00000000000E+00  0.00000000000E+00  0.45593999997E+02  0.45594000000E+02  0.51100000000E-03 0.  1.
         11   -1    0    0    0    0 -0.00000000000E+00 -0.00000000000E+00 -0.45593999997E+02  0.45594000000E+02  0.51100000000E-03 0. -1.
    9900012    2    1    2    0    0  0.31440387997E+02  0.30272305588E+02  0.11144636752E+02  0.46142318615E+02  0.10000007790E+02 0.  0.
         12    1    1    2    0    0 -0.31440387997E+02 -0.30272305588E+02 -0.11144636752E+02  0.45045681385E+02  0.00000000000E+00 0. -1.
         11    1    3    3    0    0  0.69248345622E+01  0.10068228999E+02  0.21835011644E+01  0.12413309248E+02  0.51100000000E-03 0. -1.
        -11    1    3    3    0    0  0.12954169462E+02  0.14864429764E+02  0.44006366927E+01  0.20202162811E+02  0.51100000000E-03 0.  1.
         12    1    3    3    0    0  0.11561383973E+02  0.53396468245E+01  0.45604988952E+01  0.13526846556E+02  0.00000000000E+00 0. -1.
</event>
<event>
 7    1  0.2328810E-008  0.4614232E+02  0.7816164E-02  0.1320468E+00
        -11   -1    0    0    0    0  0.00000000000E+00  0.00000000000E+00  0.45593999997E+02  0.45594000000E+02  0.51100000000E-03 0.  1.
         11   -1    0    0    0    0 -0.00000000000E+00 -0.00000000000E+00 -0.45593999997E+02  0.45594000000E+02  0.51100000000E-03 0. -1.
    9900012    2    1    2    0    0 -0.30499058223E+02 -0.18229668391E+02  0.27687543426E+02  0.46142318486E+02  0.10000006606E+02 0.  0.
         12    1    1    2    0    0  0.30499058223E+02  0.18229668391E+02 -0.27687543426E+02  0.45045681514E+02  0.00000000000E+00 0. -1.
         11    1    3    3    0    0 -0.40401342429E+00 -0.49092329206E+00  0.25989272514E+01  0.26755664157E+01  0.51100000000E-03 0. -1.
        -11    1    3    3    0    0 -0.17899745112E+02 -0.12798698163E+02  0.12766250274E+02  0.25439825001E+02  0.51100000000E-03 0.  1.
        -12    1    3    3    0    0 -0.12195299687E+02 -0.49400469364E+01  0.12322365900E+02  0.18026927069E+02  0.00000000000E+00 0.  1.
</event>
<event>
 7    1  0.2328810E-008  0.4614232E+02  0.7816164E-02  0.1320468E+00
        -11   -1    0    0    0    0  0.00000000000E+00  0.00000000000E+00  0.45593999997E+02  0.45594000000E+02  0.51100000000E-03 0.  1.
         11   -1    0    0    0    0 -0.00000000000E+00 -0.00000000000E+00 -0.45593999997E+02  0.45594000000E+02  0.51100000000E-03 0. -1.
    9900012    2    1    2    0    0 -0.22671906991E+02 -0.15532444654E+02  0.35690912993E+02  0.46142317922E+02  0.10000001470E+02 0.  0.
         12    1    1    2    0    0  0.22671906991E+02  0.15532444654E+02 -0.35690912993E+02  0.45045682078E+02  0.00000000000E+00 0. -1.
         11    1    3    3    0    0 -0.48171899839E+01 -0.17751774014E+01  0.96411433853E+01  0.10922830228E+02  0.51100000000E-03 0. -1.
        -11    1    3    3    0    0 -0.14833483637E+02 -0.11983640269E+02  0.25222371300E+02  0.31619738854E+02  0.51100000000E-03 0.  1.
         12    1    3    3    0    0 -0.30212333702E+01 -0.17736269845E+01  0.82739830734E+00  0.35997488408E+01  0.00000000000E+00 0. -1.
</event>
<event>
 7    1  0.2328810E-008  0.4614232E+02  0.7816164E-02  0.1320468E+00
        -11   -1    0    0    0    0  0.00000000000E+00  0.00000000000E+00  0.45593999997E+02  0.45594000000E+02  0.51100000000E-03 0.  1.
         11   -1    0    0    0    0 -0.00000000000E+00 -0.00000000000E+00 -0.45593999997E+02  0.45594000000E+02  0.51100000000E-03 0. -1.
    9900012    2    1    2    0    0  0.26001040047E+02 -0.89665591754E+00  0.36773025371E+02  0.46142317961E+02  0.10000001826E+02 0.  0.
         12    1    1    2    0    0 -0.26001040047E+02  0.89665591754E+00 -0.36773025371E+02  0.45045682039E+02  0.00000000000E+00 0. -1.
         11    1    3    3    0    0 -0.29134832647E+00  0.55491307795E+00  0.85623680011E+00  0.10611098390E+01  0.51100000000E-03 0. -1.
        -11    1    3    3    0    0  0.17475550920E+02  0.18559922897E+01  0.20351950016E+02  0.26889430210E+02  0.51100000000E-03 0.  1.
         12    1    3    3    0    0  0.88168374533E+01 -0.33075612852E+01  0.15564838556E+02  0.18191777912E+02  0.00000000000E+00 0. -1.
</event>
<event>
 7    1  0.2328810E-008  0.4614232E+02  0.7816164E-02  0.1320468E+00
        -11   -1    0    0    0    0  0.00000000000E+00  0.00000000000E+00  0.45593999997E+02  0.45594000000E+02  0.51100000000E-03 0.  1.
         11   -1    0    0    0    0 -0.00000000000E+00 -0.00000000000E+00 -0.45593999997E+02  0.45594000000E+02  0.51100000000E-03 0. -1.
    9900012    2    1    2    0    0 -0.26150182882E+02  0.45707554710E-02  0.36678079623E+02  0.46142316406E+02  0.99999876393E+01 0.  0.
         12    1    1    2    0    0  0.26150182882E+02 -0.45707554710E-02 -0.36678079623E+02  0.45045683594E+02  0.00000000000E+00 0. -1.
         11    1    3    3    0    0 -0.11428570370E+02 -0.38845959613E+01  0.16674801744E+02  0.20585220911E+02  0.51100000000E-03 0. -1.
        -11    1    3    3    0    0 -0.71500866703E+01  0.64442761852E+00  0.12498436353E+02  0.14413533151E+02  0.51100000000E-03 0.  1.
        -12    1    3    3    0    0 -0.75715258423E+01  0.32447390983E+01  0.75048415256E+01  0.11143562344E+02  0.00000000000E+00 0.  1.
</event>
<event>
 7    1  0.2328810E-008  0.4614232E+02  0.7816164E-02  0.1320468E+00
        -11   -1    0    0    0    0  0.00000000000E+00  0.00000000000E+00  0.45593999997E+02  0.45594000000E+02  0.51100000000E-03 0.  1.
         11   -1    0    0    0    0 -0.00000000000E+00 -0.00000000000E+00 -0.45593999997E+02  0.45594000000E+02  0.51100000000E-03 0. -1.
    9900012    2    1    2    0    0 -0.21168060174E+02  0.44219104699E+00  0.39759667308E+02  0.46142318199E+02  0.10000003990E+02 0.  0.
         12    1    1    2    0    0  0.21168060174E+02 -0.44219104699E+00 -0.39759667308E+02  0.45045681801E+02  0.00000000000E+00 0. -1.
         11    1    3    3    0    0  0.19674948159E+00 -0.11570628636E+01  0.20427118363E+01  0.23558813078E+01  0.51100000000E-03 0. -1.
        -11    1    3    3    0    0 -0.52380616795E+01  0.12149235551E+01  0.51610854145E+01  0.74531961145E+01  0.51100000000E-03 0.  1.
         12    1    3    3    0    0 -0.16126747976E+02  0.38433035550E+00  0.32555870058E+02  0.36333240776E+02  0.00000000000E+00 0. -1.
</event>
<event>
 7    1  0.2328810E-008  0.4614232E+02  0.7816164E-02  0.1320468E+00
        -11   -1    0    0    0    0  0.00000000000E+00  0.00000000000E+00  0.45593999997E+02  0.45594000000E+02  0.51100000000E-03 0.  1.
         11   -1    0    0    0    0 -0.00000000000E+00 -0.00000000000E+00 -0.45593999997E+02  0.45594000000E+02  0.51100000000E-03 0. -1.
    9900012    2    1    2    0    0 -0.15551675040E+02 -0.28077457170E+02  0.31605617445E+02  0.46142320387E+02  0.10000023948E+02 0.  0.
         12    1    1    2    0    0  0.15551675040E+02  0.28077457170E+02 -0.31605617445E+02  0.45045679613E+02  0.00000000000E+00 0. -1.
         11    1    3    3    0    0 -0.29980897404E+01 -0.74917788931E+01  0.73839951444E+01  0.10937946683E+02  0.51100000000E-03 0. -1.
        -11    1    3    3    0    0 -0.11270365063E+02 -0.19616659830E+02  0.24730633348E+02  0.33517737060E+02  0.51100000000E-03 0.  1.
         12    1    3    3    0    0 -0.12832202368E+01 -0.96901844674E+00 -0.50901104745E+00  0.16866366451E+01  0.00000000000E+00 0. -1.
</event>
<event>
 7    1  0.2328810E-008  0.4614232E+02  0.7816164E-02  0.1320468E+00
        -11   -1    0    0    0    0  0.00000000000E+00  0.00000000000E+00  0.45593999997E+02  0.45594000000E+02  0.51100000000E-03 0.  1.
         11   -1    0    0    0    0 -0.00000000000E+00 -0.00000000000E+00 -0.45593999997E+02  0.45594000000E+02  0.51100000000E-03 0. -1.
    9900012    2    1    2    0    0 -0.43368589808E+02 -0.92481295977E+01  0.79215527544E+01  0.46142317842E+02  0.10000000739E+02 0.  0.
         12    1    1    2    0    0  0.43368589808E+02  0.92481295977E+01 -0.79215527544E+01  0.45045682158E+02  0.00000000000E+00 0. -1.
         11    1    3    3    0    0 -0.27814068182E+02 -0.74014239478E+01  0.69158038176E+01  0.29601212948E+02  0.51100000000E-03 0.  1.
        -11    1    3    3    0    0 -0.40292603755E+01 -0.28576087467E+01  0.20714511664E+00  0.49440647531E+01  0.51100000000E-03 0. -1.
         12    1    3    3    0    0 -0.11525261251E+02  0.10109030968E+01  0.79860382014E+00  0.11597040141E+02  0.00000000000E+00 0. -1.
</event>
<event>
 7    1  0.2328810E-008  0.4614232E+02  0.7816164E-02  0.1320468E+00
        -11   -1    0    0    0    0  0.00000000000E+00  0.00000000000E+00  0.45593999997E+02  0.45594000000E+02  0.51100000000E-03 0.  1.
         11   -1    0    0    0    0 -0.00000000000E+00 -0.00000000000E+00 -0.45593999997E+02  0.45594000000E+02  0.51100000000E-03 0. -1.
    9900012    2    1    2    0    0 -0.12046329196E+02  0.13687314640E+02  0.41190494252E+02  0.46142318233E+02  0.10000004299E+02 0.  0.
         12    1    1    2    0    0  0.12046329196E+02 -0.13687314640E+02 -0.41190494252E+02  0.45045681767E+02  0.00000000000E+00 0. -1.
         11    1    3    3    0    0 -0.53818584132E+01  0.33192323540E+01  0.87494263174E+01  0.10795099098E+02  0.51100000000E-03 0. -1.
        -11    1    3    3    0    0 -0.16292813019E+01  0.38367162363E+01  0.19939512726E+02  0.20370545331E+02  0.51100000000E-03 0.  1.
        -12    1    3    3    0    0 -0.50351894812E+01  0.65313660501E+01  0.12501555208E+02  0.14976673804E+02  0.00000000000E+00 0.  1.
</event>
<event>
 7    1  0.2328810E-008  0.4614232E+02  0.7816164E-02  0.1320468E+00
        -11   -1    0    0    0    0  0.00000000000E+00  0.00000000000E+00  0.45593999997E+02  0.45594000000E+02  0.51100000000E-03 0.  1.
         11   -1    0    0    0    0 -0.00000000000E+00 -0.00000000000E+00 -0.45593999997E+02  0.45594000000E+02  0.51100000000E-03 0. -1.
    9900012    2    1    2    0    0  0.26663153600E+02  0.33826556351E+02 -0.13189158476E+02  0.46142316791E+02  0.99999911546E+01 0.  0.
         12    1    1    2    0    0 -0.26663153600E+02 -0.33826556351E+02  0.13189158476E+02  0.45045683209E+02  0.00000000000E+00 0. -1.
         11    1    3    3    0    0  0.98805028503E+01  0.12379137984E+02 -0.71406088063E+01  0.17373994595E+02  0.51100000000E-03 0. -1.
        -11    1    3    3    0    0  0.97040836782E+01  0.17053321855E+02 -0.56886161243E+01  0.20429032772E+02  0.51100000000E-03 0.  1.
        -12    1    3    3    0    0  0.70785670719E+01  0.43940965120E+01 -0.35993354497E+00  0.83392894245E+01  0.00000000000E+00 0.  1.
</event>
<event>
 7    1  0.2328810E-008  0.4614232E+02  0.7816164E-02  0.1320468E+00
        -11   -1    0    0    0    0  0.00000000000E+00  0.00000000000E+00  0.45593999997E+02  0.45594000000E+02  0.51100000000E-03 0.  1.
         11   -1    0    0    0    0 -0.00000000000E+00 -0.00000000000E+00 -0.45593999997E+02  0.45594000000E+02  0.51100000000E-03 0. -1.
    9900012    2    1    2    0    0  0.33547050622E+02 -0.12450996416E+02  0.27362048577E+02  0.46142316305E+02  0.99999867232E+01 0.  0.
         12    1    1    2    0    0 -0.33547050622E+02  0.12450996416E+02 -0.27362048577E+02  0.45045683695E+02  0.00000000000E+00 0. -1.
         11    1    3    3    0    0  0.11137561792E+02 -0.42812718859E+01  0.14252738441E+02  0.18588037146E+02  0.51100000000E-03 0. -1.
        -11    1    3    3    0    0  0.14133940290E+02 -0.29100066298E+01  0.78289809469E+01  0.16417349044E+02  0.51100000000E-03 0.  1.
         12    1    3    3    0    0  0.82755485400E+01 -0.52597179008E+01  0.52803291899E+01  0.11136930115E+02  0.00000000000E+00 0. -1.
</event>
<event>
 7    1  0.2328810E-008  0.4614232E+02  0.7816164E-02  0.1320468E+00
        -11   -1    0    0    0    0  0.00000000000E+00  0.00000000000E+00  0.45593999997E+02  0.45594000000E+02  0.51100000000E-03 0.  1.
         11   -1    0    0    0    0 -0.00000000000E+00 -0.00000000000E+00 -0.45593999997E+02  0.45594000000E+02  0.51100000000E-03 0. -1.
    9900012    2    1    2    0    0  0.21325949873E+02 -0.21318590651E+02  0.33463938269E+02  0.46142316413E+02  0.99999877056E+01 0.  0.
         12    1    1    2    0    0 -0.21325949873E+02  0.21318590651E+02 -0.33463938269E+02  0.45045683587E+02  0.00000000000E+00 0. -1.
         11    1    3    3    0    0  0.11831707273E+02 -0.13002033677E+02  0.13239195459E+02  0.22007236842E+02  0.51100000000E-03 0.  1.
        -11    1    3    3    0    0  0.15436310388E+00 -0.14834480899E+01  0.34199213256E+01  0.37309929426E+01  0.51100000000E-03 0. -1.
         12    1    3    3    0    0  0.93398794955E+01 -0.68331088847E+01  0.16804821485E+02  0.20404086629E+02  0.00000000000E+00 0. -1.
</event>
<event>
 7    1  0.2328810E-008  0.4614232E+02  0.7816164E-02  0.1320468E+00
        -11   -1    0    0    0    0  0.00000000000E+00  0.00000000000E+00  0.45593999997E+02  0.45594000000E+02  0.51100000000E-03 0.  1.
         11   -1    0    0    0    0 -0.00000000000E+00 -0.00000000000E+00 -0.45593999997E+02  0.45594000000E+02  0.51100000000E-03 0. -1.
    9900012    2    1    2    0    0  0.28427131519E+02  0.32942969962E+02  0.11652143846E+02  0.46142317271E+02  0.99999955331E+01 0.  0.
         12    1    1    2    0    0 -0.28427131519E+02 -0.32942969962E+02 -0.11652143846E+02  0.45045682729E+02  0.00000000000E+00 0. -1.
         11    1    3    3    0    0  0.45556499606E+01  0.54779839948E+01  0.50954574418E+01  0.87593345645E+01  0.51100000000E-03 0. -1.
        -11    1    3    3    0    0  0.90600165747E+00  0.17546033526E+00 -0.46197644321E+00  0.10320115444E+01  0.51100000000E-03 0.  1.
        -12    1    3    3    0    0  0.22965479901E+02  0.27289525632E+02  0.70186628469E+01  0.36350971162E+02  0.00000000000E+00 0.  1.
</event>
<event>
 7    1  0.2328810E-008  0.4614232E+02  0.7816164E-02  0.1320468E+00
        -11   -1    0    0    0    0  0.00000000000E+00  0.00000000000E+00  0.45593999997E+02  0.45594000000E+02  0.51100000000E-03 0.  1.
         11   -1    0    0    0    0 -0.00000000000E+00 -0.00000000000E+00 -0.45593999997E+02  0.45594000000E+02  0.51100000000E-03 0. -1.
    9900012    2    1    2    0    0  0.51672624163E+01  0.21960550381E+02  0.38989066466E+02  0.46142315659E+02  0.99999808283E+01 0.  0.
         12    1    1    2    0    0 -0.51672624163E+01 -0.21960550381E+02 -0.38989066466E+02  0.45045684341E+02  0.00000000000E+00 0. -1.
         11    1    3    3    0    0  0.19007326040E+01  0.17282630800E+01  0.94474998500E+00  0.27371939100E+01  0.51100000000E-03 0. -1.
        -11    1    3    3    0    0 -0.68775356346E+00  0.75684507612E+00  0.19146054516E+01  0.21706067653E+01  0.51100000000E-03 0.  1.
         12    1    3    3    0    0  0.39542833758E+01  0.19475442224E+02  0.36129711029E+02  0.41234514983E+02  0.00000000000E+00 0. -1.
</event>
<event>
 7    1  0.2328810E-008  0.4614232E+02  0.7816164E-02  0.1320468E+00
        -11   -1    0    0    0    0  0.00000000000E+00  0.00000000000E+00  0.45593999997E+02  0.45594000000E+02  0.51100000000E-03 0.  1.
         11   -1    0    0    0    0 -0.00000000000E+00 -0.00000000000E+00 -0.45593999997E+02  0.45594000000E+02  0.51100000000E-03 0. -1.
    9900012    2    1    2    0    0  0.35517446371E+02  0.15337909503E+02 -0.23073211590E+02  0.46142316991E+02  0.99999929810E+01 0.  0.
         12    1    1    2    0    0 -0.35517446371E+02 -0.15337909503E+02  0.23073211590E+02  0.45045683009E+02  0.00000000000E+00 0. -1.
         11    1    3    3    0    0  0.12378507039E+02  0.70013959616E+01 -0.55731038329E+01  0.15274372934E+02  0.51100000000E-03 0. -1.
        -11    1    3    3    0    0  0.19019431213E+02  0.93367229126E+01 -0.14688867958E+02  0.25781311071E+02  0.51100000000E-03 0.  1.
         12    1    3    3    0    0  0.41195081188E+01 -0.10002093712E+01 -0.28112397994E+01  0.50866329863E+01  0.00000000000E+00 0. -1.
</event>
<event>
 7    1  0.2328810E-008  0.4614232E+02  0.7816164E-02  0.1320468E+00
        -11   -1    0    0    0    0  0.00000000000E+00  0.00000000000E+00  0.45593999997E+02  0.45594000000E+02  0.51100000000E-03 0.  1.
         11   -1    0    0    0    0 -0.00000000000E+00 -0.00000000000E+00 -0.45593999997E+02  0.45594000000E+02  0.51100000000E-03 0. -1.
    9900012    2    1    2    0    0  0.16078882133E+02 -0.22706226481E+02  0.35426124666E+02  0.46142317849E+02  0.10000000800E+02 0.  0.
         12    1    1    2    0    0 -0.16078882133E+02  0.22706226481E+02 -0.35426124666E+02  0.45045682151E+02  0.00000000000E+00 0. -1.
         11    1    3    3    0    0  0.47173322171E+00 -0.37445892029E+01  0.30590616144E+01  0.48582238269E+01  0.51100000000E-03 0. -1.
        -11    1    3    3    0    0  0.14804782050E+02 -0.19217269741E+02  0.32358396987E+02  0.40441944607E+02  0.51100000000E-03 0.  1.
         12    1    3    3    0    0  0.80236686119E+00  0.25563246266E+00  0.86660648381E-02  0.84214941464E+00  0.00000000000E+00 0. -1.
</event>
<event>
 7    1  0.2328810E-008  0.4614232E+02  0.7816164E-02  0.1320468E+00
        -11   -1    0    0    0    0  0.00000000000E+00  0.00000000000E+00  0.45593999997E+02  0.45594000000E+02  0.51100000000E-03 0.  1.
         11   -1    0    0    0    0 -0.00000000000E+00 -0.00000000000E+00 -0.45593999997E+02  0.45594000000E+02  0.51100000000E-03 0. -1.
    9900012    2    1    2    0    0 -0.19316848941E+02  0.35486109644E+01  0.40538625636E+02  0.46142318062E+02  0.10000002745E+02 0.  0.
         12    1    1    2    0    0  0.19316848941E+02 -0.35486109644E+01 -0.40538625636E+02  0.45045681938E+02  0.00000000000E+00 0. -1.
         11    1    3    3    0    0 -0.50924335139E+01  0.46840330479E+01  0.13562217300E+02  0.15225202233E+02  0.51100000000E-03 0. -1.
        -11    1    3    3    0    0 -0.79781891676E+01 -0.30823352569E+01  0.15806015753E+02  0.17971711862E+02  0.51100000000E-03 0.  1.
        -12    1    3    3    0    0 -0.62462262597E+01  0.19469131734E+01  0.11170392584E+02  0.12945403967E+02  0.00000000000E+00 0.  1.
</event>
<event>
 7    1  0.2328810E-008  0.4614232E+02  0.7816164E-02  0.1320468E+00
        -11   -1    0    0    0    0  0.00000000000E+00  0.00000000000E+00  0.45593999997E+02  0.45594000000E+02  0.51100000000E-03 0.  1.
         11   -1    0    0    0    0 -0.00000000000E+00 -0.00000000000E+00 -0.45593999997E+02  0.45594000000E+02  0.51100000000E-03 0. -1.
    9900012    2    1    2    0    0 -0.71196746229E+01  0.31649360514E+02  0.31252866048E+02  0.46142318477E+02  0.10000006530E+02 0.  0.
         12    1    1    2    0    0  0.71196746229E+01 -0.31649360514E+02 -0.31252866048E+02  0.45045681523E+02  0.00000000000E+00 0. -1.
         11    1    3    3    0    0  0.68167625239E+00  0.10772358003E+02  0.86360805945E+01  0.13823540348E+02  0.51100000000E-03 0. -1.
        -11    1    3    3    0    0 -0.69270046738E+01  0.10567442680E+02  0.13952314942E+02  0.18823425062E+02  0.51100000000E-03 0.  1.
        -12    1    3    3    0    0 -0.87434620141E+00  0.10309559830E+02  0.86644705109E+01  0.13495353067E+02  0.00000000000E+00 0.  1.
</event>
<event>
 7    1  0.2328810E-008  0.4614232E+02  0.7816164E-02  0.1320468E+00
        -11   -1    0    0    0    0  0.00000000000E+00  0.00000000000E+00  0.45593999997E+02  0.45594000000E+02  0.51100000000E-03 0.  1.
         11   -1    0    0    0    0 -0.00000000000E+00 -0.00000000000E+00 -0.45593999997E+02  0.45594000000E+02  0.51100000000E-03 0. -1.
    9900012    2    1    2    0    0  0.41510522178E+02  0.17990448431E+00  0.17491642673E+02  0.46142318958E+02  0.10000010914E+02 0.  0.
         12    1    1    2    0    0 -0.41510522178E+02 -0.17990448431E+00 -0.17491642673E+02  0.45045681042E+02  0.00000000000E+00 0. -1.
         11    1    3    3    0    0  0.38447830433E+01 -0.14242481202E+01  0.95835296877E+00  0.42106151607E+01  0.51100000000E-03 0. -1.
        -11    1    3    3    0    0  0.27366700198E+02 -0.19206972635E+01  0.97991759578E+01  0.29131584362E+02  0.51100000000E-03 0.  1.
        -12    1    3    3    0    0  0.10299038937E+02  0.35248498680E+01  0.67341137463E+01  0.12800119435E+02  0.00000000000E+00 0.  1.
</event>
<event>
 7    1  0.2328810E-008  0.4614232E+02  0.7816164E-02  0.1320468E+00
        -11   -1    0    0    0    0  0.00000000000E+00  0.00000000000E+00  0.45593999997E+02  0.45594000000E+02  0.51100000000E-03 0.  1.
         11   -1    0    0    0    0 -0.00000000000E+00 -0.00000000000E+00 -0.45593999997E+02  0.45594000000E+02  0.51100000000E-03 0. -1.
    9900012    2    1    2    0    0  0.39701980269E+02 -0.67164914352E+01  0.20192944322E+02  0.46142317689E+02  0.99999993451E+01 0.  0.
         12    1    1    2    0    0 -0.39701980269E+02  0.67164914352E+01 -0.20192944322E+02  0.45045682311E+02  0.00000000000E+00 0. -1.
         11    1    3    3    0    0  0.24123408493E+02 -0.24679386034E+01  0.11923492468E+02  0.27022198859E+02  0.51100000000E-03 0. -1.
        -11    1    3    3    0    0  0.10423392545E+02 -0.48094530550E+01  0.33158894586E+01  0.11948768723E+02  0.51100000000E-03 0.  1.
         12    1    3    3    0    0  0.51551792306E+01  0.56090022321E+00  0.49535623947E+01  0.71713501071E+01  0.00000000000E+00 0. -1.
</event>
<event>
 7    1  0.2328810E-008  0.4614232E+02  0.7816164E-02  0.1320468E+00
        -11   -1    0    0    0    0  0.00000000000E+00  0.00000000000E+00  0.45593999997E+02  0.45594000000E+02  0.51100000000E-03 0.  1.
         11   -1    0    0    0    0 -0.00000000000E+00 -0.00000000000E+00 -0.45593999997E+02  0.45594000000E+02  0.51100000000E-03 0. -1.
    9900012    2    1    2    0    0  0.30241522743E+02  0.18964238567E+02  0.27475834238E+02  0.46142317529E+02  0.99999978821E+01 0.  0.
         12    1    1    2    0    0 -0.30241522743E+02 -0.18964238567E+02 -0.27475834238E+02  0.45045682471E+02  0.00000000000E+00 0. -1.
         11    1    3    3    0    0  0.13728604888E+02  0.92523786461E+01  0.10115147623E+02  0.19400961690E+02  0.51100000000E-03 0. -1.
        -11    1    3    3    0    0  0.15891439445E+02  0.73632994013E+01  0.16753845518E+02  0.24237313499E+02  0.51100000000E-03 0.  1.
         12    1    3    3    0    0  0.62147840964E+00  0.23485605196E+01  0.60684109609E+00  0.25040423407E+01  0.00000000000E+00 0. -1.
</event>
<event>
 7    1  0.2328810E-008  0.4614232E+02  0.7816164E-02  0.1320468E+00
        -11   -1    0    0    0    0  0.00000000000E+00  0.00000000000E+00  0.45593999997E+02  0.45594000000E+02  0.51100000000E-03 0.  1.
         11   -1    0    0    0    0 -0.00000000000E+00 -0.00000000000E+00 -0.45593999997E+02  0.45594000000E+02  0.51100000000E-03 0. -1.
    9900012    2    1    2    0    0 -0.11755060576E+02  0.13532032959E+01  0.43463790679E+02  0.46142315318E+02  0.99999777207E+01 0.  0.
         12    1    1    2    0    0  0.11755060576E+02 -0.13532032959E+01 -0.43463790679E+02  0.45045684682E+02  0.00000000000E+00 0. -1.
         11    1    3    3    0    0 -0.44384031439E+00 -0.19919541764E+01  0.20240352862E+01  0.28742990044E+01  0.51100000000E-03 0. -1.
        -11    1    3    3    0    0 -0.45564242126E+01  0.33834041038E+01  0.17886320486E+02  0.18765097541E+02  0.51100000000E-03 0.  1.
        -12    1    3    3    0    0 -0.67547960489E+01 -0.38246631450E-01  0.23553434906E+02  0.24502918772E+02  0.00000000000E+00 0.  1.
</event>
<event>
 7    1  0.2328810E-008  0.4614232E+02  0.7816164E-02  0.1320468E+00
        -11   -1    0    0    0    0  0.00000000000E+00  0.00000000000E+00  0.45593999997E+02  0.45594000000E+02  0.51100000000E-03 0.  1.
         11   -1    0    0    0    0 -0.00000000000E+00 -0.00000000000E+00 -0.45593999997E+02  0.45594000000E+02  0.51100000000E-03 0. -1.
    9900012    2    1    2    0    0 -0.21269471204E+02 -0.14384502011E+02  0.37010933602E+02  0.46142317526E+02  0.99999978566E+01 0.  0.
         12    1    1    2    0    0  0.21269471204E+02  0.14384502011E+02 -0.37010933602E+02  0.45045682474E+02  0.00000000000E+00 0. -1.
         11    1    3    3    0    0  0.46492032505E+00 -0.24523274008E+00  0.13821941383E+01  0.14787666829E+01  0.51100000000E-03 0. -1.
        -11    1    3    3    0    0 -0.58841589296E+01 -0.12141135456E+01  0.11947601361E+02  0.13373203676E+02  0.51100000000E-03 0.  1.
        -12    1    3    3    0    0 -0.15850232600E+02 -0.12925155726E+02  0.23681138103E+02  0.31290347167E+02  0.00000000000E+00 0.  1.
</event>
<event>
 7    1  0.2328810E-008  0.4614232E+02  0.7816164E-02  0.1320468E+00
        -11   -1    0    0    0    0  0.00000000000E+00  0.00000000000E+00  0.45593999997E+02  0.45594000000E+02  0.51100000000E-03 0.  1.
         11   -1    0    0    0    0 -0.00000000000E+00 -0.00000000000E+00 -0.45593999997E+02  0.45594000000E+02  0.51100000000E-03 0. -1.
    9900012    2    1    2    0    0  0.13328655642E+02  0.40634708987E+02  0.14152059305E+02  0.46142318540E+02  0.10000007101E+02 0.  0.
         12    1    1    2    0    0 -0.13328655642E+02 -0.40634708987E+02 -0.14152059305E+02  0.45045681460E+02  0.00000000000E+00 0. -1.
         11    1    3    3    0    0  0.49375389489E+01  0.21836199850E+02  0.38514060225E+01  0.22716343090E+02  0.51100000000E-03 0. -1.
        -11    1    3    3    0    0  0.21007898624E+01  0.17621368667E+01  0.49181721655E+00  0.27857366743E+01  0.51100000000E-03 0.  1.
        -12    1    3    3    0    0  0.62903268303E+01  0.17036372270E+02  0.98088360658E+01  0.20640238776E+02  0.00000000000E+00 0.  1.
</event>
<event>
 7    1  0.2328810E-008  0.4614232E+02  0.7816164E-02  0.1320468E+00
        -11   -1    0    0    0    0  0.00000000000E+00  0.00000000000E+00  0.45593999997E+02  0.45594000000E+02  0.51100000000E-03 0.  1.
         11   -1    0    0    0    0 -0.00000000000E+00 -0.00000000000E+00 -0.45593999997E+02  0.45594000000E+02  0.51100000000E-03 0. -1.
    9900012    2    1    2    0    0  0.18405345134E+02  0.23087018455E+02  0.34019791192E+02  0.46142319370E+02  0.10000014669E+02 0.  0.
         12    1    1    2    0    0 -0.18405345134E+02 -0.23087018455E+02 -0.34019791192E+02  0.45045680630E+02  0.00000000000E+00 0. -1.
         11    1    3    3    0    0  0.76646221614E+01  0.10704694500E+02  0.15480379299E+02  0.20321886249E+02  0.51100000000E-03 0. -1.
        -11    1    3    3    0    0  0.10769198553E+02  0.85008053900E+01  0.16421125748E+02  0.21398427532E+02  0.51100000000E-03 0.  1.
         12    1    3    3    0    0 -0.28475580243E-01  0.38815185657E+01  0.21182861456E+01  0.44220055891E+01  0.00000000000E+00 0. -1.
</event>
<event>
 7    1  0.2328810E-008  0.4614232E+02  0.7816164E-02  0.1320468E+00
        -11   -1    0    0    0    0  0.00000000000E+00  0.00000000000E+00  0.45593999997E+02  0.45594000000E+02  0.51100000000E-03 0.  1.
         11   -1    0    0    0    0 -0.00000000000E+00 -0.00000000000E+00 -0.45593999997E+02  0.45594000000E+02  0.51100000000E-03 0. -1.
    9900012    2    1    2    0    0 -0.44459582800E+01  0.36396588378E+02  0.26165536925E+02  0.46142317486E+02  0.99999974926E+01 0.  0.
         12    1    1    2    0    0  0.44459582800E+01 -0.36396588378E+02 -0.26165536925E+02  0.45045682514E+02  0.00000000000E+00 0. -1.
         11    1    3    3    0    0 -0.16421241297E+01  0.28294043164E+01  0.17558061379E+01  0.37128097040E+01  0.51100000000E-03 0. -1.
        -11    1    3    3    0    0 -0.70194202403E+00  0.29725941264E+02  0.23633670216E+02  0.37982557508E+02  0.51100000000E-03 0.  1.
        -12    1    3    3    0    0 -0.21018921263E+01  0.38412427968E+01  0.77606057082E+00  0.44469502745E+01  0.00000000000E+00 0.  1.
</event>
<event>
 7    1  0.2328810E-008  0.4614232E+02  0.7816164E-02  0.1320468E+00
        -11   -1    0    0    0    0  0.00000000000E+00  0.00000000000E+00  0.45593999997E+02  0.45594000000E+02  0.51100000000E-03 0.  1.
         11   -1    0    0    0    0 -0.00000000000E+00 -0.00000000000E+00 -0.45593999997E+02  0.45594000000E+02  0.51100000000E-03 0. -1.
    9900012    2    1    2    0    0  0.18004090038E+02  0.22943745331E+02  0.34330027437E+02  0.46142317724E+02  0.99999996601E+01 0.  0.
         12    1    1    2    0    0 -0.18004090038E+02 -0.22943745331E+02 -0.34330027437E+02  0.45045682276E+02  0.00000000000E+00 0. -1.
         11    1    3    3    0    0 -0.71542254625E+00  0.11436846639E+00  0.44003948223E-01  0.72584170063E+00  0.51100000000E-03 0. -1.
        -11    1    3    3    0    0  0.81628110191E+01  0.71219122243E+01  0.11570552105E+02  0.15850261630E+02  0.51100000000E-03 0.  1.
         12    1    3    3    0    0  0.10556701565E+02  0.15707464640E+02  0.22715471384E+02  0.29566214393E+02  0.00000000000E+00 0. -1.
</event>
<event>
 7    1  0.2328810E-008  0.4614232E+02  0.7816164E-02  0.1320468E+00
        -11   -1    0    0    0    0  0.00000000000E+00  0.00000000000E+00  0.45593999997E+02  0.45594000000E+02  0.51100000000E-03 0. -1.
         11   -1    0    0    0    0 -0.00000000000E+00 -0.00000000000E+00 -0.45593999997E+02  0.45594000000E+02  0.51100000000E-03 0.  1.
    9900012    2    1    2    0    0  0.41335425442E+02  0.11784489722E+02 -0.13476714615E+02  0.46142318394E+02  0.10000005772E+02 0.  0.
         12    1    1    2    0    0 -0.41335425442E+02 -0.11784489722E+02  0.13476714615E+02  0.45045681606E+02  0.00000000000E+00 0. -1.
         11    1    3    3    0    0  0.85402737773E+01  0.49651112613E+01 -0.32196206033E+01  0.10390118532E+02  0.51100000000E-03 0.  1.
        -11    1    3    3    0    0  0.32707190977E+02  0.61023705598E+01 -0.92883678776E+01  0.34543784479E+02  0.51100000000E-03 0. -1.
         12    1    3    3    0    0  0.87960688241E-01  0.71700790136E+00 -0.96872613450E+00  0.12084153826E+01  0.00000000000E+00 0. -1.
</event>
<event>
 7    1  0.2328810E-008  0.4614232E+02  0.7816164E-02  0.1320468E+00
        -11   -1    0    0    0    0  0.00000000000E+00  0.00000000000E+00  0.45593999997E+02  0.45594000000E+02  0.51100000000E-03 0.  1.
         11   -1    0    0    0    0 -0.00000000000E+00 -0.00000000000E+00 -0.45593999997E+02  0.45594000000E+02  0.51100000000E-03 0. -1.
    9900012    2    1    2    0    0  0.34342775894E+02 -0.61774473342E+01  0.28487303072E+02  0.46142317099E+02  0.99999939626E+01 0.  0.
         12    1    1    2    0    0 -0.34342775894E+02  0.61774473342E+01 -0.28487303072E+02  0.45045682901E+02  0.00000000000E+00 0. -1.
         11    1    3    3    0    0 -0.14878778289E+00  0.31138508011E+00  0.38980198649E+00  0.52061917199E+00  0.51100000000E-03 0. -1.
        -11    1    3    3    0    0  0.16745827206E+02 -0.44927543125E+01  0.92242385486E+01  0.19639097413E+02  0.51100000000E-03 0.  1.
        -12    1    3    3    0    0  0.17745736471E+02 -0.19960781018E+01  0.18873262537E+02  0.25982600514E+02  0.00000000000E+00 0.  1.
</event>
<event>
 7    1  0.2328810E-008  0.4614232E+02  0.7816164E-02  0.1320468E+00
        -11   -1    0    0    0    0  0.00000000000E+00  0.00000000000E+00  0.45593999997E+02  0.45594000000E+02  0.51100000000E-03 0. -1.
         11   -1    0    0    0    0 -0.00000000000E+00 -0.00000000000E+00 -0.45593999997E+02  0.45594000000E+02  0.51100000000E-03 0.  1.
    9900012    2    1    2    0    0  0.12382190923E+02 -0.28572722592E+02 -0.32548338376E+02  0.46142318082E+02  0.10000002926E+02 0.  0.
         12    1    1    2    0    0 -0.12382190923E+02  0.28572722592E+02  0.32548338376E+02  0.45045681918E+02  0.00000000000E+00 0. -1.
         11    1    3    3    0    0  0.89673701585E+01 -0.99912900307E+01 -0.10963406313E+02  0.17333086346E+02  0.51100000000E-03 0.  1.
        -11    1    3    3    0    0 -0.49809645040E-01 -0.38130949848E+01 -0.32321523242E+01  0.49988982058E+01  0.51100000000E-03 0. -1.
        -12    1    3    3    0    0  0.34646304099E+01 -0.14768337577E+02 -0.18352779739E+02  0.23810333530E+02  0.00000000000E+00 0.  1.
</event>
<event>
 7    1  0.2328810E-008  0.4614232E+02  0.7816164E-02  0.1320468E+00
        -11   -1    0    0    0    0  0.00000000000E+00  0.00000000000E+00  0.45593999997E+02  0.45594000000E+02  0.51100000000E-03 0. -1.
         11   -1    0    0    0    0 -0.00000000000E+00 -0.00000000000E+00 -0.45593999997E+02  0.45594000000E+02  0.51100000000E-03 0.  1.
    9900012    2    1    2    0    0 -0.85251693262E+01  0.34149372218E+02 -0.28111481410E+02  0.46142317388E+02  0.99999965940E+01 0.  0.
         12    1    1    2    0    0  0.85251693262E+01 -0.34149372218E+02  0.28111481410E+02  0.45045682612E+02  0.00000000000E+00 0. -1.
         11    1    3    3    0    0 -0.26933160141E+01  0.90460680476E+01 -0.79470343133E+01  0.12338583910E+02  0.51100000000E-03 0. -1.
        -11    1    3    3    0    0 -0.60776401817E+01  0.25530483325E+02 -0.20416465724E+02  0.33250193412E+02  0.51100000000E-03 0.  1.
         12    1    3    3    0    0  0.24578686966E+00 -0.42717915446E+00  0.25201862754E+00  0.55354006534E+00  0.00000000000E+00 0. -1.
</event>
<event>
 7    1  0.2328810E-008  0.4614231E+02  0.7816164E-02  0.1320468E+00
        -11   -1    0    0    0    0  0.00000000000E+00  0.00000000000E+00  0.45593999997E+02  0.45594000000E+02  0.51100000000E-03 0.  1.
         11   -1    0    0    0    0 -0.00000000000E+00 -0.00000000000E+00 -0.45593999997E+02  0.45594000000E+02  0.51100000000E-03 0. -1.
    9900012    2    1    2    0    0 -0.40705193020E+02  0.81881540173E+01 -0.17468711484E+02  0.46142306688E+02  0.99998990306E+01 0.  0.
         12    1    1    2    0    0  0.40705193020E+02 -0.81881540173E+01  0.17468711484E+02  0.45045693312E+02  0.00000000000E+00 0. -1.
         11    1    3    3    0    0 -0.79028262522E+01 -0.83398255409E+00 -0.41164743664E+01  0.89496117873E+01  0.51100000000E-03 0.  1.
        -11    1    3    3    0    0 -0.15413514393E+01 -0.29604071373E+00  0.64409278757E+00  0.16965435873E+01  0.51100000000E-03 0. -1.
         12    1    3    3    0    0 -0.31261015329E+02  0.93181772852E+01 -0.13996329905E+02  0.35496151314E+02  0.00000000000E+00 0. -1.
</event>
<event>
 7    1  0.2328810E-008  0.4614233E+02  0.7816164E-02  0.1320468E+00
        -11   -1    0    0    0    0  0.00000000000E+00  0.00000000000E+00  0.45593999997E+02  0.45594000000E+02  0.51100000000E-03 0.  1.
         11   -1    0    0    0    0 -0.00000000000E+00 -0.00000000000E+00 -0.45593999997E+02  0.45594000000E+02  0.51100000000E-03 0. -1.
    9900012    2    1    2    0    0 -0.55408179755E+01  0.36696906619E+02  0.25529377135E+02  0.46142326333E+02  0.10000078165E+02 0.  0.
         12    1    1    2    0    0  0.55408179755E+01 -0.36696906619E+02 -0.25529377135E+02  0.45045673667E+02  0.00000000000E+00 0. -1.
         11    1    3    3    0    0 -0.78228100299E+00  0.99199539440E+00  0.14192676202E+01  0.19000892792E+01  0.51100000000E-03 0. -1.
        -11    1    3    3    0    0  0.72370741442E+00  0.94449999225E+01  0.10567253962E+02  0.14191498600E+02  0.51100000000E-03 0.  1.
         12    1    3    3    0    0 -0.54822443869E+01  0.26259911302E+02  0.13542855553E+02  0.30050738454E+02  0.00000000000E+00 0. -1.
</event>
<event>
 7    1  0.2328810E-008  0.4614232E+02  0.7816164E-02  0.1320468E+00
        -11   -1    0    0    0    0  0.00000000000E+00  0.00000000000E+00  0.45593999997E+02  0.45594000000E+02  0.51100000000E-03 0.  1.
         11   -1    0    0    0    0 -0.00000000000E+00 -0.00000000000E+00 -0.45593999997E+02  0.45594000000E+02  0.51100000000E-03 0. -1.
    9900012    2    1    2    0    0 -0.25557204861E+02 -0.24265825963E+02  0.28055528678E+02  0.46142315197E+02  0.99999766197E+01 0.  0.
         12    1    1    2    0    0  0.25557204861E+02  0.24265825963E+02 -0.28055528678E+02  0.45045684803E+02  0.00000000000E+00 0. -1.
         11    1    3    3    0    0  0.45682111078E-01  0.31309116852E+00 -0.58126000020E-01  0.32170145800E+00  0.51100000000E-03 0. -1.
        -11    1    3    3    0    0 -0.15149828146E+02 -0.15692303694E+02  0.12930057042E+02  0.25356499432E+02  0.51100000000E-03 0.  1.
        -12    1    3    3    0    0 -0.10453058826E+02 -0.88866134374E+01  0.15183597636E+02  0.20464114307E+02  0.00000000000E+00 0.  1.
</event>
<event>
 7    1  0.2328810E-008  0.4614232E+02  0.7816164E-02  0.1320468E+00
        -11   -1    0    0    0    0  0.00000000000E+00  0.00000000000E+00  0.45593999997E+02  0.45594000000E+02  0.51100000000E-03 0.  1.
         11   -1    0    0    0    0 -0.00000000000E+00 -0.00000000000E+00 -0.45593999997E+02  0.45594000000E+02  0.51100000000E-03 0. -1.
    9900012    2    1    2    0    0  0.20258870468E+02  0.16269785258E+01  0.40200056391E+02  0.46142318458E+02  0.10000006357E+02 0.  0.
         12    1    1    2    0    0 -0.20258870468E+02 -0.16269785258E+01 -0.40200056391E+02  0.45045681542E+02  0.00000000000E+00 0. -1.
         11    1    3    3    0    0  0.12084266344E+02  0.18785329622E+01  0.28549859002E+02  0.31058860708E+02  0.51100000000E-03 0. -1.
        -11    1    3    3    0    0  0.35442332421E+01 -0.95293427675E+00  0.89601416861E+01  0.96826552302E+01  0.51100000000E-03 0.  1.
        -12    1    3    3    0    0  0.46303708814E+01  0.70137984037E+00  0.26900557024E+01  0.54008025202E+01  0.00000000000E+00 0.  1.
</event>
<event>
 7    1  0.2328810E-008  0.4614232E+02  0.7816164E-02  0.1320468E+00
        -11   -1    0    0    0    0  0.00000000000E+00  0.00000000000E+00  0.45593999997E+02  0.45594000000E+02  0.51100000000E-03 0.  1.
         11   -1    0    0    0    0 -0.00000000000E+00 -0.00000000000E+00 -0.45593999997E+02  0.45594000000E+02  0.51100000000E-03 0. -1.
    9900012    2    1    2    0    0  0.30000787339E+02  0.18067483768E+01  0.33552971982E+02  0.46142317527E+02  0.99999978627E+01 0.  0.
         12    1    1    2    0    0 -0.30000787339E+02 -0.18067483768E+01 -0.33552971982E+02  0.45045682473E+02  0.00000000000E+00 0. -1.
         11    1    3    3    0    0  0.67614324463E+01  0.35578293570E+00  0.31681814706E+01  0.74753544608E+01  0.51100000000E-03 0. -1.
        -11    1    3    3    0    0  0.35468904676E+01  0.19409952878E+01  0.70713091144E+01  0.81456311940E+01  0.51100000000E-03 0.  1.
        -12    1    3    3    0    0  0.19692464425E+02 -0.49002984671E+00  0.23313481397E+02  0.30521331872E+02  0.00000000000E+00 0.  1.
</event>
<event>
 7    1  0.2328810E-008  0.4614232E+02  0.7816164E-02  0.1320468E+00
        -11   -1    0    0    0    0  0.00000000000E+00  0.00000000000E+00  0.45593999997E+02  0.45594000000E+02  0.51100000000E-03 0.  1.
         11   -1    0    0    0    0 -0.00000000000E+00 -0.00000000000E+00 -0.45593999997E+02  0.45594000000E+02  0.51100000000E-03 0. -1.
    9900012    2    1    2    0    0  0.33941033878E+02 -0.26579740737E+02  0.13062814189E+02  0.46142317489E+02  0.99999975229E+01 0.  0.
         12    1    1    2    0    0 -0.33941033878E+02  0.26579740737E+02 -0.13062814189E+02  0.45045682511E+02  0.00000000000E+00 0. -1.
         11    1    3    3    0    0  0.94521484684E+01 -0.57114646531E+01  0.65990043359E+01  0.12865099986E+02  0.51100000000E-03 0. -1.
        -11    1    3    3    0    0  0.13721829541E+02 -0.81155804079E+01  0.27231135671E+01  0.16173020716E+02  0.51100000000E-03 0.  1.
         12    1    3    3    0    0  0.10767055868E+02 -0.12752695676E+02  0.37406962857E+01  0.17104196788E+02  0.00000000000E+00 0. -1.
</event>
<event>
 7    1  0.2328810E-008  0.4614232E+02  0.7816164E-02  0.1320468E+00
        -11   -1    0    0    0    0  0.00000000000E+00  0.00000000000E+00  0.45593999997E+02  0.45594000000E+02  0.51100000000E-03 0.  1.
         11   -1    0    0    0    0 -0.00000000000E+00 -0.00000000000E+00 -0.45593999997E+02  0.45594000000E+02  0.51100000000E-03 0. -1.
    9900012    2    1    2    0    0  0.14843709333E+02  0.28247064825E+02  0.31794355446E+02  0.46142318562E+02  0.10000007303E+02 0.  0.
         12    1    1    2    0    0 -0.14843709333E+02 -0.28247064825E+02 -0.31794355446E+02  0.45045681438E+02  0.00000000000E+00 0. -1.
         11    1    3    3    0    0 -0.88006263196E+00 -0.40219869276E-01  0.16972707966E+01  0.19122908493E+01  0.51100000000E-03 0. -1.
        -11    1    3    3    0    0  0.55806108162E+01  0.11694304233E+02  0.12436706017E+02  0.17960279101E+02  0.51100000000E-03 0.  1.
         12    1    3    3    0    0  0.10143161148E+02  0.16592980461E+02  0.17660378633E+02  0.26269748612E+02  0.00000000000E+00 0. -1.
</event>
<event>
 7    1  0.2328810E-008  0.4614233E+02  0.7816164E-02  0.1320468E+00
        -11   -1    0    0    0    0  0.00000000000E+00  0.00000000000E+00  0.45593999997E+02  0.45594000000E+02  0.51100000000E-03 0. -1.
         11   -1    0    0    0    0 -0.00000000000E+00 -0.00000000000E+00 -0.45593999997E+02  0.45594000000E+02  0.51100000000E-03 0.  1.
    9900012    2    1    2    0    0  0.36270426888E+02  0.12091310536E+02 -0.23819506321E+02  0.46142328305E+02  0.10000096148E+02 0.  0.
         12    1    1    2    0    0 -0.36270426888E+02 -0.12091310536E+02  0.23819506321E+02  0.45045671695E+02  0.00000000000E+00 0. -1.
         11    1    3    3    0    0  0.16655162980E+02  0.34814374709E+01 -0.12083143168E+02  0.20869049087E+02  0.51100000000E-03 0. -1.
        -11    1    3    3    0    0  0.81071433928E+00 -0.97437432911E+00 -0.50079154434E+00  0.13628849934E+01  0.51100000000E-03 0.  1.
        -12    1    3    3    0    0  0.18804549569E+02  0.95842473938E+01 -0.11235571609E+02  0.23910394224E+02  0.00000000000E+00 0.  1.
</event>
<event>
 7    1  0.2328810E-008  0.4614232E+02  0.7816164E-02  0.1320468E+00
        -11   -1    0    0    0    0  0.00000000000E+00  0.00000000000E+00  0.45593999997E+02  0.45594000000E+02  0.51100000000E-03 0. -1.
         11   -1    0    0    0    0 -0.00000000000E+00 -0.00000000000E+00 -0.45593999997E+02  0.45594000000E+02  0.51100000000E-03 0.  1.
    9900012    2    1    2    0    0 -0.39334940820E+02  0.18177516236E+02 -0.12306665211E+02  0.46142315695E+02  0.99999811626E+01 0.  0.
         12    1    1    2    0    0  0.39334940820E+02 -0.18177516236E+02  0.12306665211E+02  0.45045684305E+02  0.00000000000E+00 0. -1.
         11    1    3    3    0    0 -0.31431486989E+01 -0.71766962529E+00 -0.57626858175E-01  0.32245549383E+01  0.51100000000E-03 0. -1.
        -11    1    3    3    0    0 -0.19937188619E+02  0.99156242550E+01 -0.92296917057E+01  0.24103906398E+02  0.51100000000E-03 0.  1.
        -12    1    3    3    0    0 -0.16254603503E+02  0.89795616067E+01 -0.30193466470E+01  0.18813854359E+02  0.00000000000E+00 0.  1.
</event>
<event>
 7    1  0.2328810E-008  0.4614232E+02  0.7816164E-02  0.1320468E+00
        -11   -1    0    0    0    0  0.00000000000E+00  0.00000000000E+00  0.45593999997E+02  0.45594000000E+02  0.51100000000E-03 0.  1.
         11   -1    0    0    0    0 -0.00000000000E+00 -0.00000000000E+00 -0.45593999997E+02  0.45594000000E+02  0.51100000000E-03 0. -1.
    9900012    2    1    2    0    0  0.43671091090E+02  0.56796652429E+01 -0.94705193321E+01  0.46142317291E+02  0.99999957177E+01 0.  0.
         12    1    1    2    0    0 -0.43671091090E+02 -0.56796652429E+01  0.94705193321E+01  0.45045682709E+02  0.00000000000E+00 0. -1.
         11    1    3    3    0    0  0.17934853993E+02  0.61847555643E+01 -0.17990055854E+01  0.19056406023E+02  0.51100000000E-03 0. -1.
        -11    1    3    3    0    0  0.34852231561E+01 -0.10452155024E+01 -0.35136256206E+00  0.36555043161E+01  0.51100000000E-03 0.  1.
         12    1    3    3    0    0  0.22251013941E+02  0.54012518106E+00 -0.73201511847E+01  0.23430406953E+02  0.00000000000E+00 0. -1.
</event>
<event>
 7    1  0.2328810E-008  0.4614232E+02  0.7816164E-02  0.1320468E+00
        -11   -1    0    0    0    0  0.00000000000E+00  0.00000000000E+00  0.45593999997E+02  0.45594000000E+02  0.51100000000E-03 0. -1.
         11   -1    0    0    0    0 -0.00000000000E+00 -0.00000000000E+00 -0.45593999997E+02  0.45594000000E+02  0.51100000000E-03 0.  1.
    9900012    2    1    2    0    0  0.24255199708E+02 -0.33346710105E+02 -0.18132719864E+02  0.46142319659E+02  0.10000017308E+02 0.  0.
         12    1    1    2    0    0 -0.24255199708E+02  0.33346710105E+02  0.18132719864E+02  0.45045680341E+02  0.00000000000E+00 0. -1.
         11    1    3    3    0    0  0.23503642959E+01 -0.13602614404E+01 -0.88337486395E+00  0.28556741623E+01  0.51100000000E-03 0. -1.
        -11    1    3    3    0    0  0.15559611665E+02 -0.15276592298E+02 -0.87635915795E+01  0.23500560101E+02  0.51100000000E-03 0.  1.
         12    1    3    3    0    0  0.63452237469E+01 -0.16709856366E+02 -0.84857534207E+01  0.19786085396E+02  0.00000000000E+00 0. -1.
</event>
<event>
 7    1  0.2328810E-008  0.4614232E+02  0.7816164E-02  0.1320468E+00
        -11   -1    0    0    0    0  0.00000000000E+00  0.00000000000E+00  0.45593999997E+02  0.45594000000E+02  0.51100000000E-03 0. -1.
         11   -1    0    0    0    0 -0.00000000000E+00 -0.00000000000E+00 -0.45593999997E+02  0.45594000000E+02  0.51100000000E-03 0.  1.
    9900012    2    1    2    0    0  0.20152274478E+02 -0.21154027998E+02 -0.34285660324E+02  0.46142316844E+02  0.99999916342E+01 0.  0.
         12    1    1    2    0    0 -0.20152274478E+02  0.21154027998E+02  0.34285660324E+02  0.45045683156E+02  0.00000000000E+00 0. -1.
         11    1    3    3    0    0  0.10951877857E+02 -0.81725485647E+01 -0.16168451115E+02  0.21169624237E+02  0.51100000000E-03 0.  1.
        -11    1    3    3    0    0  0.53723357469E+01 -0.42764611230E+01 -0.39858652521E+01  0.79395990568E+01  0.51100000000E-03 0. -1.
         12    1    3    3    0    0  0.38280608742E+01 -0.87050183104E+01 -0.14131343957E+02  0.17033093549E+02  0.00000000000E+00 0. -1.
</event>
<event>
 7    1  0.2328810E-008  0.4614232E+02  0.7816164E-02  0.1320468E+00
        -11   -1    0    0    0    0  0.00000000000E+00  0.00000000000E+00  0.45593999997E+02  0.45594000000E+02  0.51100000000E-03 0.  1.
         11   -1    0    0    0    0 -0.00000000000E+00 -0.00000000000E+00 -0.45593999997E+02  0.45594000000E+02  0.51100000000E-03 0. -1.
    9900012    2    1    2    0    0  0.16068717984E+02  0.16769039717E+02  0.38596750284E+02  0.46142317374E+02  0.99999964730E+01 0.  0.
         12    1    1    2    0    0 -0.16068717984E+02 -0.16769039717E+02 -0.38596750284E+02  0.45045682626E+02  0.00000000000E+00 0. -1.
         11    1    3    3    0    0  0.68556864130E+01  0.11516246638E+02  0.17161379015E+02  0.21774694091E+02  0.51100000000E-03 0. -1.
        -11    1    3    3    0    0  0.64345419580E+01  0.37648661107E+01  0.98022718868E+01  0.12315115974E+02  0.51100000000E-03 0.  1.
        -12    1    3    3    0    0  0.27784896132E+01  0.14879269688E+01  0.11633099382E+02  0.12052507309E+02  0.00000000000E+00 0.  1.
</event>
<event>
 7    1  0.2328810E-008  0.4614232E+02  0.7816164E-02  0.1320468E+00
        -11   -1    0    0    0    0  0.00000000000E+00  0.00000000000E+00  0.45593999997E+02  0.45594000000E+02  0.51100000000E-03 0.  1.
         11   -1    0    0    0    0 -0.00000000000E+00 -0.00000000000E+00 -0.45593999997E+02  0.45594000000E+02  0.51100000000E-03 0. -1.
    9900012    2    1    2    0    0 -0.39805830816E+02 -0.12899126618E+02 -0.16679987855E+02  0.46142316197E+02  0.99999857360E+01 0.  0.
         12    1    1    2    0    0  0.39805830816E+02  0.12899126618E+02  0.16679987855E+02  0.45045683803E+02  0.00000000000E+00 0. -1.
         11    1    3    3    0    0 -0.50591010990E+01 -0.18905446015E+01 -0.58969468141E+01  0.79964144971E+01  0.51100000000E-03 0. -1.
        -11    1    3    3    0    0 -0.18416732902E+01 -0.74309222005E+00  0.13068425931E+00  0.19902324468E+01  0.51100000000E-03 0.  1.
        -12    1    3    3    0    0 -0.32905056427E+02 -0.10265489796E+02 -0.10913725300E+02  0.36155669253E+02  0.00000000000E+00 0.  1.
</event>
<event>
 7    1  0.2328810E-008  0.4614232E+02  0.7816164E-02  0.1320468E+00
        -11   -1    0    0    0    0  0.00000000000E+00  0.00000000000E+00  0.45593999997E+02  0.45594000000E+02  0.51100000000E-03 0. -1.
         11   -1    0    0    0    0 -0.00000000000E+00 -0.00000000000E+00 -0.45593999997E+02  0.45594000000E+02  0.51100000000E-03 0.  1.
    9900012    2    1    2    0    0  0.28625919671E+02  0.30587204425E+02 -0.16555753327E+02  0.46142319633E+02  0.10000017069E+02 0.  0.
         12    1    1    2    0    0 -0.28625919671E+02 -0.30587204425E+02  0.16555753327E+02  0.45045680367E+02  0.00000000000E+00 0. -1.
         11    1    3    3    0    0  0.81912475785E+01  0.51337478749E+01 -0.68670400315E+00  0.96914120119E+01  0.51100000000E-03 0. -1.
        -11    1    3    3    0    0  0.83958421481E+01  0.12862981979E+02 -0.82746439997E+01  0.17447527170E+02  0.51100000000E-03 0.  1.
        -12    1    3    3    0    0  0.12038829944E+02  0.12590474571E+02 -0.75944053239E+01  0.19003380451E+02  0.00000000000E+00 0.  1.
</event>
<event>
 7    1  0.2328810E-008  0.4614232E+02  0.7816164E-02  0.1320468E+00
        -11   -1    0    0    0    0  0.00000000000E+00  0.00000000000E+00  0.45593999997E+02  0.45594000000E+02  0.51100000000E-03 0.  1.
         11   -1    0    0    0    0 -0.00000000000E+00 -0.00000000000E+00 -0.45593999997E+02  0.45594000000E+02  0.51100000000E-03 0. -1.
    9900012    2    1    2    0    0 -0.37516338924E+02 -0.16244471315E+00  0.24932134552E+02  0.46142318655E+02  0.10000008149E+02 0.  0.
         12    1    1    2    0    0  0.37516338924E+02  0.16244471315E+00 -0.24932134552E+02  0.45045681345E+02  0.00000000000E+00 0. -1.
         11    1    3    3    0    0 -0.56395909309E+00 -0.13181305412E+01  0.41200965589E+00  0.14917339575E+01  0.51100000000E-03 0. -1.
        -11    1    3    3    0    0 -0.11501260524E+02  0.16032860827E+01  0.10127874365E+02  0.15408548255E+02  0.51100000000E-03 0.  1.
         12    1    3    3    0    0 -0.25451119307E+02 -0.44760025470E+00  0.14392250531E+02  0.29242036443E+02  0.00000000000E+00 0. -1.
</event>
<event>
 7    1  0.2328810E-008  0.4614232E+02  0.7816164E-02  0.1320468E+00
        -11   -1    0    0    0    0  0.00000000000E+00  0.00000000000E+00  0.45593999997E+02  0.45594000000E+02  0.51100000000E-03 0. -1.
         11   -1    0    0    0    0 -0.00000000000E+00 -0.00000000000E+00 -0.45593999997E+02  0.45594000000E+02  0.51100000000E-03 0.  1.
    9900012    2    1    2    0    0  0.35573749763E+02 -0.78363297624E+01 -0.26499316857E+02  0.46142317297E+02  0.99999957639E+01 0.  0.
         12    1    1    2    0    0 -0.35573749763E+02  0.78363297624E+01  0.26499316857E+02  0.45045682703E+02  0.00000000000E+00 0. -1.
         11    1    3    3    0    0  0.93128665385E+01 -0.42063177540E+01 -0.45130483608E+01  0.11170953316E+02  0.51100000000E-03 0. -1.
        -11    1    3    3    0    0  0.57728923683E+01 -0.25241806712E+01 -0.28519960829E+01  0.69160433974E+01  0.51100000000E-03 0.  1.
         12    1    3    3    0    0  0.20487990856E+02 -0.11058313373E+01 -0.19134272413E+02  0.28055320584E+02  0.00000000000E+00 0. -1.
</event>
<event>
 7    1  0.2328810E-008  0.4614232E+02  0.7816164E-02  0.1320468E+00
        -11   -1    0    0    0    0  0.00000000000E+00  0.00000000000E+00  0.45593999997E+02  0.45594000000E+02  0.51100000000E-03 0.  1.
         11   -1    0    0    0    0 -0.00000000000E+00 -0.00000000000E+00 -0.45593999997E+02  0.45594000000E+02  0.51100000000E-03 0. -1.
    9900012    2    1    2    0    0  0.35717418767E+02  0.22005829754E+02  0.16404970079E+02  0.46142316635E+02  0.99999897267E+01 0.  0.
         12    1    1    2    0    0 -0.35717418767E+02 -0.22005829754E+02 -0.16404970079E+02  0.45045683365E+02  0.00000000000E+00 0. -1.
         11    1    3    3    0    0  0.59039341811E+01  0.49774263954E+01  0.19002790900E+01  0.79525010668E+01  0.51100000000E-03 0.  1.
        -11    1    3    3    0    0  0.15401278921E+02  0.41973188280E+01  0.53835647575E+01  0.16846354131E+02  0.51100000000E-03 0. -1.
         12    1    3    3    0    0  0.14412205665E+02  0.12831084531E+02  0.91211262314E+01  0.21343461437E+02  0.00000000000E+00 0. -1.
</event>
<event>
 7    1  0.2328810E-008  0.4614232E+02  0.7816164E-02  0.1320468E+00
        -11   -1    0    0    0    0  0.00000000000E+00  0.00000000000E+00  0.45593999997E+02  0.45594000000E+02  0.51100000000E-03 0. -1.
         11   -1    0    0    0    0 -0.00000000000E+00 -0.00000000000E+00 -0.45593999997E+02  0.45594000000E+02  0.51100000000E-03 0.  1.
    9900012    2    1    2    0    0 -0.27497538797E+02 -0.31611654324E+02 -0.16543945521E+02  0.46142318049E+02  0.10000002627E+02 0.  0.
         12    1    1    2    0    0  0.27497538797E+02  0.31611654324E+02  0.16543945521E+02  0.45045681951E+02  0.00000000000E+00 0. -1.
         11    1    3    3    0    0 -0.20888208127E+01 -0.45911766262E+01 -0.91755871069E+00  0.51267913405E+01  0.51100000000E-03 0. -1.
        -11    1    3    3    0    0 -0.16105671904E+02 -0.19156208960E+02 -0.66848157796E+01  0.25904435363E+02  0.51100000000E-03 0.  1.
        -12    1    3    3    0    0 -0.93030460806E+01 -0.78642687373E+01 -0.89415710312E+01  0.15111091346E+02  0.00000000000E+00 0.  1.
</event>
<event>
 7    1  0.2328810E-008  0.4614232E+02  0.7816164E-02  0.1320468E+00
        -11   -1    0    0    0    0  0.00000000000E+00  0.00000000000E+00  0.45593999997E+02  0.45594000000E+02  0.51100000000E-03 0.  1.
         11   -1    0    0    0    0 -0.00000000000E+00 -0.00000000000E+00 -0.45593999997E+02  0.45594000000E+02  0.51100000000E-03 0. -1.
    9900012    2    1    2    0    0 -0.24284731766E+01  0.51289251259E+01  0.44686802087E+02  0.46142316126E+02  0.99999850864E+01 0.  0.
         12    1    1    2    0    0  0.24284731766E+01 -0.51289251259E+01 -0.44686802087E+02  0.45045683874E+02  0.00000000000E+00 0. -1.
         11    1    3    3    0    0 -0.48566770727E+01  0.20818510294E+01  0.37323075483E+02  0.37695269990E+02  0.51100000000E-03 0. -1.
        -11    1    3    3    0    0  0.89307518324E+00  0.19283921890E+01  0.48599603528E+01  0.53042902079E+01  0.51100000000E-03 0.  1.
         12    1    3    3    0    0  0.15351287129E+01  0.11186819075E+01  0.25037662518E+01  0.31427559274E+01  0.00000000000E+00 0. -1.
</event>
<event>
 7    1  0.2328810E-008  0.4614232E+02  0.7816164E-02  0.1320468E+00
        -11   -1    0    0    0    0  0.00000000000E+00  0.00000000000E+00  0.45593999997E+02  0.45594000000E+02  0.51100000000E-03 0. -1.
         11   -1    0    0    0    0 -0.00000000000E+00 -0.00000000000E+00 -0.45593999997E+02  0.45594000000E+02  0.51100000000E-03 0.  1.
    9900012    2    1    2    0    0 -0.23429511075E+02  0.24572282413E+01 -0.38394446870E+02  0.46142317517E+02  0.99999977772E+01 0.  0.
         12    1    1    2    0    0  0.23429511075E+02 -0.24572282413E+01  0.38394446870E+02  0.45045682483E+02  0.00000000000E+00 0. -1.
         11    1    3    3    0    0  0.72426370256E-02  0.16061469594E+00 -0.12511370927E+01  0.12614253138E+01  0.51100000000E-03 0. -1.
        -11    1    3    3    0    0 -0.18892961646E+01  0.30507042778E+01 -0.44204618925E+01  0.56935683181E+01  0.51100000000E-03 0.  1.
        -12    1    3    3    0    0 -0.21547457548E+02 -0.75409073240E+00 -0.32722847885E+02  0.39187323885E+02  0.00000000000E+00 0.  1.
</event>
<event>
 7    1  0.2328810E-008  0.4614232E+02  0.7816164E-02  0.1320468E+00
        -11   -1    0    0    0    0  0.00000000000E+00  0.00000000000E+00  0.45593999997E+02  0.45594000000E+02  0.51100000000E-03 0.  1.
         11   -1    0    0    0    0 -0.00000000000E+00 -0.00000000000E+00 -0.45593999997E+02  0.45594000000E+02  0.51100000000E-03 0. -1.
    9900012    2    1    2    0    0 -0.13085984503E+02 -0.16569994010E+02  0.39790775805E+02  0.46142317288E+02  0.99999956829E+01 0.  0.
         12    1    1    2    0    0  0.13085984503E+02  0.16569994010E+02 -0.39790775805E+02  0.45045682712E+02  0.00000000000E+00 0. -1.
         11    1    3    3    0    0 -0.34480326200E+01 -0.87756923829E+01  0.13478824082E+02  0.16449328395E+02  0.51100000000E-03 0. -1.
        -11    1    3    3    0    0 -0.92275212886E-01 -0.28810852551E+01  0.74731272278E+01  0.80097938667E+01  0.51100000000E-03 0.  1.
        -12    1    3    3    0    0 -0.95456766696E+01 -0.49132163720E+01  0.18838824494E+02  0.21683195026E+02  0.00000000000E+00 0.  1.
</event>
<event>
 7    1  0.2328810E-008  0.4614232E+02  0.7816164E-02  0.1320468E+00
        -11   -1    0    0    0    0  0.00000000000E+00  0.00000000000E+00  0.45593999997E+02  0.45594000000E+02  0.51100000000E-03 0.  1.
         11   -1    0    0    0    0 -0.00000000000E+00 -0.00000000000E+00 -0.45593999997E+02  0.45594000000E+02  0.51100000000E-03 0. -1.
    9900012    2    1    2    0    0  0.29241818721E+01  0.23070346833E+02  0.38578776215E+02  0.46142315225E+02  0.99999768723E+01 0.  0.
         12    1    1    2    0    0 -0.29241818721E+01 -0.23070346833E+02 -0.38578776215E+02  0.45045684775E+02  0.00000000000E+00 0. -1.
         11    1    3    3    0    0  0.40162810018E+01  0.71292733779E+01  0.14211667728E+02  0.16399041187E+02  0.51100000000E-03 0. -1.
        -11    1    3    3    0    0 -0.48286097511E+00  0.40875572810E+01  0.11612588000E+02  0.12320449650E+02  0.51100000000E-03 0.  1.
        -12    1    3    3    0    0 -0.60923815456E+00  0.11853516174E+02  0.12754520488E+02  0.17422824389E+02  0.00000000000E+00 0.  1.
</event>
<event>
 7    1  0.2328810E-008  0.4614232E+02  0.7816164E-02  0.1320468E+00
        -11   -1    0    0    0    0  0.00000000000E+00  0.00000000000E+00  0.45593999997E+02  0.45594000000E+02  0.51100000000E-03 0.  1.
         11   -1    0    0    0    0 -0.00000000000E+00 -0.00000000000E+00 -0.45593999997E+02  0.45594000000E+02  0.51100000000E-03 0. -1.
    9900012    2    1    2    0    0  0.43463810700E+02 -0.68205456425E+01  0.96690650306E+01  0.46142317610E+02  0.99999986224E+01 0.  0.
         12    1    1    2    0    0 -0.43463810700E+02  0.68205456425E+01 -0.96690650306E+01  0.45045682390E+02  0.00000000000E+00 0. -1.
         11    1    3    3    0    0  0.91315397784E+01  0.16186428055E+01  0.19794026373E+01  0.94827769307E+01  0.51100000000E-03 0. -1.
        -11    1    3    3    0    0  0.27196567899E+02 -0.65069587568E+01  0.84877830129E+01  0.29223899098E+02  0.51100000000E-03 0.  1.
        -12    1    3    3    0    0  0.71357030222E+01 -0.19322296912E+01 -0.79812061966E+00  0.74356415812E+01  0.00000000000E+00 0.  1.
</event>
<event>
 7    1  0.2328810E-008  0.4614232E+02  0.7816164E-02  0.1320468E+00
        -11   -1    0    0    0    0  0.00000000000E+00  0.00000000000E+00  0.45593999997E+02  0.45594000000E+02  0.51100000000E-03 0.  1.
         11   -1    0    0    0    0 -0.00000000000E+00 -0.00000000000E+00 -0.45593999997E+02  0.45594000000E+02  0.51100000000E-03 0. -1.
    9900012    2    1    2    0    0 -0.13239234988E+02  0.52101817825E+01  0.42739796515E+02  0.46142317150E+02  0.99999944286E+01 0.  0.
         12    1    1    2    0    0  0.13239234988E+02 -0.52101817825E+01 -0.42739796515E+02  0.45045682850E+02  0.00000000000E+00 0. -1.
         11    1    3    3    0    0 -0.55315597926E+01  0.44228049300E+01  0.98184256121E+01  0.12106231410E+02  0.51100000000E-03 0. -1.
        -11    1    3    3    0    0 -0.88534716765E+00  0.15363994673E+01  0.71155630308E+01  0.73331848768E+01  0.51100000000E-03 0.  1.
         12    1    3    3    0    0 -0.68223280275E+01 -0.74902261488E+00  0.25805807872E+02  0.26702900863E+02  0.00000000000E+00 0. -1.
</event>
<event>
 7    1  0.2328810E-008  0.4614232E+02  0.7816164E-02  0.1320468E+00
        -11   -1    0    0    0    0  0.00000000000E+00  0.00000000000E+00  0.45593999997E+02  0.45594000000E+02  0.51100000000E-03 0.  1.
         11   -1    0    0    0    0 -0.00000000000E+00 -0.00000000000E+00 -0.45593999997E+02  0.45594000000E+02  0.51100000000E-03 0. -1.
    9900012    2    1    2    0    0  0.22931553587E+02 -0.36680377718E+02  0.12562132214E+02  0.46142318462E+02  0.10000006391E+02 0.  0.
         12    1    1    2    0    0 -0.22931553587E+02  0.36680377718E+02 -0.12562132214E+02  0.45045681538E+02  0.00000000000E+00 0. -1.
         11    1    3    3    0    0  0.32785959992E+01 -0.48019021127E+01 -0.79722865412E+00  0.58688184001E+01  0.51100000000E-03 0. -1.
        -11    1    3    3    0    0  0.59728786152E+01 -0.14178836458E+02  0.76693060353E+01  0.17191071450E+02  0.51100000000E-03 0.  1.
         12    1    3    3    0    0  0.13680078972E+02 -0.17699639147E+02  0.56900548333E+01  0.23082428612E+02  0.00000000000E+00 0. -1.
</event>
<event>
 7    1  0.2328810E-008  0.4614232E+02  0.7816164E-02  0.1320468E+00
        -11   -1    0    0    0    0  0.00000000000E+00  0.00000000000E+00  0.45593999997E+02  0.45594000000E+02  0.51100000000E-03 0.  1.
         11   -1    0    0    0    0 -0.00000000000E+00 -0.00000000000E+00 -0.45593999997E+02  0.45594000000E+02  0.51100000000E-03 0. -1.
    9900012    2    1    2    0    0 -0.25618547269E+02  0.25694042899E+02  0.26694937476E+02  0.46142317726E+02  0.99999996807E+01 0.  0.
         12    1    1    2    0    0  0.25618547269E+02 -0.25694042899E+02 -0.26694937476E+02  0.45045682274E+02  0.00000000000E+00 0. -1.
         11    1    3    3    0    0 -0.10112839097E+02  0.88665993163E+01  0.72740973864E+01  0.15290473867E+02  0.51100000000E-03 0. -1.
        -11    1    3    3    0    0 -0.11524927869E+02  0.87539571568E+01  0.14926190866E+02  0.20790548389E+02  0.51100000000E-03 0.  1.
         12    1    3    3    0    0 -0.39807803032E+01  0.80734864255E+01  0.44946492240E+01  0.10061295470E+02  0.00000000000E+00 0. -1.
</event>
<event>
 7    1  0.2328810E-008  0.4614232E+02  0.7816164E-02  0.1320468E+00
        -11   -1    0    0    0    0  0.00000000000E+00  0.00000000000E+00  0.45593999997E+02  0.45594000000E+02  0.51100000000E-03 0.  1.
         11   -1    0    0    0    0 -0.00000000000E+00 -0.00000000000E+00 -0.45593999997E+02  0.45594000000E+02  0.51100000000E-03 0. -1.
    9900012    2    1    2    0    0 -0.21334884940E+02 -0.39260708920E+02  0.57037625191E+01  0.46142317775E+02  0.10000000124E+02 0.  0.
         12    1    1    2    0    0  0.21334884940E+02  0.39260708920E+02 -0.57037625191E+01  0.45045682225E+02  0.00000000000E+00 0. -1.
         11    1    3    3    0    0 -0.11472034444E+02 -0.13001785679E+02 -0.67612555472E+00  0.17352554600E+02  0.51100000000E-03 0. -1.
        -11    1    3    3    0    0 -0.53976655731E+01 -0.14536804030E+02  0.29389844778E+01  0.15782620032E+02  0.51100000000E-03 0.  1.
         12    1    3    3    0    0 -0.44651849231E+01 -0.11722119211E+02  0.34409035960E+01  0.13007143143E+02  0.00000000000E+00 0. -1.
</event>
<event>
 7    1  0.2328810E-008  0.4614232E+02  0.7816164E-02  0.1320468E+00
        -11   -1    0    0    0    0  0.00000000000E+00  0.00000000000E+00  0.45593999997E+02  0.45594000000E+02  0.51100000000E-03 0.  1.
         11   -1    0    0    0    0 -0.00000000000E+00 -0.00000000000E+00 -0.45593999997E+02  0.45594000000E+02  0.51100000000E-03 0. -1.
    9900012    2    1    2    0    0  0.38364283255E+02  0.19801529088E+02  0.12852809066E+02  0.46142317801E+02  0.10000000363E+02 0.  0.
         12    1    1    2    0    0 -0.38364283255E+02 -0.19801529088E+02 -0.12852809066E+02  0.45045682199E+02  0.00000000000E+00 0. -1.
         11    1    3    3    0    0  0.10729196523E+02  0.13077032237E+01  0.46644251232E+01  0.11772111439E+02  0.51100000000E-03 0. -1.
        -11    1    3    3    0    0  0.76217962998E+01  0.42754070813E+01  0.32811313239E+01  0.93347044716E+01  0.51100000000E-03 0.  1.
         12    1    3    3    0    0  0.20013290433E+02  0.14218418783E+02  0.49072526188E+01  0.25035501890E+02  0.00000000000E+00 0. -1.
</event>
<event>
 7    1  0.2328810E-008  0.4614232E+02  0.7816164E-02  0.1320468E+00
        -11   -1    0    0    0    0  0.00000000000E+00  0.00000000000E+00  0.45593999997E+02  0.45594000000E+02  0.51100000000E-03 0.  1.
         11   -1    0    0    0    0 -0.00000000000E+00 -0.00000000000E+00 -0.45593999997E+02  0.45594000000E+02  0.51100000000E-03 0. -1.
    9900012    2    1    2    0    0 -0.26074035130E+02 -0.28023282011E+02  0.23747713083E+02  0.46142317418E+02  0.99999968686E+01 0.  0.
         12    1    1    2    0    0  0.26074035130E+02  0.28023282011E+02 -0.23747713083E+02  0.45045682582E+02  0.00000000000E+00 0. -1.
         11    1    3    3    0    0 -0.18224769399E+01 -0.88797984388E+00  0.43584307053E+01  0.48068543637E+01  0.51100000000E-03 0. -1.
        -11    1    3    3    0    0 -0.14966051104E+02 -0.14704129568E+02  0.11593196740E+02  0.23970738890E+02  0.51100000000E-03 0.  1.
        -12    1    3    3    0    0 -0.92855070856E+01 -0.12431172599E+02  0.77960856380E+01  0.17364724164E+02  0.00000000000E+00 0.  1.
</event>
<event>
 7    1  0.2328810E-008  0.4614232E+02  0.7816164E-02  0.1320468E+00
        -11   -1    0    0    0    0  0.00000000000E+00  0.00000000000E+00  0.45593999997E+02  0.45594000000E+02  0.51100000000E-03 0.  1.
         11   -1    0    0    0    0 -0.00000000000E+00 -0.00000000000E+00 -0.45593999997E+02  0.45594000000E+02  0.51100000000E-03 0. -1.
    9900012    2    1    2    0    0  0.19937422617E+02  0.37176774918E+02  0.15795572033E+02  0.46142317524E+02  0.99999978377E+01 0.  0.
         12    1    1    2    0    0 -0.19937422617E+02 -0.37176774918E+02 -0.15795572033E+02  0.45045682476E+02  0.00000000000E+00 0. -1.
         11    1    3    3    0    0  0.19417345555E+01  0.12956510009E+01 -0.19500522153E+00  0.23424499776E+01  0.51100000000E-03 0. -1.
        -11    1    3    3    0    0  0.12505425553E+02  0.27833422464E+02  0.90137124790E+01  0.31817166550E+02  0.51100000000E-03 0.  1.
        -12    1    3    3    0    0  0.54902625088E+01  0.80477014525E+01  0.69768647754E+01  0.11982700997E+02  0.00000000000E+00 0.  1.
</event>
<event>
 7    1  0.2328810E-008  0.4614232E+02  0.7816164E-02  0.1320468E+00
        -11   -1    0    0    0    0  0.00000000000E+00  0.00000000000E+00  0.45593999997E+02  0.45594000000E+02  0.51100000000E-03 0.  1.
         11   -1    0    0    0    0 -0.00000000000E+00 -0.00000000000E+00 -0.45593999997E+02  0.45594000000E+02  0.51100000000E-03 0. -1.
    9900012    2    1    2    0    0 -0.44466409768E+02  0.26184314955E+01  0.67078462573E+01  0.46142323375E+02  0.10000051194E+02 0.  0.
         12    1    1    2    0    0  0.44466409768E+02 -0.26184314955E+01 -0.67078462573E+01  0.45045676625E+02  0.00000000000E+00 0. -1.
         11    1    3    3    0    0 -0.15037579287E+01 -0.12265868008E+01  0.47595704578E+00  0.19980836966E+01  0.51100000000E-03 0. -1.
        -11    1    3    3    0    0 -0.57047062105E+01  0.28572879460E+01  0.16308846005E+00  0.63823479584E+01  0.51100000000E-03 0.  1.
        -12    1    3    3    0    0 -0.37257945629E+02  0.98773035027E+00  0.60688007514E+01  0.37761891720E+02  0.00000000000E+00 0.  1.
</event>
<event>
 7    1  0.2329856E-008  0.4614232E+02  0.7816164E-02  0.1320468E+00
        -11   -1    0    0    0    0  0.00000000000E+00  0.00000000000E+00  0.45593999997E+02  0.45594000000E+02  0.51100000000E-03 0.  1.
         11   -1    0    0    0    0 -0.00000000000E+00 -0.00000000000E+00 -0.45593999997E+02  0.45594000000E+02  0.51100000000E-03 0. -1.
    9900012    2    1    2    0    0 -0.35436141221E+02 -0.17961036198E+02  0.21231921457E+02  0.46142318579E+02  0.10000007456E+02 0.  0.
         12    1    1    2    0    0  0.35436141221E+02  0.17961036198E+02 -0.21231921457E+02  0.45045681421E+02  0.00000000000E+00 0. -1.
         11    1    3    3    0    0 -0.11802029605E+00  0.19542930127E-01  0.15060503833E+01  0.15107940742E+01  0.51100000000E-03 0. -1.
        -11    1    3    3    0    0 -0.91416113057E+01 -0.72277156266E+01  0.70774592915E+01  0.13634491583E+02  0.51100000000E-03 0.  1.
        -12    1    3    3    0    0 -0.26176509619E+02 -0.10752863501E+02  0.12648411782E+02  0.30997032922E+02  0.00000000000E+00 0.  1.
</event>
<event>
 7    1  0.2328810E-008  0.4614232E+02  0.7816164E-02  0.1320468E+00
        -11   -1    0    0    0    0  0.00000000000E+00  0.00000000000E+00  0.45593999997E+02  0.45594000000E+02  0.51100000000E-03 0. -1.
         11   -1    0    0    0    0 -0.00000000000E+00 -0.00000000000E+00 -0.45593999997E+02  0.45594000000E+02  0.51100000000E-03 0.  1.
    9900012    2    1    2    0    0 -0.31273125860E+02  0.18561582052E+02 -0.26581432253E+02  0.46142320186E+02  0.10000022110E+02 0.  0.
         12    1    1    2    0    0  0.31273125860E+02 -0.18561582052E+02  0.26581432253E+02  0.45045679814E+02  0.00000000000E+00 0. -1.
         11    1    3    3    0    0 -0.79567880292E+00  0.19528489755E+01 -0.19605162356E+01  0.28792964505E+01  0.51100000000E-03 0. -1.
        -11    1    3    3    0    0 -0.26792841304E+02  0.16555089340E+02 -0.19825539273E+02  0.37215310504E+02  0.51100000000E-03 0.  1.
        -12    1    3    3    0    0 -0.36846057528E+01  0.53643736503E-01 -0.47953767445E+01  0.60477132311E+01  0.00000000000E+00 0.  1.
</event>
<event>
 7    1  0.2328810E-008  0.4614232E+02  0.7816164E-02  0.1320468E+00
        -11   -1    0    0    0    0  0.00000000000E+00  0.00000000000E+00  0.45593999997E+02  0.45594000000E+02  0.51100000000E-03 0. -1.
         11   -1    0    0    0    0 -0.00000000000E+00 -0.00000000000E+00 -0.45593999997E+02  0.45594000000E+02  0.51100000000E-03 0.  1.
    9900012    2    1    2    0    0 -0.21704576320E+02  0.58090612249E+01 -0.39042024947E+02  0.46142317215E+02  0.99999950222E+01 0.  0.
         12    1    1    2    0    0  0.21704576320E+02 -0.58090612249E+01  0.39042024947E+02  0.45045682785E+02  0.00000000000E+00 0. -1.
         11    1    3    3    0    0 -0.39429541941E+01 -0.46598829071E+00 -0.77726974147E+01  0.87280500815E+01  0.51100000000E-03 0. -1.
        -11    1    3    3    0    0 -0.51431785879E+01 -0.52230230469E+00 -0.14278365328E+02  0.15185414133E+02  0.51100000000E-03 0.  1.
         12    1    3    3    0    0 -0.12618443538E+02  0.67973518203E+01 -0.16990962205E+02  0.22228853001E+02  0.00000000000E+00 0. -1.
</event>
<event>
 7    1  0.2328810E-008  0.4614232E+02  0.7816164E-02  0.1320468E+00
        -11   -1    0    0    0    0  0.00000000000E+00  0.00000000000E+00  0.45593999997E+02  0.45594000000E+02  0.51100000000E-03 0. -1.
         11   -1    0    0    0    0 -0.00000000000E+00 -0.00000000000E+00 -0.45593999997E+02  0.45594000000E+02  0.51100000000E-03 0.  1.
    9900012    2    1    2    0    0  0.11389729107E+02  0.43576625277E+02  0.68216560175E+00  0.46142317081E+02  0.99999938008E+01 0.  0.
         12    1    1    2    0    0 -0.11389729107E+02 -0.43576625277E+02 -0.68216560175E+00  0.45045682919E+02  0.00000000000E+00 0. -1.
         11    1    3    3    0    0  0.29612535816E+01  0.16167302136E+02  0.47252009785E+01  0.17101994202E+02  0.51100000000E-03 0. -1.
        -11    1    3    3    0    0  0.15112970646E+01  0.81937858269E+01 -0.98550780263E+00  0.83900757377E+01  0.51100000000E-03 0.  1.
         12    1    3    3    0    0  0.69171784611E+01  0.19215537315E+02 -0.30575275741E+01  0.20650247142E+02  0.00000000000E+00 0. -1.
</event>
<event>
 7    1  0.2328810E-008  0.4614232E+02  0.7816164E-02  0.1320468E+00
        -11   -1    0    0    0    0  0.00000000000E+00  0.00000000000E+00  0.45593999997E+02  0.45594000000E+02  0.51100000000E-03 0.  1.
         11   -1    0    0    0    0 -0.00000000000E+00 -0.00000000000E+00 -0.45593999997E+02  0.45594000000E+02  0.51100000000E-03 0. -1.
    9900012    2    1    2    0    0 -0.18421571147E+02  0.33102460185E+01  0.40973179422E+02  0.46142318252E+02  0.10000004474E+02 0.  0.
         12    1    1    2    0    0  0.18421571147E+02 -0.33102460185E+01 -0.40973179422E+02  0.45045681748E+02  0.00000000000E+00 0. -1.
         11    1    3    3    0    0 -0.27355718083E+00 -0.11576064197E+01  0.12832103669E+01  0.17497186234E+01  0.51100000000E-03 0. -1.
        -11    1    3    3    0    0 -0.18603343653E+02  0.49112678401E+01  0.38635447486E+02  0.43161357134E+02  0.51100000000E-03 0.  1.
        -12    1    3    3    0    0  0.45532968694E+00 -0.44341540195E+00  0.10545215684E+01  0.12312424947E+01  0.00000000000E+00 0.  1.
</event>
<event>
 7    1  0.2328810E-008  0.4614232E+02  0.7816164E-02  0.1320468E+00
        -11   -1    0    0    0    0  0.00000000000E+00  0.00000000000E+00  0.45593999997E+02  0.45594000000E+02  0.51100000000E-03 0.  1.
         11   -1    0    0    0    0 -0.00000000000E+00 -0.00000000000E+00 -0.45593999997E+02  0.45594000000E+02  0.51100000000E-03 0. -1.
    9900012    2    1    2    0    0 -0.41194869019E+02 -0.12408277389E+02 -0.13346549393E+02  0.46142323604E+02  0.10000053277E+02 0.  0.
         12    1    1    2    0    0  0.41194869019E+02  0.12408277389E+02  0.13346549393E+02  0.45045676396E+02  0.00000000000E+00 0. -1.
         11    1    3    3    0    0 -0.20070346210E+02 -0.40932858955E+01 -0.68490620296E+01  0.21598227644E+02  0.51100000000E-03 0. -1.
        -11    1    3    3    0    0 -0.20574110484E+02 -0.84096652519E+01 -0.74483917734E+01  0.23441310376E+02  0.51100000000E-03 0.  1.
        -12    1    3    3    0    0 -0.55041232594E+00  0.94673758565E-01  0.95090440963E+00  0.11027855845E+01  0.00000000000E+00 0.  1.
</event>
<event>
 7    1  0.2328810E-008  0.4614232E+02  0.7816164E-02  0.1320468E+00
        -11   -1    0    0    0    0  0.00000000000E+00  0.00000000000E+00  0.45593999997E+02  0.45594000000E+02  0.51100000000E-03 0.  1.
         11   -1    0    0    0    0 -0.00000000000E+00 -0.00000000000E+00 -0.45593999997E+02  0.45594000000E+02  0.51100000000E-03 0. -1.
    9900012    2    1    2    0    0 -0.40541972182E+02 -0.40287384339E+01  0.19215391311E+02  0.46142317576E+02  0.99999983163E+01 0.  0.
         12    1    1    2    0    0  0.40541972182E+02  0.40287384339E+01 -0.19215391311E+02  0.45045682424E+02  0.00000000000E+00 0. -1.
         11    1    3    3    0    0 -0.27891100782E+01  0.14728494291E+01  0.34402636625E+00  0.31728181277E+01  0.51100000000E-03 0. -1.
        -11    1    3    3    0    0 -0.10777120087E+02 -0.36328624925E+01  0.36772354352E+01  0.11952659452E+02  0.51100000000E-03 0.  1.
        -12    1    3    3    0    0 -0.26975742016E+02 -0.18687253705E+01  0.15194129509E+02  0.31016839997E+02  0.00000000000E+00 0.  1.
</event>
<event>
 7    1  0.2328810E-008  0.4614232E+02  0.7816164E-02  0.1320468E+00
        -11   -1    0    0    0    0  0.00000000000E+00  0.00000000000E+00  0.45593999997E+02  0.45594000000E+02  0.51100000000E-03 0.  1.
         11   -1    0    0    0    0 -0.00000000000E+00 -0.00000000000E+00 -0.45593999997E+02  0.45594000000E+02  0.51100000000E-03 0. -1.
    9900012    2    1    2    0    0  0.67740175297E+01 -0.35617504323E+02  0.26732368915E+02  0.46142317903E+02  0.10000001297E+02 0.  0.
         12    1    1    2    0    0 -0.67740175297E+01  0.35617504323E+02 -0.26732368915E+02  0.45045682097E+02  0.00000000000E+00 0. -1.
         11    1    3    3    0    0 -0.15348569224E+01 -0.34719254185E+01  0.15352503705E+01  0.40947583379E+01  0.51100000000E-03 0. -1.
        -11    1    3    3    0    0  0.40059945909E+01 -0.20526569700E+02  0.18711554428E+02  0.28062614377E+02  0.51100000000E-03 0.  1.
         12    1    3    3    0    0  0.43028798613E+01 -0.11619009205E+02  0.64855641165E+01  0.13984945188E+02  0.00000000000E+00 0. -1.
</event>
<event>
 7    1  0.2328810E-008  0.4614232E+02  0.7816164E-02  0.1320468E+00
        -11   -1    0    0    0    0  0.00000000000E+00  0.00000000000E+00  0.45593999997E+02  0.45594000000E+02  0.51100000000E-03 0. -1.
         11   -1    0    0    0    0 -0.00000000000E+00 -0.00000000000E+00 -0.45593999997E+02  0.45594000000E+02  0.51100000000E-03 0.  1.
    9900012    2    1    2    0    0 -0.19384159619E+02  0.22015077452E+01 -0.40601981388E+02  0.46142321260E+02  0.10000031906E+02 0.  0.
         12    1    1    2    0    0  0.19384159619E+02 -0.22015077452E+01  0.40601981388E+02  0.45045678740E+02  0.00000000000E+00 0. -1.
         11    1    3    3    0    0 -0.47216627387E+01  0.21887173993E+01 -0.46221088149E+01  0.69604937347E+01  0.51100000000E-03 0. -1.
        -11    1    3    3    0    0 -0.11016295558E+02  0.15746361441E+01 -0.22061662198E+02  0.24709414927E+02  0.51100000000E-03 0.  1.
         12    1    3    3    0    0 -0.36462013224E+01 -0.15618457982E+01 -0.13918210375E+02  0.14472412599E+02  0.00000000000E+00 0. -1.
</event>
<event>
 7    1  0.2328810E-008  0.4614232E+02  0.7816164E-02  0.1320468E+00
        -11   -1    0    0    0    0  0.00000000000E+00  0.00000000000E+00  0.45593999997E+02  0.45594000000E+02  0.51100000000E-03 0.  1.
         11   -1    0    0    0    0 -0.00000000000E+00 -0.00000000000E+00 -0.45593999997E+02  0.45594000000E+02  0.51100000000E-03 0. -1.
    9900012    2    1    2    0    0  0.17681606447E+02 -0.35235895820E+02  0.21792335293E+02  0.46142318316E+02  0.10000005061E+02 0.  0.
         12    1    1    2    0    0 -0.17681606447E+02  0.35235895820E+02 -0.21792335293E+02  0.45045681684E+02  0.00000000000E+00 0. -1.
         11    1    3    3    0    0  0.12276432544E+01 -0.30816827818E+01 -0.15220957685E+00  0.33206994360E+01  0.51100000000E-03 0. -1.
        -11    1    3    3    0    0  0.45597474961E+01 -0.49028516946E+01  0.18914889631E+01  0.69575126824E+01  0.51100000000E-03 0.  1.
        -12    1    3    3    0    0  0.11894215697E+02 -0.27251361344E+02  0.20053055907E+02  0.35864106198E+02  0.00000000000E+00 0.  1.
</event>
<event>
 7    1  0.2328810E-008  0.4614232E+02  0.7816164E-02  0.1320468E+00
        -11   -1    0    0    0    0  0.00000000000E+00  0.00000000000E+00  0.45593999997E+02  0.45594000000E+02  0.51100000000E-03 0.  1.
         11   -1    0    0    0    0 -0.00000000000E+00 -0.00000000000E+00 -0.45593999997E+02  0.45594000000E+02  0.51100000000E-03 0. -1.
    9900012    2    1    2    0    0 -0.85935091590E+01  0.23511674196E+02  0.37449515148E+02  0.46142318653E+02  0.10000008133E+02 0.  0.
         12    1    1    2    0    0  0.85935091590E+01 -0.23511674196E+02 -0.37449515148E+02  0.45045681347E+02  0.00000000000E+00 0. -1.
         11    1    3    3    0    0  0.11784715620E+01  0.45507925432E+01  0.95505240793E+01  0.10644764837E+02  0.51100000000E-03 0. -1.
        -11    1    3    3    0    0 -0.16762491205E+01  0.86413876826E+01  0.10308276107E+02  0.13555218506E+02  0.51100000000E-03 0.  1.
         12    1    3    3    0    0 -0.80957316004E+01  0.10319493970E+02  0.17590714963E+02  0.21942335310E+02  0.00000000000E+00 0. -1.
</event>
<event>
 7    1  0.2328810E-008  0.4614232E+02  0.7816164E-02  0.1320468E+00
        -11   -1    0    0    0    0  0.00000000000E+00  0.00000000000E+00  0.45593999997E+02  0.45594000000E+02  0.51100000000E-03 0.  1.
         11   -1    0    0    0    0 -0.00000000000E+00 -0.00000000000E+00 -0.45593999997E+02  0.45594000000E+02  0.51100000000E-03 0. -1.
    9900012    2    1    2    0    0  0.68245715350E+01  0.35176661813E+02  0.27297268427E+02  0.46142321223E+02  0.10000031567E+02 0.  0.
         12    1    1    2    0    0 -0.68245715350E+01 -0.35176661813E+02 -0.27297268427E+02  0.45045678777E+02  0.00000000000E+00 0. -1.
         11    1    3    3    0    0 -0.20974696171E+01  0.34301661077E+01  0.34582267509E+01  0.53032773681E+01  0.51100000000E-03 0. -1.
        -11    1    3    3    0    0  0.29028199164E+01  0.12816059968E+02  0.11439213478E+02  0.17422208867E+02  0.51100000000E-03 0.  1.
         12    1    3    3    0    0  0.60192212357E+01  0.18930435737E+02  0.12399828198E+02  0.23416834988E+02  0.00000000000E+00 0. -1.
</event>
<event>
 7    1  0.2328810E-008  0.4614232E+02  0.7816164E-02  0.1320468E+00
        -11   -1    0    0    0    0  0.00000000000E+00  0.00000000000E+00  0.45593999997E+02  0.45594000000E+02  0.51100000000E-03 0.  1.
         11   -1    0    0    0    0 -0.00000000000E+00 -0.00000000000E+00 -0.45593999997E+02  0.45594000000E+02  0.51100000000E-03 0. -1.
    9900012    2    1    2    0    0 -0.67489096314E+01  0.44465183483E+02  0.25324025778E+01  0.46142318895E+02  0.10000010342E+02 0.  0.
         12    1    1    2    0    0  0.67489096314E+01 -0.44465183483E+02 -0.25324025778E+01  0.45045681105E+02  0.00000000000E+00 0. -1.
         11    1    3    3    0    0 -0.32044178178E+01  0.21057393549E+02  0.18670030248E+01  0.21381483045E+02  0.51100000000E-03 0. -1.
        -11    1    3    3    0    0 -0.43131436104E+01  0.19548628336E+02  0.29123496325E+01  0.20229529363E+02  0.51100000000E-03 0.  1.
         12    1    3    3    0    0  0.76865179670E+00  0.38591615978E+01 -0.22469500794E+01  0.45313064873E+01  0.00000000000E+00 0. -1.
</event>
<event>
 7    1  0.2328810E-008  0.4614232E+02  0.7816164E-02  0.1320468E+00
        -11   -1    0    0    0    0  0.00000000000E+00  0.00000000000E+00  0.45593999997E+02  0.45594000000E+02  0.51100000000E-03 0. -1.
         11   -1    0    0    0    0 -0.00000000000E+00 -0.00000000000E+00 -0.45593999997E+02  0.45594000000E+02  0.51100000000E-03 0.  1.
    9900012    2    1    2    0    0  0.40171154538E+02 -0.83162279902E+01  0.18607316018E+02  0.46142317473E+02  0.99999973703E+01 0.  0.
         12    1    1    2    0    0 -0.40171154538E+02  0.83162279902E+01 -0.18607316018E+02  0.45045682527E+02  0.00000000000E+00 0. -1.
         11    1    3    3    0    0  0.12216740125E+02 -0.49371296914E+01  0.66942535267E+01  0.14779614995E+02  0.51100000000E-03 0. -1.
        -11    1    3    3    0    0  0.21160009475E+02 -0.51243073792E+01  0.72829169079E+01  0.22957469504E+02  0.51100000000E-03 0.  1.
         12    1    3    3    0    0  0.67944049391E+01  0.17452090803E+01  0.46301455838E+01  0.84052329735E+01  0.00000000000E+00 0. -1.
</event>
<event>
 7    1  0.2328810E-008  0.4614232E+02  0.7816164E-02  0.1320468E+00
        -11   -1    0    0    0    0  0.00000000000E+00  0.00000000000E+00  0.45593999997E+02  0.45594000000E+02  0.51100000000E-03 0. -1.
         11   -1    0    0    0    0 -0.00000000000E+00 -0.00000000000E+00 -0.45593999997E+02  0.45594000000E+02  0.51100000000E-03 0.  1.
    9900012    2    1    2    0    0  0.37119260275E+02  0.21572939882E+02  0.13633860711E+02  0.46142319003E+02  0.10000011328E+02 0.  0.
         12    1    1    2    0    0 -0.37119260275E+02 -0.21572939882E+02 -0.13633860711E+02  0.45045680997E+02  0.00000000000E+00 0. -1.
         11    1    3    3    0    0  0.13585625635E+01  0.10595921846E+01 -0.12543747037E+01  0.21311696307E+01  0.51100000000E-03 0. -1.
        -11    1    3    3    0    0  0.21764162080E+02  0.14683661113E+02  0.94764821619E+01  0.27912226159E+02  0.51100000000E-03 0.  1.
        -12    1    3    3    0    0  0.13996535632E+02  0.58296865850E+01  0.54117532527E+01  0.16098923214E+02  0.00000000000E+00 0.  1.
</event>
<event>
 7    1  0.2328810E-008  0.4614232E+02  0.7816164E-02  0.1320468E+00
        -11   -1    0    0    0    0  0.00000000000E+00  0.00000000000E+00  0.45593999997E+02  0.45594000000E+02  0.51100000000E-03 0.  1.
         11   -1    0    0    0    0 -0.00000000000E+00 -0.00000000000E+00 -0.45593999997E+02  0.45594000000E+02  0.51100000000E-03 0. -1.
    9900012    2    1    2    0    0 -0.27205359094E+02 -0.27194001768E+02  0.23440736311E+02  0.46142318582E+02  0.10000007486E+02 0.  0.
         12    1    1    2    0    0  0.27205359094E+02  0.27194001768E+02 -0.23440736311E+02  0.45045681418E+02  0.00000000000E+00 0. -1.
         11    1    3    3    0    0 -0.61516493684E+01 -0.25634740966E+01  0.22442037006E+01  0.70321148958E+01  0.51100000000E-03 0. -1.
        -11    1    3    3    0    0 -0.11483816774E+02 -0.13145528476E+02  0.14657621886E+02  0.22793175431E+02  0.51100000000E-03 0.  1.
        -12    1    3    3    0    0 -0.95698929518E+01 -0.11484999195E+02  0.65389107248E+01  0.16317028255E+02  0.00000000000E+00 0.  1.
</event>
<event>
 7    1  0.2328810E-008  0.4614232E+02  0.7816164E-02  0.1320468E+00
        -11   -1    0    0    0    0  0.00000000000E+00  0.00000000000E+00  0.45593999997E+02  0.45594000000E+02  0.51100000000E-03 0.  1.
         11   -1    0    0    0    0 -0.00000000000E+00 -0.00000000000E+00 -0.45593999997E+02  0.45594000000E+02  0.51100000000E-03 0. -1.
    9900012    2    1    2    0    0  0.34724740505E+02 -0.18543072828E+02  0.21896588061E+02  0.46142315170E+02  0.99999763730E+01 0.  0.
         12    1    1    2    0    0 -0.34724740505E+02  0.18543072828E+02 -0.21896588061E+02  0.45045684830E+02  0.00000000000E+00 0. -1.
         11    1    3    3    0    0  0.18752721091E+01 -0.15903513578E+01  0.37754720098E+01  0.45055579102E+01  0.51100000000E-03 0. -1.
        -11    1    3    3    0    0  0.22902182054E+01 -0.31173308763E+01  0.11074858744E+01  0.40236024212E+01  0.51100000000E-03 0.  1.
        -12    1    3    3    0    0  0.30559250191E+02 -0.13835390594E+02  0.17013630177E+02  0.37613154839E+02  0.00000000000E+00 0.  1.
</event>
<event>
 7    1  0.2328810E-008  0.4614232E+02  0.7816164E-02  0.1320468E+00
        -11   -1    0    0    0    0  0.00000000000E+00  0.00000000000E+00  0.45593999997E+02  0.45594000000E+02  0.51100000000E-03 0.  1.
         11   -1    0    0    0    0 -0.00000000000E+00 -0.00000000000E+00 -0.45593999997E+02  0.45594000000E+02  0.51100000000E-03 0. -1.
    9900012    2    1    2    0    0  0.38359827473E+02  0.13884162236E+02  0.19101497174E+02  0.46142317420E+02  0.99999968926E+01 0.  0.
         12    1    1    2    0    0 -0.38359827473E+02 -0.13884162236E+02 -0.19101497174E+02  0.45045682580E+02  0.00000000000E+00 0. -1.
         11    1    3    3    0    0  0.16164438554E+01  0.33568023930E+00  0.17161598886E+01  0.23813393259E+01  0.51100000000E-03 0. -1.
        -11    1    3    3    0    0  0.69840030439E+01  0.40690856347E+01  0.74328209379E+01  0.10980919077E+02  0.51100000000E-03 0.  1.
        -12    1    3    3    0    0  0.29759380574E+02  0.94793963619E+01  0.99525163474E+01  0.32780059017E+02  0.00000000000E+00 0.  1.
</event>
<event>
 7    1  0.2328810E-008  0.4614231E+02  0.7816164E-02  0.1320468E+00
        -11   -1    0    0    0    0  0.00000000000E+00  0.00000000000E+00  0.45593999997E+02  0.45594000000E+02  0.51100000000E-03 0.  1.
         11   -1    0    0    0    0 -0.00000000000E+00 -0.00000000000E+00 -0.45593999997E+02  0.45594000000E+02  0.51100000000E-03 0. -1.
    9900012    2    1    2    0    0 -0.11117719888E+02  0.21870745134E+01  0.43597327175E+02  0.46142312890E+02  0.99999555798E+01 0.  0.
         12    1    1    2    0    0  0.11117719888E+02 -0.21870745134E+01 -0.43597327175E+02  0.45045687110E+02  0.00000000000E+00 0. -1.
         11    1    3    3    0    0 -0.35490472931E+01  0.10302965376E+01  0.42432086078E+01  0.56269056500E+01  0.51100000000E-03 0. -1.
        -11    1    3    3    0    0 -0.71364733450E+01 -0.62286086288E+00  0.23824674141E+02  0.24878350139E+02  0.51100000000E-03 0.  1.
         12    1    3    3    0    0 -0.43219924981E+00  0.17796388387E+01  0.15529444426E+02  0.15637057101E+02  0.00000000000E+00 0. -1.
</event>
<event>
 7    1  0.2328810E-008  0.4614232E+02  0.7816164E-02  0.1320468E+00
        -11   -1    0    0    0    0  0.00000000000E+00  0.00000000000E+00  0.45593999997E+02  0.45594000000E+02  0.51100000000E-03 0.  1.
         11   -1    0    0    0    0 -0.00000000000E+00 -0.00000000000E+00 -0.45593999997E+02  0.45594000000E+02  0.51100000000E-03 0. -1.
    9900012    2    1    2    0    0  0.34093030435E+02  0.28252038662E+02  0.82825772463E+01  0.46142317647E+02  0.99999989603E+01 0.  0.
         12    1    1    2    0    0 -0.34093030435E+02 -0.28252038662E+02 -0.82825772463E+01  0.45045682353E+02  0.00000000000E+00 0. -1.
         11    1    3    3    0    0  0.16494988997E+02  0.18383873100E+02  0.34516581558E+01  0.24939234079E+02  0.51100000000E-03 0.  1.
        -11    1    3    3    0    0  0.13059670559E+02  0.59689018060E+01  0.17271241163E+01  0.14462563461E+02  0.51100000000E-03 0. -1.
        -12    1    3    3    0    0  0.45383708797E+01  0.38992637550E+01  0.31037949742E+01  0.67405201071E+01  0.00000000000E+00 0.  1.
</event>
<event>
 7    1  0.2328810E-008  0.4614232E+02  0.7816164E-02  0.1320468E+00
        -11   -1    0    0    0    0  0.00000000000E+00  0.00000000000E+00  0.45593999997E+02  0.45594000000E+02  0.51100000000E-03 0.  1.
         11   -1    0    0    0    0 -0.00000000000E+00 -0.00000000000E+00 -0.45593999997E+02  0.45594000000E+02  0.51100000000E-03 0. -1.
    9900012    2    1    2    0    0  0.17590067339E+02  0.34117603425E+02 -0.23573123783E+02  0.46142317662E+02  0.99999990966E+01 0.  0.
         12    1    1    2    0    0 -0.17590067339E+02 -0.34117603425E+02  0.23573123783E+02  0.45045682338E+02  0.00000000000E+00 0. -1.
         11    1    3    3    0    0 -0.73403541576E-01  0.88852688775E+00 -0.25302593933E+01  0.26827375885E+01  0.51100000000E-03 0. -1.
        -11    1    3    3    0    0  0.12458734654E+02  0.25986430261E+02 -0.13711425085E+02  0.31914225747E+02  0.51100000000E-03 0.  1.
        -12    1    3    3    0    0  0.52047362263E+01  0.72426462762E+01 -0.73314393040E+01  0.11545354327E+02  0.00000000000E+00 0.  1.
</event>
<event>
 7    1  0.2328810E-008  0.4614232E+02  0.7816164E-02  0.1320468E+00
        -11   -1    0    0    0    0  0.00000000000E+00  0.00000000000E+00  0.45593999997E+02  0.45594000000E+02  0.51100000000E-03 0. -1.
         11   -1    0    0    0    0 -0.00000000000E+00 -0.00000000000E+00 -0.45593999997E+02  0.45594000000E+02  0.51100000000E-03 0.  1.
    9900012    2    1    2    0    0  0.25840625966E+02 -0.32712538268E+02 -0.17066500157E+02  0.46142317211E+02  0.99999949878E+01 0.  0.
         12    1    1    2    0    0 -0.25840625966E+02  0.32712538268E+02  0.17066500157E+02  0.45045682789E+02  0.00000000000E+00 0. -1.
         11    1    3    3    0    0  0.11822120713E+02 -0.17363151697E+02 -0.96253256255E+01  0.23106026674E+02  0.51100000000E-03 0. -1.
        -11    1    3    3    0    0  0.85222090433E+01 -0.12849649985E+02 -0.71371494347E+01  0.16990598990E+02  0.51100000000E-03 0.  1.
         12    1    3    3    0    0  0.54962962099E+01 -0.24997365857E+01 -0.30402509667E+00  0.60456915472E+01  0.00000000000E+00 0. -1.
</event>
<event>
 7    1  0.2328810E-008  0.4614232E+02  0.7816164E-02  0.1320468E+00
        -11   -1    0    0    0    0  0.00000000000E+00  0.00000000000E+00  0.45593999997E+02  0.45594000000E+02  0.51100000000E-03 0.  1.
         11   -1    0    0    0    0 -0.00000000000E+00 -0.00000000000E+00 -0.45593999997E+02  0.45594000000E+02  0.51100000000E-03 0. -1.
    9900012    2    1    2    0    0 -0.40621692212E+02 -0.11847600239E+02  0.15447517472E+02  0.46142319789E+02  0.10000018493E+02 0.  0.
         12    1    1    2    0    0  0.40621692212E+02  0.11847600239E+02 -0.15447517472E+02  0.45045680211E+02  0.00000000000E+00 0. -1.
         11    1    3    3    0    0 -0.90934835002E+01 -0.32616198602E+01  0.69416587235E+01  0.11896059531E+02  0.51100000000E-03 0. -1.
        -11    1    3    3    0    0 -0.39004847141E+01  0.45399800698E+00  0.21999028049E+01  0.45010518557E+01  0.51100000000E-03 0.  1.
        -12    1    3    3    0    0 -0.27627723998E+02 -0.90399783854E+01  0.63059559439E+01  0.29745208402E+02  0.00000000000E+00 0.  1.
</event>
<event>
 7    1  0.2328810E-008  0.4614232E+02  0.7816164E-02  0.1320468E+00
        -11   -1    0    0    0    0  0.00000000000E+00  0.00000000000E+00  0.45593999997E+02  0.45594000000E+02  0.51100000000E-03 0.  1.
         11   -1    0    0    0    0 -0.00000000000E+00 -0.00000000000E+00 -0.45593999997E+02  0.45594000000E+02  0.51100000000E-03 0. -1.
    9900012    2    1    2    0    0 -0.16516024218E+02  0.16042023096E+02  0.38716765460E+02  0.46142317758E+02  0.99999999734E+01 0.  0.
         12    1    1    2    0    0  0.16516024218E+02 -0.16042023096E+02 -0.38716765460E+02  0.45045682242E+02  0.00000000000E+00 0. -1.
         11    1    3    3    0    0  0.45053258234E+00  0.38074098414E+01  0.84330926956E+01  0.92637142649E+01  0.51100000000E-03 0. -1.
        -11    1    3    3    0    0 -0.57646330094E+01  0.34432073468E+01  0.81476559891E+01  0.10557981291E+02  0.51100000000E-03 0.  1.
         12    1    3    3    0    0 -0.11201923791E+02  0.87914059075E+01  0.22136016775E+02  0.26320622202E+02  0.00000000000E+00 0. -1.
</event>
<event>
 7    1  0.2328810E-008  0.4614232E+02  0.7816164E-02  0.1320468E+00
        -11   -1    0    0    0    0  0.00000000000E+00  0.00000000000E+00  0.45593999997E+02  0.45594000000E+02  0.51100000000E-03 0.  1.
         11   -1    0    0    0    0 -0.00000000000E+00 -0.00000000000E+00 -0.45593999997E+02  0.45594000000E+02  0.51100000000E-03 0. -1.
    9900012    2    1    2    0    0  0.38147741160E+02 -0.19413549134E+02  0.14034855609E+02  0.46142320767E+02  0.10000027414E+02 0.  0.
         12    1    1    2    0    0 -0.38147741160E+02  0.19413549134E+02 -0.14034855609E+02  0.45045679233E+02  0.00000000000E+00 0. -1.
         11    1    3    3    0    0  0.18783747482E+02 -0.12206664655E+02  0.50278217558E+01  0.22958894210E+02  0.51100000000E-03 0. -1.
        -11    1    3    3    0    0  0.12120536920E+02 -0.70516434586E+01  0.69589139673E+01  0.15654378766E+02  0.51100000000E-03 0.  1.
         12    1    3    3    0    0  0.72434567578E+01 -0.15524101999E+00  0.20481198860E+01  0.75290477913E+01  0.00000000000E+00 0. -1.
</event>
<event>
 7    1  0.2328810E-008  0.4614232E+02  0.7816164E-02  0.1320468E+00
        -11   -1    0    0    0    0  0.00000000000E+00  0.00000000000E+00  0.45593999997E+02  0.45594000000E+02  0.51100000000E-03 0.  1.
         11   -1    0    0    0    0 -0.00000000000E+00 -0.00000000000E+00 -0.45593999997E+02  0.45594000000E+02  0.51100000000E-03 0. -1.
    9900012    2    1    2    0    0 -0.38590961166E+02 -0.23106632804E+02  0.24361053056E+01  0.46142319049E+02  0.10000011748E+02 0.  0.
         12    1    1    2    0    0  0.38590961166E+02  0.23106632804E+02 -0.24361053056E+01  0.45045680951E+02  0.00000000000E+00 0. -1.
         11    1    3    3    0    0 -0.22880367339E+01 -0.15408201323E+01 -0.17114848207E+01  0.32462931673E+01  0.51100000000E-03 0. -1.
        -11    1    3    3    0    0 -0.30820268381E+02 -0.19863059687E+02  0.52792332049E+01  0.37044572972E+02  0.51100000000E-03 0.  1.
        -12    1    3    3    0    0 -0.54826560508E+01 -0.17027529849E+01 -0.11316430786E+01  0.58514529099E+01  0.00000000000E+00 0.  1.
</event>
<event>
 7    1  0.2328810E-008  0.4614232E+02  0.7816164E-02  0.1320468E+00
        -11   -1    0    0    0    0  0.00000000000E+00  0.00000000000E+00  0.45593999997E+02  0.45594000000E+02  0.51100000000E-03 0. -1.
         11   -1    0    0    0    0 -0.00000000000E+00 -0.00000000000E+00 -0.45593999997E+02  0.45594000000E+02  0.51100000000E-03 0.  1.
    9900012    2    1    2    0    0 -0.44962402358E+02  0.97367270188E+00  0.25588695997E+01  0.46142317876E+02  0.10000001050E+02 0.  0.
         12    1    1    2    0    0  0.44962402358E+02 -0.97367270188E+00 -0.25588695997E+01  0.45045682124E+02  0.00000000000E+00 0. -1.
         11    1    3    3    0    0 -0.22372888176E+02 -0.62594195298E+00 -0.14119666325E+01  0.22426136063E+02  0.51100000000E-03 0. -1.
        -11    1    3    3    0    0 -0.19450935510E+02 -0.60716893464E+00  0.40555518637E+01  0.19878507175E+02  0.51100000000E-03 0.  1.
         12    1    3    3    0    0 -0.31385786717E+01  0.22067835895E+01 -0.84715631539E-01  0.38376746381E+01  0.00000000000E+00 0. -1.
</event>
<event>
 7    1  0.2328810E-008  0.4614232E+02  0.7816164E-02  0.1320468E+00
        -11   -1    0    0    0    0  0.00000000000E+00  0.00000000000E+00  0.45593999997E+02  0.45594000000E+02  0.51100000000E-03 0. -1.
         11   -1    0    0    0    0 -0.00000000000E+00 -0.00000000000E+00 -0.45593999997E+02  0.45594000000E+02  0.51100000000E-03 0.  1.
    9900012    2    1    2    0    0 -0.10888415686E+02 -0.26759101748E+02 -0.34561631120E+02  0.46142317985E+02  0.10000002044E+02 0.  0.
         12    1    1    2    0    0  0.10888415686E+02  0.26759101748E+02  0.34561631120E+02  0.45045682015E+02  0.00000000000E+00 0. -1.
         11    1    3    3    0    0 -0.12341626516E+01 -0.39126280107E+01 -0.19776850363E+01  0.45544542774E+01  0.51100000000E-03 0.  1.
        -11    1    3    3    0    0 -0.15553620535E+01 -0.46315055223E+01 -0.24720530985E+01  0.54754946173E+01  0.51100000000E-03 0. -1.
         12    1    3    3    0    0 -0.80988909808E+01 -0.18214968215E+02 -0.30111892985E+02  0.36112369091E+02  0.00000000000E+00 0. -1.
</event>
<event>
 7    1  0.2328810E-008  0.4614232E+02  0.7816164E-02  0.1320468E+00
        -11   -1    0    0    0    0  0.00000000000E+00  0.00000000000E+00  0.45593999997E+02  0.45594000000E+02  0.51100000000E-03 0.  1.
         11   -1    0    0    0    0 -0.00000000000E+00 -0.00000000000E+00 -0.45593999997E+02  0.45594000000E+02  0.51100000000E-03 0. -1.
    9900012    2    1    2    0    0 -0.32090182024E+02  0.24637685379E+02  0.19807024672E+02  0.46142317082E+02  0.99999938107E+01 0.  0.
         12    1    1    2    0    0  0.32090182024E+02 -0.24637685379E+02 -0.19807024672E+02  0.45045682918E+02  0.00000000000E+00 0. -1.
         11    1    3    3    0    0 -0.34069889760E+01  0.19016898590E+01  0.48556063813E+01  0.62290377903E+01  0.51100000000E-03 0. -1.
        -11    1    3    3    0    0 -0.15003668240E+01  0.65116258475E+00 -0.38314489912E+00  0.16798552299E+01  0.51100000000E-03 0.  1.
        -12    1    3    3    0    0 -0.27182826224E+02  0.22084832935E+02  0.15334563190E+02  0.38233424062E+02  0.00000000000E+00 0.  1.
</event>
<event>
 7    1  0.2328810E-008  0.4614232E+02  0.7816164E-02  0.1320468E+00
        -11   -1    0    0    0    0  0.00000000000E+00  0.00000000000E+00  0.45593999997E+02  0.45594000000E+02  0.51100000000E-03 0.  1.
         11   -1    0    0    0    0 -0.00000000000E+00 -0.00000000000E+00 -0.45593999997E+02  0.45594000000E+02  0.51100000000E-03 0. -1.
    9900012    2    1    2    0    0  0.30271405234E+02  0.17011226084E+02  0.28694488776E+02  0.46142317922E+02  0.10000001471E+02 0.  0.
         12    1    1    2    0    0 -0.30271405234E+02 -0.17011226084E+02 -0.28694488776E+02  0.45045682078E+02  0.00000000000E+00 0. -1.
         11    1    3    3    0    0  0.16990783299E+02  0.12555919723E+02  0.16357087360E+02  0.26718760158E+02  0.51100000000E-03 0. -1.
        -11    1    3    3    0    0  0.26758999323E+01  0.28405295548E+01  0.15164086516E+01  0.41867104102E+01  0.51100000000E-03 0.  1.
         12    1    3    3    0    0  0.10604722003E+02  0.16147768057E+01  0.10820992765E+02  0.15236847354E+02  0.00000000000E+00 0. -1.
</event>
<event>
 7    1  0.2328810E-008  0.4614232E+02  0.7816164E-02  0.1320468E+00
        -11   -1    0    0    0    0  0.00000000000E+00  0.00000000000E+00  0.45593999997E+02  0.45594000000E+02  0.51100000000E-03 0.  1.
         11   -1    0    0    0    0 -0.00000000000E+00 -0.00000000000E+00 -0.45593999997E+02  0.45594000000E+02  0.51100000000E-03 0. -1.
    9900012    2    1    2    0    0 -0.32385693792E+02 -0.94782891098E+01  0.29840281591E+02  0.46142317274E+02  0.99999955574E+01 0.  0.
         12    1    1    2    0    0  0.32385693792E+02  0.94782891098E+01 -0.29840281591E+02  0.45045682726E+02  0.00000000000E+00 0. -1.
         11    1    3    3    0    0 -0.13675138300E+01 -0.34376164893E+00  0.35410730614E+01  0.38114911562E+01  0.51100000000E-03 0. -1.
        -11    1    3    3    0    0 -0.87127933215E+01 -0.52150067699E+01  0.11167031682E+02  0.15093431019E+02  0.51100000000E-03 0.  1.
        -12    1    3    3    0    0 -0.22305386641E+02 -0.39195206910E+01  0.15132176847E+02  0.27237395099E+02  0.00000000000E+00 0.  1.
</event>
<event>
 7    1  0.2328810E-008  0.4614231E+02  0.7816164E-02  0.1320468E+00
        -11   -1    0    0    0    0  0.00000000000E+00  0.00000000000E+00  0.45593999997E+02  0.45594000000E+02  0.51100000000E-03 0. -1.
         11   -1    0    0    0    0 -0.00000000000E+00 -0.00000000000E+00 -0.45593999997E+02  0.45594000000E+02  0.51100000000E-03 0.  1.
    9900012    2    1    2    0    0  0.90897434971E+01 -0.49701560977E+01 -0.43838201339E+02  0.46142314468E+02  0.99999699680E+01 0.  0.
         12    1    1    2    0    0 -0.90897434971E+01  0.49701560977E+01  0.43838201339E+02  0.45045685532E+02  0.00000000000E+00 0. -1.
         11    1    3    3    0    0  0.13022563116E+01 -0.44824451269E+01 -0.95903386861E+01  0.10665963725E+02  0.51100000000E-03 0. -1.
        -11    1    3    3    0    0  0.18463561869E+01 -0.14242616021E+01 -0.18011156612E+02  0.18161478878E+02  0.51100000000E-03 0.  1.
        -12    1    3    3    0    0  0.59411309986E+01  0.93655063129E+00 -0.16236706041E+02  0.17314871864E+02  0.00000000000E+00 0.  1.
</event>
<event>
 7    1  0.2328810E-008  0.4614232E+02  0.7816164E-02  0.1320468E+00
        -11   -1    0    0    0    0  0.00000000000E+00  0.00000000000E+00  0.45593999997E+02  0.45594000000E+02  0.51100000000E-03 0. -1.
         11   -1    0    0    0    0 -0.00000000000E+00 -0.00000000000E+00 -0.45593999997E+02  0.45594000000E+02  0.51100000000E-03 0.  1.
    9900012    2    1    2    0    0 -0.79154558450E+01 -0.44185447134E+02 -0.37557087942E+01  0.46142317319E+02  0.99999959648E+01 0.  0.
         12    1    1    2    0    0  0.79154558450E+01  0.44185447134E+02  0.37557087942E+01  0.45045682681E+02  0.00000000000E+00 0. -1.
         11    1    3    3    0    0 -0.61055612390E+01 -0.22111641971E+02  0.10782219985E+01  0.22964432316E+02  0.51100000000E-03 0. -1.
        -11    1    3    3    0    0 -0.84537850502E+00 -0.21298754527E+02 -0.40049049811E+01  0.21688496337E+02  0.51100000000E-03 0.  1.
        -12    1    3    3    0    0 -0.96451610097E+00 -0.77505063717E+00 -0.82902581156E+00  0.14893886650E+01  0.00000000000E+00 0.  1.
</event>
<event>
 7    1  0.2328810E-008  0.4614232E+02  0.7816164E-02  0.1320468E+00
        -11   -1    0    0    0    0  0.00000000000E+00  0.00000000000E+00  0.45593999997E+02  0.45594000000E+02  0.51100000000E-03 0.  1.
         11   -1    0    0    0    0 -0.00000000000E+00 -0.00000000000E+00 -0.45593999997E+02  0.45594000000E+02  0.51100000000E-03 0. -1.
    9900012    2    1    2    0    0 -0.40998133953E+02 -0.10089339620E+02  0.15699420766E+02  0.46142316810E+02  0.99999913294E+01 0.  0.
         12    1    1    2    0    0  0.40998133953E+02  0.10089339620E+02 -0.15699420766E+02  0.45045683190E+02  0.00000000000E+00 0. -1.
         11    1    3    3    0    0 -0.53446168920E+01 -0.39753205266E+01  0.44573657564E+01  0.80147497003E+01  0.51100000000E-03 0. -1.
        -11    1    3    3    0    0 -0.81918530787E+01 -0.29406550318E+01  0.15974844744E+01  0.88490601640E+01  0.51100000000E-03 0.  1.
        -12    1    3    3    0    0 -0.27461663983E+02 -0.31733640616E+01  0.96445705355E+01  0.29278506946E+02  0.00000000000E+00 0.  1.
</event>
<event>
 7    1  0.2328810E-008  0.4614232E+02  0.7816164E-02  0.1320468E+00
        -11   -1    0    0    0    0  0.00000000000E+00  0.00000000000E+00  0.45593999997E+02  0.45594000000E+02  0.51100000000E-03 0.  1.
         11   -1    0    0    0    0 -0.00000000000E+00 -0.00000000000E+00 -0.45593999997E+02  0.45594000000E+02  0.51100000000E-03 0. -1.
    9900012    2    1    2    0    0 -0.12023286732E+02  0.34356888404E+02  0.26535978955E+02  0.46142318923E+02  0.10000010591E+02 0.  0.
         12    1    1    2    0    0  0.12023286732E+02 -0.34356888404E+02 -0.26535978955E+02  0.45045681077E+02  0.00000000000E+00 0. -1.
         11    1    3    3    0    0 -0.75179564271E+01  0.11607512095E+02  0.12613545940E+02  0.18717786924E+02  0.51100000000E-03 0. -1.
        -11    1    3    3    0    0 -0.45505864277E+01  0.15658165788E+02  0.78906069720E+01  0.18114846710E+02  0.51100000000E-03 0.  1.
         12    1    3    3    0    0  0.45256122922E-01  0.70912105207E+01  0.60318260429E+01  0.93096852889E+01  0.00000000000E+00 0. -1.
</event>
<event>
 7    1  0.2328810E-008  0.4614232E+02  0.7816164E-02  0.1320468E+00
        -11   -1    0    0    0    0  0.00000000000E+00  0.00000000000E+00  0.45593999997E+02  0.45594000000E+02  0.51100000000E-03 0.  1.
         11   -1    0    0    0    0 -0.00000000000E+00 -0.00000000000E+00 -0.45593999997E+02  0.45594000000E+02  0.51100000000E-03 0. -1.
    9900012    2    1    2    0    0  0.18545204040E+02 -0.25572549464E+02  0.32112825626E+02  0.46142318202E+02  0.10000004016E+02 0.  0.
         12    1    1    2    0    0 -0.18545204040E+02  0.25572549464E+02 -0.32112825626E+02  0.45045681798E+02  0.00000000000E+00 0. -1.
         11    1    3    3    0    0  0.67682222269E+01 -0.45848141346E+01  0.83332982232E+01  0.11673611793E+02  0.51100000000E-03 0. -1.
        -11    1    3    3    0    0  0.10748414414E+02 -0.14742514022E+02  0.20108353932E+02  0.27151722417E+02  0.51100000000E-03 0.  1.
        -12    1    3    3    0    0  0.10285673995E+01 -0.62452213074E+01  0.36711734715E+01  0.73169839915E+01  0.00000000000E+00 0.  1.
</event>
<event>
 7    1  0.2328810E-008  0.4614232E+02  0.7816164E-02  0.1320468E+00
        -11   -1    0    0    0    0  0.00000000000E+00  0.00000000000E+00  0.45593999997E+02  0.45594000000E+02  0.51100000000E-03 0.  1.
         11   -1    0    0    0    0 -0.00000000000E+00 -0.00000000000E+00 -0.45593999997E+02  0.45594000000E+02  0.51100000000E-03 0. -1.
    9900012    2    1    2    0    0 -0.41977068732E+02 -0.62791820197E+00  0.16329265784E+02  0.46142317614E+02  0.99999986585E+01 0.  0.
         12    1    1    2    0    0  0.41977068732E+02  0.62791820197E+00 -0.16329265784E+02  0.45045682386E+02  0.00000000000E+00 0. -1.
         11    1    3    3    0    0 -0.13267190660E+02  0.11355895412E+00  0.75209194438E+01  0.15251081050E+02  0.51100000000E-03 0.  1.
        -11    1    3    3    0    0 -0.10497078962E+02  0.11327694065E+01  0.65960407264E+01  0.12449079757E+02  0.51100000000E-03 0. -1.
         12    1    3    3    0    0 -0.18212799109E+02 -0.18742465626E+01  0.22123056139E+01  0.18442156807E+02  0.00000000000E+00 0. -1.
</event>
<event>
 7    1  0.2328810E-008  0.4614232E+02  0.7816164E-02  0.1320468E+00
        -11   -1    0    0    0    0  0.00000000000E+00  0.00000000000E+00  0.45593999997E+02  0.45594000000E+02  0.51100000000E-03 0.  1.
         11   -1    0    0    0    0 -0.00000000000E+00 -0.00000000000E+00 -0.45593999997E+02  0.45594000000E+02  0.51100000000E-03 0. -1.
    9900012    2    1    2    0    0 -0.16552272884E+02 -0.91986035928E+01  0.40872012595E+02  0.46142318084E+02  0.10000002947E+02 0.  0.
         12    1    1    2    0    0  0.16552272884E+02  0.91986035928E+01 -0.40872012595E+02  0.45045681916E+02  0.00000000000E+00 0. -1.
         11    1    3    3    0    0 -0.37200998976E+01 -0.43753276096E+01  0.10350005960E+02  0.11836606717E+02  0.51100000000E-03 0. -1.
        -11    1    3    3    0    0 -0.45301884644E+01 -0.23704494424E+01  0.20185803716E+02  0.20823263673E+02  0.51100000000E-03 0.  1.
        -12    1    3    3    0    0 -0.83019845217E+01 -0.24528265408E+01  0.10336202919E+02  0.13482447694E+02  0.00000000000E+00 0.  1.
</event>
<event>
 7    1  0.2328810E-008  0.4614232E+02  0.7816164E-02  0.1320468E+00
        -11   -1    0    0    0    0  0.00000000000E+00  0.00000000000E+00  0.45593999997E+02  0.45594000000E+02  0.51100000000E-03 0. -1.
         11   -1    0    0    0    0 -0.00000000000E+00 -0.00000000000E+00 -0.45593999997E+02  0.45594000000E+02  0.51100000000E-03 0.  1.
    9900012    2    1    2    0    0 -0.92796414455E+01  0.94108786332E+01 -0.43063175537E+02  0.46142317972E+02  0.10000001925E+02 0.  0.
         12    1    1    2    0    0  0.92796414455E+01 -0.94108786332E+01  0.43063175537E+02  0.45045682028E+02  0.00000000000E+00 0. -1.
         11    1    3    3    0    0 -0.23357867154E+01 -0.30040622517E+00 -0.51608354308E+01  0.56727741084E+01  0.51100000000E-03 0. -1.
        -11    1    3    3    0    0 -0.75646665165E+01  0.55888968754E+01 -0.20190020601E+02  0.22273232364E+02  0.51100000000E-03 0.  1.
        -12    1    3    3    0    0  0.62081178632E+00  0.41223879830E+01 -0.17712319505E+02  0.18196311500E+02  0.00000000000E+00 0.  1.
</event>
<event>
 7    1  0.2328810E-008  0.4614232E+02  0.7816164E-02  0.1320468E+00
        -11   -1    0    0    0    0  0.00000000000E+00  0.00000000000E+00  0.45593999997E+02  0.45594000000E+02  0.51100000000E-03 0.  1.
         11   -1    0    0    0    0 -0.00000000000E+00 -0.00000000000E+00 -0.45593999997E+02  0.45594000000E+02  0.51100000000E-03 0. -1.
    9900012    2    1    2    0    0  0.75110355491E+01 -0.37312972738E+02  0.24092319804E+02  0.46142318041E+02  0.10000002553E+02 0.  0.
         12    1    1    2    0    0 -0.75110355491E+01  0.37312972738E+02 -0.24092319804E+02  0.45045681959E+02  0.00000000000E+00 0. -1.
         11    1    3    3    0    0 -0.77678085891E-01 -0.28400364666E+01 -0.54627345716E+00  0.28931394657E+01  0.51100000000E-03 0. -1.
        -11    1    3    3    0    0  0.12195662021E+01 -0.11954577323E+02  0.66614172212E+01  0.13739495637E+02  0.51100000000E-03 0.  1.
         12    1    3    3    0    0  0.63691474328E+01 -0.22518358948E+02  0.17977176040E+02  0.29509682938E+02  0.00000000000E+00 0. -1.
</event>
<event>
 7    1  0.2328810E-008  0.4614232E+02  0.7816164E-02  0.1320468E+00
        -11   -1    0    0    0    0  0.00000000000E+00  0.00000000000E+00  0.45593999997E+02  0.45594000000E+02  0.51100000000E-03 0.  1.
         11   -1    0    0    0    0 -0.00000000000E+00 -0.00000000000E+00 -0.45593999997E+02  0.45594000000E+02  0.51100000000E-03 0. -1.
    9900012    2    1    2    0    0 -0.24480494087E+01 -0.41039149983E+02  0.18409472917E+02  0.46142317961E+02  0.10000001824E+02 0.  0.
         12    1    1    2    0    0  0.24480494087E+01  0.41039149983E+02 -0.18409472917E+02  0.45045682039E+02  0.00000000000E+00 0. -1.
         11    1    3    3    0    0 -0.44656839267E+01 -0.28070962573E+02  0.13242317887E+02  0.31357299883E+02  0.51100000000E-03 0.  1.
        -11    1    3    3    0    0 -0.12997896068E+01 -0.58859417670E+01  0.24306248719E+01  0.64993615868E+01  0.51100000000E-03 0. -1.
         12    1    3    3    0    0  0.33174241248E+01 -0.70822456436E+01  0.27365301581E+01  0.82856564909E+01  0.00000000000E+00 0. -1.
</event>
<event>
 7    1  0.2328810E-008  0.4614232E+02  0.7816164E-02  0.1320468E+00
        -11   -1    0    0    0    0  0.00000000000E+00  0.00000000000E+00  0.45593999997E+02  0.45594000000E+02  0.51100000000E-03 0.  1.
         11   -1    0    0    0    0 -0.00000000000E+00 -0.00000000000E+00 -0.45593999997E+02  0.45594000000E+02  0.51100000000E-03 0. -1.
    9900012    2    1    2    0    0 -0.11592453446E+02 -0.11790398372E+02  0.41901247446E+02  0.46142323091E+02  0.10000048605E+02 0.  0.
         12    1    1    2    0    0  0.11592453446E+02  0.11790398372E+02 -0.41901247446E+02  0.45045676909E+02  0.00000000000E+00 0. -1.
         11    1    3    3    0    0 -0.58783270811E+01 -0.52029677146E+00  0.18588043846E+02  0.19502328381E+02  0.51100000000E-03 0. -1.
        -11    1    3    3    0    0 -0.40170586521E+00 -0.20564064128E+01  0.24610802231E+01  0.32321960124E+01  0.51100000000E-03 0.  1.
        -12    1    3    3    0    0 -0.53124204993E+01 -0.92136951874E+01  0.20852123377E+02  0.23407798698E+02  0.00000000000E+00 0.  1.
</event>
<event>
 7    1  0.2328810E-008  0.4614232E+02  0.7816164E-02  0.1320468E+00
        -11   -1    0    0    0    0  0.00000000000E+00  0.00000000000E+00  0.45593999997E+02  0.45594000000E+02  0.51100000000E-03 0. -1.
         11   -1    0    0    0    0 -0.00000000000E+00 -0.00000000000E+00 -0.45593999997E+02  0.45594000000E+02  0.51100000000E-03 0.  1.
    9900012    2    1    2    0    0  0.19399073957E+02  0.29218800999E+02 -0.28267493273E+02  0.46142316764E+02  0.99999909119E+01 0.  0.
         12    1    1    2    0    0 -0.19399073957E+02 -0.29218800999E+02  0.28267493273E+02  0.45045683236E+02  0.00000000000E+00 0. -1.
         11    1    3    3    0    0  0.48885632838E+01  0.66949122140E+01 -0.92744296748E+01  0.12439250242E+02  0.51100000000E-03 0. -1.
        -11    1    3    3    0    0  0.45343391484E+01  0.87212956909E+01 -0.11411406908E+02  0.15061256187E+02  0.51100000000E-03 0.  1.
         12    1    3    3    0    0  0.99761715247E+01  0.13802593094E+02 -0.75816566899E+01  0.18641810335E+02  0.00000000000E+00 0. -1.
</event>
<event>
 7    1  0.2328810E-008  0.4614232E+02  0.7816164E-02  0.1320468E+00
        -11   -1    0    0    0    0  0.00000000000E+00  0.00000000000E+00  0.45593999997E+02  0.45594000000E+02  0.51100000000E-03 0.  1.
         11   -1    0    0    0    0 -0.00000000000E+00 -0.00000000000E+00 -0.45593999997E+02  0.45594000000E+02  0.51100000000E-03 0. -1.
    9900012    2    1    2    0    0  0.17523725610E+02  0.35416304533E+02  0.21626789863E+02  0.46142316236E+02  0.99999860930E+01 0.  0.
         12    1    1    2    0    0 -0.17523725610E+02 -0.35416304533E+02 -0.21626789863E+02  0.45045683764E+02  0.00000000000E+00 0. -1.
         11    1    3    3    0    0  0.35266278987E+01  0.89191281810E+01  0.10301516608E+02  0.14075126875E+02  0.51100000000E-03 0. -1.
        -11    1    3    3    0    0  0.76941150159E+01  0.15931283432E+02  0.69866276552E+01  0.19021518445E+02  0.51100000000E-03 0.  1.
         12    1    3    3    0    0  0.63029826950E+01  0.10565892919E+02  0.43386455994E+01  0.13045670917E+02  0.00000000000E+00 0. -1.
</event>
<event>
 7    1  0.2328810E-008  0.4614233E+02  0.7816164E-02  0.1320468E+00
        -11   -1    0    0    0    0  0.00000000000E+00  0.00000000000E+00  0.45593999997E+02  0.45594000000E+02  0.51100000000E-03 0.  1.
         11   -1    0    0    0    0 -0.00000000000E+00 -0.00000000000E+00 -0.45593999997E+02  0.45594000000E+02  0.51100000000E-03 0. -1.
    9900012    2    1    2    0    0  0.43510014339E+02 -0.71624571156E+01  0.92027495134E+01  0.46142326087E+02  0.10000075919E+02 0.  0.
         12    1    1    2    0    0 -0.43510014339E+02  0.71624571156E+01 -0.92027495134E+01  0.45045673913E+02  0.00000000000E+00 0. -1.
         11    1    3    3    0    0  0.14643690161E+02 -0.35752126180E+01 -0.48342238540E+00  0.15081561731E+02  0.51100000000E-03 0. -1.
        -11    1    3    3    0    0  0.82107291571E+01 -0.32335379718E+01  0.22753888816E+01  0.91131353512E+01  0.51100000000E-03 0.  1.
        -12    1    3    3    0    0  0.20655595021E+02 -0.35370652579E+00  0.74107830172E+01  0.21947629004E+02  0.00000000000E+00 0.  1.
</event>
<event>
 7    1  0.2328810E-008  0.4614232E+02  0.7816164E-02  0.1320468E+00
        -11   -1    0    0    0    0  0.00000000000E+00  0.00000000000E+00  0.45593999997E+02  0.45594000000E+02  0.51100000000E-03 0.  1.
         11   -1    0    0    0    0 -0.00000000000E+00 -0.00000000000E+00 -0.45593999997E+02  0.45594000000E+02  0.51100000000E-03 0. -1.
    9900012    2    1    2    0    0  0.19798578494E+02 -0.17592378330E+02  0.36436766659E+02  0.46142318184E+02  0.10000003861E+02 0.  0.
         12    1    1    2    0    0 -0.19798578494E+02  0.17592378330E+02 -0.36436766659E+02  0.45045681816E+02  0.00000000000E+00 0. -1.
         11    1    3    3    0    0  0.12873121455E+02 -0.95274394018E+01  0.21015357410E+02  0.26422236939E+02  0.51100000000E-03 0. -1.
        -11    1    3    3    0    0  0.38043006562E+01 -0.22225126924E+01  0.10740847183E+02  0.11609395532E+02  0.51100000000E-03 0.  1.
        -12    1    3    3    0    0  0.31211563829E+01 -0.58424262359E+01  0.46805620662E+01  0.81106857135E+01  0.00000000000E+00 0.  1.
</event>
<event>
 7    1  0.2328810E-008  0.4614232E+02  0.7816164E-02  0.1320468E+00
        -11   -1    0    0    0    0  0.00000000000E+00  0.00000000000E+00  0.45593999997E+02  0.45594000000E+02  0.51100000000E-03 0.  1.
         11   -1    0    0    0    0 -0.00000000000E+00 -0.00000000000E+00 -0.45593999997E+02  0.45594000000E+02  0.51100000000E-03 0. -1.
    9900012    2    1    2    0    0 -0.27411048252E+02  0.33287644496E+02  0.13026151413E+02  0.46142318043E+02  0.10000002568E+02 0.  0.
         12    1    1    2    0    0  0.27411048252E+02 -0.33287644496E+02 -0.13026151413E+02  0.45045681957E+02  0.00000000000E+00 0. -1.
         11    1    3    3    0    0 -0.15124170522E+02  0.21116859446E+02  0.51073909471E+01  0.26471640096E+02  0.51100000000E-03 0. -1.
        -11    1    3    3    0    0 -0.21436775280E+01  0.38779506813E+01  0.40669276652E+01  0.60144622141E+01  0.51100000000E-03 0.  1.
        -12    1    3    3    0    0 -0.10143200202E+02  0.82928343692E+01  0.38518328002E+01  0.13656215732E+02  0.00000000000E+00 0.  1.
</event>
<event>
 7    1  0.2328810E-008  0.4614232E+02  0.7816164E-02  0.1320468E+00
        -11   -1    0    0    0    0  0.00000000000E+00  0.00000000000E+00  0.45593999997E+02  0.45594000000E+02  0.51100000000E-03 0.  1.
         11   -1    0    0    0    0 -0.00000000000E+00 -0.00000000000E+00 -0.45593999997E+02  0.45594000000E+02  0.51100000000E-03 0. -1.
    9900012    2    1    2    0    0 -0.51341560350E+01 -0.41315865637E+02  0.17197476844E+02  0.46142317395E+02  0.99999966618E+01 0.  0.
         12    1    1    2    0    0  0.51341560350E+01  0.41315865637E+02 -0.17197476844E+02  0.45045682605E+02  0.00000000000E+00 0. -1.
         11    1    3    3    0    0 -0.27708390412E+01 -0.13806918543E+02  0.88908815793E+01  0.16654018259E+02  0.51100000000E-03 0. -1.
        -11    1    3    3    0    0  0.10148900169E+01 -0.20257082803E+02  0.63352986189E+01  0.21248892072E+02  0.51100000000E-03 0.  1.
        -12    1    3    3    0    0 -0.33782070107E+01 -0.72518642912E+01  0.19712966459E+01  0.82394070643E+01  0.00000000000E+00 0.  1.
</event>
<event>
 7    1  0.2328810E-008  0.4614232E+02  0.7816164E-02  0.1320468E+00
        -11   -1    0    0    0    0  0.00000000000E+00  0.00000000000E+00  0.45593999997E+02  0.45594000000E+02  0.51100000000E-03 0.  1.
         11   -1    0    0    0    0 -0.00000000000E+00 -0.00000000000E+00 -0.45593999997E+02  0.45594000000E+02  0.51100000000E-03 0. -1.
    9900012    2    1    2    0    0 -0.37334013223E+02 -0.24432568804E+02  0.61914881228E+01  0.46142317778E+02  0.10000000152E+02 0.  0.
         12    1    1    2    0    0  0.37334013223E+02  0.24432568804E+02 -0.61914881228E+01  0.45045682222E+02  0.00000000000E+00 0. -1.
         11    1    3    3    0    0  0.16970870440E+00  0.42070604840E+00  0.29871143693E+00  0.54316057219E+00  0.51100000000E-03 0. -1.
        -11    1    3    3    0    0 -0.44963180215E+01 -0.28010387068E+01 -0.75236182954E+00  0.53505833486E+01  0.51100000000E-03 0.  1.
        -12    1    3    3    0    0 -0.33007403906E+02 -0.22052236145E+02  0.66451385155E+01  0.40248573857E+02  0.00000000000E+00 0.  1.
</event>
<event>
 7    1  0.2328810E-008  0.4614232E+02  0.7816164E-02  0.1320468E+00
        -11   -1    0    0    0    0  0.00000000000E+00  0.00000000000E+00  0.45593999997E+02  0.45594000000E+02  0.51100000000E-03 0.  1.
         11   -1    0    0    0    0 -0.00000000000E+00 -0.00000000000E+00 -0.45593999997E+02  0.45594000000E+02  0.51100000000E-03 0. -1.
    9900012    2    1    2    0    0  0.77795326677E+01  0.14845641764E+02  0.41811473068E+02  0.46142317764E+02  0.10000000030E+02 0.  0.
         12    1    1    2    0    0 -0.77795326677E+01 -0.14845641764E+02 -0.41811473068E+02  0.45045682236E+02  0.00000000000E+00 0. -1.
         11    1    3    3    0    0  0.30437691157E+01  0.19973809815E+01  0.63067907448E+01  0.72821474151E+01  0.51100000000E-03 0. -1.
        -11    1    3    3    0    0 -0.65858112559E+00  0.90007672242E+01  0.23026958264E+02  0.24732334036E+02  0.51100000000E-03 0.  1.
        -12    1    3    3    0    0  0.53943446776E+01  0.38474935587E+01  0.12477724059E+02  0.14127836313E+02  0.00000000000E+00 0.  1.
</event>
<event>
 7    1  0.2328810E-008  0.4614232E+02  0.7816164E-02  0.1320468E+00
        -11   -1    0    0    0    0  0.00000000000E+00  0.00000000000E+00  0.45593999997E+02  0.45594000000E+02  0.51100000000E-03 0.  1.
         11   -1    0    0    0    0 -0.00000000000E+00 -0.00000000000E+00 -0.45593999997E+02  0.45594000000E+02  0.51100000000E-03 0. -1.
    9900012    2    1    2    0    0 -0.84611871038E+01 -0.14288370085E+02  0.41873191390E+02  0.46142319141E+02  0.10000012581E+02 0.  0.
         12    1    1    2    0    0  0.84611871038E+01  0.14288370085E+02 -0.41873191390E+02  0.45045680859E+02  0.00000000000E+00 0. -1.
         11    1    3    3    0    0 -0.88590398843E+00 -0.37561489856E+00  0.11296572268E+02  0.11337480218E+02  0.51100000000E-03 0. -1.
        -11    1    3    3    0    0 -0.54566030023E+01 -0.74286843482E+01  0.12874665130E+02  0.15834041491E+02  0.51100000000E-03 0.  1.
        -12    1    3    3    0    0 -0.21186801131E+01 -0.64840708382E+01  0.17701953992E+02  0.18970797432E+02  0.00000000000E+00 0.  1.
</event>
<event>
 7    1  0.2328810E-008  0.4614232E+02  0.7816164E-02  0.1320468E+00
        -11   -1    0    0    0    0  0.00000000000E+00  0.00000000000E+00  0.45593999997E+02  0.45594000000E+02  0.51100000000E-03 0.  1.
         11   -1    0    0    0    0 -0.00000000000E+00 -0.00000000000E+00 -0.45593999997E+02  0.45594000000E+02  0.51100000000E-03 0. -1.
    9900012    2    1    2    0    0 -0.64114955287E+01 -0.32612424534E+02  0.30404538283E+02  0.46142318108E+02  0.10000003166E+02 0.  0.
         12    1    1    2    0    0  0.64114955287E+01  0.32612424534E+02 -0.30404538283E+02  0.45045681892E+02  0.00000000000E+00 0. -1.
         11    1    3    3    0    0 -0.48515228269E+00 -0.43491677034E+01  0.19592772470E+01  0.47947262739E+01  0.51100000000E-03 0. -1.
        -11    1    3    3    0    0  0.14418387869E+01 -0.12434860971E+02  0.10961421637E+02  0.16639033356E+02  0.51100000000E-03 0.  1.
        -12    1    3    3    0    0 -0.73681820329E+01 -0.15828395859E+02  0.17483839399E+02  0.24708558478E+02  0.00000000000E+00 0.  1.
</event>
<event>
 7    1  0.2328810E-008  0.4614232E+02  0.7816164E-02  0.1320468E+00
        -11   -1    0    0    0    0  0.00000000000E+00  0.00000000000E+00  0.45593999997E+02  0.45594000000E+02  0.51100000000E-03 0.  1.
         11   -1    0    0    0    0 -0.00000000000E+00 -0.00000000000E+00 -0.45593999997E+02  0.45594000000E+02  0.51100000000E-03 0. -1.
    9900012    2    1    2    0    0 -0.18544987555E+02  0.15441710006E+02  0.38036173249E+02  0.46142318223E+02  0.10000004211E+02 0.  0.
         12    1    1    2    0    0  0.18544987555E+02 -0.15441710006E+02 -0.38036173249E+02  0.45045681777E+02  0.00000000000E+00 0. -1.
         11    1    3    3    0    0 -0.11650885078E+02  0.11337636634E+02  0.24579879734E+02  0.29469571011E+02  0.51100000000E-03 0.  1.
        -11    1    3    3    0    0 -0.34632858502E+01  0.51879095472E+01  0.88661111727E+01  0.10840511147E+02  0.51100000000E-03 0. -1.
         12    1    3    3    0    0 -0.34308166261E+01 -0.10838361752E+01  0.45901823426E+01  0.58322360648E+01  0.00000000000E+00 0. -1.
</event>
<event>
 7    1  0.2328810E-008  0.4614232E+02  0.7816164E-02  0.1320468E+00
        -11   -1    0    0    0    0  0.00000000000E+00  0.00000000000E+00  0.45593999997E+02  0.45594000000E+02  0.51100000000E-03 0.  1.
         11   -1    0    0    0    0 -0.00000000000E+00 -0.00000000000E+00 -0.45593999997E+02  0.45594000000E+02  0.51100000000E-03 0. -1.
    9900012    2    1    2    0    0 -0.11860201508E+02 -0.15918953520E+02  0.40435577926E+02  0.46142318484E+02  0.10000006593E+02 0.  0.
         12    1    1    2    0    0  0.11860201508E+02  0.15918953520E+02 -0.40435577926E+02  0.45045681516E+02  0.00000000000E+00 0. -1.
         11    1    3    3    0    0 -0.22113017993E+01 -0.42938649942E+01  0.13531319450E+02  0.14367454143E+02  0.51100000000E-03 0. -1.
        -11    1    3    3    0    0 -0.82564087418E+01 -0.49304109611E+01  0.19200622177E+02  0.21474196837E+02  0.51100000000E-03 0.  1.
        -12    1    3    3    0    0 -0.13924909664E+01 -0.66946775650E+01  0.77036362994E+01  0.10300667504E+02  0.00000000000E+00 0.  1.
</event>
<event>
 7    1  0.2328810E-008  0.4614232E+02  0.7816164E-02  0.1320468E+00
        -11   -1    0    0    0    0  0.00000000000E+00  0.00000000000E+00  0.45593999997E+02  0.45594000000E+02  0.51100000000E-03 0.  1.
         11   -1    0    0    0    0 -0.00000000000E+00 -0.00000000000E+00 -0.45593999997E+02  0.45594000000E+02  0.51100000000E-03 0. -1.
    9900012    2    1    2    0    0  0.68780803678E+01  0.12366608953E+02  0.42765319001E+02  0.46142317457E+02  0.99999972230E+01 0.  0.
         12    1    1    2    0    0 -0.68780803678E+01 -0.12366608953E+02 -0.42765319001E+02  0.45045682543E+02  0.00000000000E+00 0. -1.
         11    1    3    3    0    0  0.54905463479E+01  0.70478661744E+01  0.13431295875E+02  0.16131280977E+02  0.51100000000E-03 0. -1.
        -11    1    3    3    0    0  0.21106482581E+01  0.51350221904E+01  0.26821727808E+02  0.27390297038E+02  0.51100000000E-03 0.  1.
        -12    1    3    3    0    0 -0.72311423820E+00  0.18372058822E+00  0.25122953182E+01  0.26207394418E+01  0.00000000000E+00 0.  1.
</event>
<event>
 7    1  0.2328810E-008  0.4614232E+02  0.7816164E-02  0.1320468E+00
        -11   -1    0    0    0    0  0.00000000000E+00  0.00000000000E+00  0.45593999997E+02  0.45594000000E+02  0.51100000000E-03 0.  1.
         11   -1    0    0    0    0 -0.00000000000E+00 -0.00000000000E+00 -0.45593999997E+02  0.45594000000E+02  0.51100000000E-03 0. -1.
    9900012    2    1    2    0    0 -0.11432794061E+02  0.32970367172E+01  0.43445762132E+02  0.46142317872E+02  0.10000001008E+02 0.  0.
         12    1    1    2    0    0  0.11432794061E+02 -0.32970367172E+01 -0.43445762132E+02  0.45045682128E+02  0.00000000000E+00 0. -1.
         11    1    3    3    0    0  0.88730007851E+00  0.21925921110E+00  0.27799603748E+01  0.29263554087E+01  0.51100000000E-03 0. -1.
        -11    1    3    3    0    0 -0.38185472004E+01  0.45333859613E+01  0.18722586869E+02  0.19638435537E+02  0.51100000000E-03 0.  1.
        -12    1    3    3    0    0 -0.85015469386E+01 -0.14556084552E+01  0.21943214888E+02  0.23577526926E+02  0.00000000000E+00 0.  1.
</event>
<event>
 7    1  0.2328810E-008  0.4614231E+02  0.7816164E-02  0.1320468E+00
        -11   -1    0    0    0    0  0.00000000000E+00  0.00000000000E+00  0.45593999997E+02  0.45594000000E+02  0.51100000000E-03 0.  1.
         11   -1    0    0    0    0 -0.00000000000E+00 -0.00000000000E+00 -0.45593999997E+02  0.45594000000E+02  0.51100000000E-03 0. -1.
    9900012    2    1    2    0    0 -0.24844971014E+02  0.37510712998E+01  0.37386770650E+02  0.46142314965E+02  0.99999745060E+01 0.  0.
         12    1    1    2    0    0  0.24844971014E+02 -0.37510712998E+01 -0.37386770650E+02  0.45045685035E+02  0.00000000000E+00 0. -1.
         11    1    3    3    0    0 -0.65888795804E+01 -0.88588865581E+00  0.13011902342E+02  0.14611903903E+02  0.51100000000E-03 0. -1.
        -11    1    3    3    0    0 -0.13829805734E+02  0.46258176214E+01  0.22292751847E+02  0.26638853212E+02  0.51100000000E-03 0.  1.
        -12    1    3    3    0    0 -0.44262856995E+01  0.11142334288E-01  0.20821164615E+01  0.48915578504E+01  0.00000000000E+00 0.  1.
</event>
<event>
 7    1  0.2328810E-008  0.4614232E+02  0.7816164E-02  0.1320468E+00
        -11   -1    0    0    0    0  0.00000000000E+00  0.00000000000E+00  0.45593999997E+02  0.45594000000E+02  0.51100000000E-03 0. -1.
         11   -1    0    0    0    0 -0.00000000000E+00 -0.00000000000E+00 -0.45593999997E+02  0.45594000000E+02  0.51100000000E-03 0.  1.
    9900012    2    1    2    0    0 -0.10685997810E+02  0.15891445079E+02 -0.40772350671E+02  0.46142321459E+02  0.10000033725E+02 0.  0.
         12    1    1    2    0    0  0.10685997810E+02 -0.15891445079E+02  0.40772350671E+02  0.45045678541E+02  0.00000000000E+00 0. -1.
         11    1    3    3    0    0  0.11917761316E+01 -0.76179906960E-01 -0.29767635176E+01  0.32073750991E+01  0.51100000000E-03 0. -1.
        -11    1    3    3    0    0 -0.62197641592E+01  0.48296168104E+01 -0.14888405153E+02  0.16842662290E+02  0.51100000000E-03 0.  1.
        -12    1    3    3    0    0 -0.56580097823E+01  0.11138008176E+02 -0.22907182001E+02  0.26092284071E+02  0.00000000000E+00 0.  1.
</event>
<event>
 7    1  0.2328810E-008  0.4614232E+02  0.7816164E-02  0.1320468E+00
        -11   -1    0    0    0    0  0.00000000000E+00  0.00000000000E+00  0.45593999997E+02  0.45594000000E+02  0.51100000000E-03 0.  1.
         11   -1    0    0    0    0 -0.00000000000E+00 -0.00000000000E+00 -0.45593999997E+02  0.45594000000E+02  0.51100000000E-03 0. -1.
    9900012    2    1    2    0    0 -0.43379916639E+02  0.63638309582E+01  0.10334307088E+02  0.46142318575E+02  0.10000007418E+02 0.  0.
         12    1    1    2    0    0  0.43379916639E+02 -0.63638309582E+01 -0.10334307088E+02  0.45045681425E+02  0.00000000000E+00 0. -1.
         11    1    3    3    0    0 -0.31587016849E+01  0.13509610449E+01 -0.15444002728E+01  0.37666516354E+01  0.51100000000E-03 0. -1.
        -11    1    3    3    0    0 -0.16995112656E+02  0.38216564970E+01  0.49763794774E+01  0.18116381138E+02  0.51100000000E-03 0.  1.
         12    1    3    3    0    0 -0.23226102298E+02  0.11912134163E+01  0.69023278836E+01  0.24259285801E+02  0.00000000000E+00 0. -1.
</event>
<event>
 7    1  0.2328810E-008  0.4614232E+02  0.7816164E-02  0.1320468E+00
        -11   -1    0    0    0    0  0.00000000000E+00  0.00000000000E+00  0.45593999997E+02  0.45594000000E+02  0.51100000000E-03 0. -1.
         11   -1    0    0    0    0 -0.00000000000E+00 -0.00000000000E+00 -0.45593999997E+02  0.45594000000E+02  0.51100000000E-03 0.  1.
    9900012    2    1    2    0    0 -0.40275352941E+02 -0.18835554526E+02  0.72271209507E+01  0.46142318231E+02  0.10000004285E+02 0.  0.
         12    1    1    2    0    0  0.40275352941E+02  0.18835554526E+02 -0.72271209507E+01  0.45045681769E+02  0.00000000000E+00 0. -1.
         11    1    3    3    0    0 -0.15332489214E+02 -0.61770876814E+01 -0.91489195275E-01  0.16530275505E+02  0.51100000000E-03 0. -1.
        -11    1    3    3    0    0 -0.24535291853E+02 -0.13125938553E+02  0.77156643029E+01  0.28875634800E+02  0.51100000000E-03 0.  1.
         12    1    3    3    0    0 -0.40757187324E+00  0.46747170834E+00 -0.39705415697E+00  0.73640792603E+00  0.00000000000E+00 0. -1.
</event>
<event>
 7    1  0.2328810E-008  0.4614232E+02  0.7816164E-02  0.1320468E+00
        -11   -1    0    0    0    0  0.00000000000E+00  0.00000000000E+00  0.45593999997E+02  0.45594000000E+02  0.51100000000E-03 0. -1.
         11   -1    0    0    0    0 -0.00000000000E+00 -0.00000000000E+00 -0.45593999997E+02  0.45594000000E+02  0.51100000000E-03 0.  1.
    9900012    2    1    2    0    0  0.43423374272E+02 -0.10935073874E+02 -0.48936960433E+01  0.46142317246E+02  0.99999953027E+01 0.  0.
         12    1    1    2    0    0 -0.43423374272E+02  0.10935073874E+02  0.48936960433E+01  0.45045682754E+02  0.00000000000E+00 0. -1.
         11    1    3    3    0    0  0.68995904536E+01 -0.17516424547E+01  0.22350269924E+00  0.71219767926E+01  0.51100000000E-03 0. -1.
        -11    1    3    3    0    0  0.20424477681E+02 -0.93868277556E+01 -0.43928060225E+01  0.22903461941E+02  0.51100000000E-03 0.  1.
         12    1    3    3    0    0  0.16099306138E+02  0.20339633635E+00 -0.72439272009E+00  0.16116878513E+02  0.00000000000E+00 0. -1.
</event>
<event>
 7    1  0.2328810E-008  0.4614232E+02  0.7816164E-02  0.1320468E+00
        -11   -1    0    0    0    0  0.00000000000E+00  0.00000000000E+00  0.45593999997E+02  0.45594000000E+02  0.51100000000E-03 0.  1.
         11   -1    0    0    0    0 -0.00000000000E+00 -0.00000000000E+00 -0.45593999997E+02  0.45594000000E+02  0.51100000000E-03 0. -1.
    9900012    2    1    2    0    0 -0.28616407961E+01 -0.23503259056E+02  0.38321289735E+02  0.46142318506E+02  0.10000006789E+02 0.  0.
         12    1    1    2    0    0  0.28616407961E+01  0.23503259056E+02 -0.38321289735E+02  0.45045681494E+02  0.00000000000E+00 0. -1.
         11    1    3    3    0    0  0.31120980126E+00 -0.54403863047E+01  0.56985297162E+01  0.78846620646E+01  0.51100000000E-03 0. -1.
        -11    1    3    3    0    0 -0.43549048243E+01 -0.94659788857E+01  0.12053888683E+02  0.15933178746E+02  0.51100000000E-03 0.  1.
        -12    1    3    3    0    0  0.11820542270E+01 -0.85968938659E+01  0.20568871336E+02  0.22324477695E+02  0.00000000000E+00 0.  1.
</event>
<event>
 7    1  0.2328810E-008  0.4614232E+02  0.7816164E-02  0.1320468E+00
        -11   -1    0    0    0    0  0.00000000000E+00  0.00000000000E+00  0.45593999997E+02  0.45594000000E+02  0.51100000000E-03 0.  1.
         11   -1    0    0    0    0 -0.00000000000E+00 -0.00000000000E+00 -0.45593999997E+02  0.45594000000E+02  0.51100000000E-03 0. -1.
    9900012    2    1    2    0    0 -0.43873189915E+02 -0.10017540132E+02 -0.19762200133E+01  0.46142319306E+02  0.10000014091E+02 0.  0.
         12    1    1    2    0    0  0.43873189915E+02  0.10017540132E+02  0.19762200133E+01  0.45045680694E+02  0.00000000000E+00 0. -1.
         11    1    3    3    0    0 -0.45919734561E+00 -0.40780664159E+00  0.75196814408E+00  0.97088867023E+00  0.51100000000E-03 0. -1.
        -11    1    3    3    0    0 -0.17822753449E+02 -0.67883301799E+01 -0.36082973036E+01  0.19410094715E+02  0.51100000000E-03 0.  1.
         12    1    3    3    0    0 -0.25591239120E+02 -0.28214033103E+01  0.88010914621E+00  0.25761335921E+02  0.00000000000E+00 0. -1.
</event>
<event>
 7    1  0.2328810E-008  0.4614232E+02  0.7816164E-02  0.1320468E+00
        -11   -1    0    0    0    0  0.00000000000E+00  0.00000000000E+00  0.45593999997E+02  0.45594000000E+02  0.51100000000E-03 0.  1.
         11   -1    0    0    0    0 -0.00000000000E+00 -0.00000000000E+00 -0.45593999997E+02  0.45594000000E+02  0.51100000000E-03 0. -1.
    9900012    2    1    2    0    0  0.19725627484E+02 -0.32434812461E+02  0.24248626402E+02  0.46142319615E+02  0.10000016902E+02 0.  0.
         12    1    1    2    0    0 -0.19725627484E+02  0.32434812461E+02 -0.24248626402E+02  0.45045680385E+02  0.00000000000E+00 0. -1.
         11    1    3    3    0    0  0.51819729031E+01 -0.38363367606E+01  0.35491253195E+01  0.73597971239E+01  0.51100000000E-03 0. -1.
        -11    1    3    3    0    0  0.85007865053E+01 -0.10506069248E+02  0.64613022625E+01  0.14979629149E+02  0.51100000000E-03 0.  1.
         12    1    3    3    0    0  0.60428680753E+01 -0.18092406452E+02  0.14238198820E+02  0.23802893342E+02  0.00000000000E+00 0. -1.
</event>
<event>
 7    1  0.2328810E-008  0.4614232E+02  0.7816164E-02  0.1320468E+00
        -11   -1    0    0    0    0  0.00000000000E+00  0.00000000000E+00  0.45593999997E+02  0.45594000000E+02  0.51100000000E-03 0. -1.
         11   -1    0    0    0    0 -0.00000000000E+00 -0.00000000000E+00 -0.45593999997E+02  0.45594000000E+02  0.51100000000E-03 0.  1.
    9900012    2    1    2    0    0 -0.34384541587E+02 -0.20955643212E+02  0.20191030043E+02  0.46142319000E+02  0.10000011296E+02 0.  0.
         12    1    1    2    0    0  0.34384541587E+02  0.20955643212E+02 -0.20191030043E+02  0.45045681000E+02  0.00000000000E+00 0. -1.
         11    1    3    3    0    0 -0.18440798868E+02 -0.11692974396E+02  0.87408626831E+01  0.23520021127E+02  0.51100000000E-03 0. -1.
        -11    1    3    3    0    0 -0.12673658036E+02 -0.39557795773E+01  0.77243915804E+01  0.15360209166E+02  0.51100000000E-03 0.  1.
         12    1    3    3    0    0 -0.32700846831E+01 -0.53068892383E+01  0.37257757791E+01  0.72620887064E+01  0.00000000000E+00 0. -1.
</event>
<event>
 7    1  0.2328810E-008  0.4614232E+02  0.7816164E-02  0.1320468E+00
        -11   -1    0    0    0    0  0.00000000000E+00  0.00000000000E+00  0.45593999997E+02  0.45594000000E+02  0.51100000000E-03 0.  1.
         11   -1    0    0    0    0 -0.00000000000E+00 -0.00000000000E+00 -0.45593999997E+02  0.45594000000E+02  0.51100000000E-03 0. -1.
    9900012    2    1    2    0    0  0.14126255635E+01 -0.53810311031E+01  0.44700810568E+02  0.46142317941E+02  0.10000001643E+02 0.  0.
         12    1    1    2    0    0 -0.14126255635E+01  0.53810311031E+01 -0.44700810568E+02  0.45045682059E+02  0.00000000000E+00 0. -1.
         11    1    3    3    0    0 -0.16416276412E+01  0.20008769886E+01  0.12209787377E+02  0.12481080004E+02  0.51100000000E-03 0. -1.
        -11    1    3    3    0    0 -0.26515161613E+00 -0.12326670259E+01  0.18864923328E+01  0.22690586063E+01  0.51100000000E-03 0.  1.
        -12    1    3    3    0    0  0.33194048209E+01 -0.61492410659E+01  0.30604530859E+02  0.31392179331E+02  0.00000000000E+00 0.  1.
</event>
<event>
 7    1  0.2328810E-008  0.4614232E+02  0.7816164E-02  0.1320468E+00
        -11   -1    0    0    0    0  0.00000000000E+00  0.00000000000E+00  0.45593999997E+02  0.45594000000E+02  0.51100000000E-03 0.  1.
         11   -1    0    0    0    0 -0.00000000000E+00 -0.00000000000E+00 -0.45593999997E+02  0.45594000000E+02  0.51100000000E-03 0. -1.
    9900012    2    1    2    0    0 -0.35325228791E+00  0.55130704067E+01  0.44705644223E+02  0.46142319210E+02  0.10000013210E+02 0.  0.
         12    1    1    2    0    0  0.35325228791E+00 -0.55130704067E+01 -0.44705644223E+02  0.45045680790E+02  0.00000000000E+00 0. -1.
         11    1    3    3    0    0 -0.13121455233E+01 -0.76964876232E+00  0.21657595747E+01  0.26466204655E+01  0.51100000000E-03 0. -1.
        -11    1    3    3    0    0 -0.24813875035E+01  0.82835514638E+00  0.12839651622E+02  0.13103438870E+02  0.51100000000E-03 0.  1.
         12    1    3    3    0    0  0.34402807389E+01  0.54543640226E+01  0.29700233026E+02  0.30392259874E+02  0.00000000000E+00 0. -1.
</event>
<event>
 7    1  0.2328810E-008  0.4614232E+02  0.7816164E-02  0.1320468E+00
        -11   -1    0    0    0    0  0.00000000000E+00  0.00000000000E+00  0.45593999997E+02  0.45594000000E+02  0.51100000000E-03 0. -1.
         11   -1    0    0    0    0 -0.00000000000E+00 -0.00000000000E+00 -0.45593999997E+02  0.45594000000E+02  0.51100000000E-03 0.  1.
    9900012    2    1    2    0    0  0.14668535290E+02 -0.40749116833E+02 -0.12387778376E+02  0.46142317596E+02  0.99999984911E+01 0.  0.
         12    1    1    2    0    0 -0.14668535290E+02  0.40749116833E+02  0.12387778376E+02  0.45045682404E+02  0.00000000000E+00 0. -1.
         11    1    3    3    0    0  0.18970857735E+00 -0.34793767667E+01  0.10990561041E+01  0.36537619805E+01  0.51100000000E-03 0. -1.
        -11    1    3    3    0    0  0.16683261702E+01 -0.67587715992E+01 -0.63957981891E+00  0.69909490305E+01  0.51100000000E-03 0.  1.
         12    1    3    3    0    0  0.12810500542E+02 -0.30510968467E+02 -0.12847254661E+02  0.35497606585E+02  0.00000000000E+00 0. -1.
</event>
<event>
 7    1  0.2328810E-008  0.4614232E+02  0.7816164E-02  0.1320468E+00
        -11   -1    0    0    0    0  0.00000000000E+00  0.00000000000E+00  0.45593999997E+02  0.45594000000E+02  0.51100000000E-03 0. -1.
         11   -1    0    0    0    0 -0.00000000000E+00 -0.00000000000E+00 -0.45593999997E+02  0.45594000000E+02  0.51100000000E-03 0.  1.
    9900012    2    1    2    0    0  0.24142703083E+02  0.23185861546E+02 -0.30143974613E+02  0.46142317707E+02  0.99999995031E+01 0.  0.
         12    1    1    2    0    0 -0.24142703083E+02 -0.23185861546E+02  0.30143974613E+02  0.45045682293E+02  0.00000000000E+00 0. -1.
         11    1    3    3    0    0  0.51539981382E+01  0.42246615199E+01 -0.41758717272E+01  0.78644368336E+01  0.51100000000E-03 0. -1.
        -11    1    3    3    0    0  0.11956505409E+02  0.15789945083E+02 -0.14891653293E+02  0.24779865322E+02  0.51100000000E-03 0.  1.
         12    1    3    3    0    0  0.70321995360E+01  0.31712549433E+01 -0.11076449593E+02  0.13498015551E+02  0.00000000000E+00 0. -1.
</event>
<event>
 7    1  0.2328810E-008  0.4614232E+02  0.7816164E-02  0.1320468E+00
        -11   -1    0    0    0    0  0.00000000000E+00  0.00000000000E+00  0.45593999997E+02  0.45594000000E+02  0.51100000000E-03 0.  1.
         11   -1    0    0    0    0 -0.00000000000E+00 -0.00000000000E+00 -0.45593999997E+02  0.45594000000E+02  0.51100000000E-03 0. -1.
    9900012    2    1    2    0    0  0.34807844425E+02 -0.31301992092E+01  0.28420578473E+02  0.46142318061E+02  0.10000002737E+02 0.  0.
         12    1    1    2    0    0 -0.34807844425E+02  0.31301992092E+01 -0.28420578473E+02  0.45045681939E+02  0.00000000000E+00 0. -1.
         11    1    3    3    0    0  0.21866173827E+02 -0.35513122565E+01  0.13176405380E+02  0.25775163153E+02  0.51100000000E-03 0. -1.
        -11    1    3    3    0    0  0.46987125075E+01 -0.54623195706E+00  0.30919810761E+01  0.56512490491E+01  0.51100000000E-03 0.  1.
         12    1    3    3    0    0  0.82429580905E+01  0.96734500435E+00  0.12152192017E+02  0.14715905859E+02  0.00000000000E+00 0. -1.
</event>
<event>
 7    1  0.2328810E-008  0.4614232E+02  0.7816164E-02  0.1320468E+00
        -11   -1    0    0    0    0  0.00000000000E+00  0.00000000000E+00  0.45593999997E+02  0.45594000000E+02  0.51100000000E-03 0. -1.
         11   -1    0    0    0    0 -0.00000000000E+00 -0.00000000000E+00 -0.45593999997E+02  0.45594000000E+02  0.51100000000E-03 0.  1.
    9900012    2    1    2    0    0  0.15718040662E+02  0.18234607192E+01 -0.42175011855E+02  0.46142318340E+02  0.10000005281E+02 0.  0.
         12    1    1    2    0    0 -0.15718040662E+02 -0.18234607192E+01  0.42175011855E+02  0.45045681660E+02  0.00000000000E+00 0. -1.
         11    1    3    3    0    0  0.47444397357E+01 -0.85251347865E+00 -0.78385280240E+01  0.92021198362E+01  0.51100000000E-03 0. -1.
        -11    1    3    3    0    0  0.44178252820E+01 -0.24153893762E+01 -0.94762885614E+01  0.10730858830E+02  0.51100000000E-03 0.  1.
         12    1    3    3    0    0  0.65557756440E+01  0.50913635740E+01 -0.24860195269E+02  0.26209339674E+02  0.00000000000E+00 0. -1.
</event>
<event>
 7    1  0.2328810E-008  0.4614232E+02  0.7816164E-02  0.1320468E+00
        -11   -1    0    0    0    0  0.00000000000E+00  0.00000000000E+00  0.45593999997E+02  0.45594000000E+02  0.51100000000E-03 0.  1.
         11   -1    0    0    0    0 -0.00000000000E+00 -0.00000000000E+00 -0.45593999997E+02  0.45594000000E+02  0.51100000000E-03 0. -1.
    9900012    2    1    2    0    0 -0.10770119485E+02  0.37273433162E+02  0.22886876680E+02  0.46142318547E+02  0.10000007166E+02 0.  0.
         12    1    1    2    0    0  0.10770119485E+02 -0.37273433162E+02 -0.22886876680E+02  0.45045681453E+02  0.00000000000E+00 0. -1.
         11    1    3    3    0    0 -0.52103834413E+01  0.20081170595E+02  0.10363403384E+02  0.23190550619E+02  0.51100000000E-03 0. -1.
        -11    1    3    3    0    0  0.10448489132E+01  0.55478779903E+01  0.52846930090E+01  0.77329580309E+01  0.51100000000E-03 0.  1.
        -12    1    3    3    0    0 -0.66045849572E+01  0.11644384577E+02  0.72387802872E+01  0.15218809897E+02  0.00000000000E+00 0.  1.
</event>
<event>
 7    1  0.2328810E-008  0.4614232E+02  0.7816164E-02  0.1320468E+00
        -11   -1    0    0    0    0  0.00000000000E+00  0.00000000000E+00  0.45593999997E+02  0.45594000000E+02  0.51100000000E-03 0. -1.
         11   -1    0    0    0    0 -0.00000000000E+00 -0.00000000000E+00 -0.45593999997E+02  0.45594000000E+02  0.51100000000E-03 0.  1.
    9900012    2    1    2    0    0  0.36829755391E+02 -0.25935054655E+02  0.23581867462E+00  0.46142317048E+02  0.99999934993E+01 0.  0.
         12    1    1    2    0    0 -0.36829755391E+02  0.25935054655E+02 -0.23581867462E+00  0.45045682952E+02  0.00000000000E+00 0. -1.
         11    1    3    3    0    0  0.45606894716E+01 -0.52052779790E+00  0.94010887065E+00  0.46855781494E+01  0.51100000000E-03 0. -1.
        -11    1    3    3    0    0  0.21466840114E+02 -0.17710877029E+02  0.20529952335E+01  0.27905468627E+02  0.51100000000E-03 0.  1.
        -12    1    3    3    0    0  0.10802225806E+02 -0.77036498285E+01 -0.27572854295E+01  0.13551270272E+02  0.00000000000E+00 0.  1.
</event>
<event>
 7    1  0.2328810E-008  0.4614232E+02  0.7816164E-02  0.1320468E+00
        -11   -1    0    0    0    0  0.00000000000E+00  0.00000000000E+00  0.45593999997E+02  0.45594000000E+02  0.51100000000E-03 0.  1.
         11   -1    0    0    0    0 -0.00000000000E+00 -0.00000000000E+00 -0.45593999997E+02  0.45594000000E+02  0.51100000000E-03 0. -1.
    9900012    2    1    2    0    0  0.14496144681E+02  0.32935130971E+02  0.27097091270E+02  0.46142318543E+02  0.10000007127E+02 0.  0.
         12    1    1    2    0    0 -0.14496144681E+02 -0.32935130971E+02 -0.27097091270E+02  0.45045681457E+02  0.00000000000E+00 0. -1.
         11    1    3    3    0    0  0.10677600609E+02  0.12484402703E+02  0.13699436066E+02  0.21390325253E+02  0.51100000000E-03 0. -1.
        -11    1    3    3    0    0  0.22099186311E+01  0.12294029829E+02  0.77128338478E+01  0.14680419477E+02  0.51100000000E-03 0.  1.
         12    1    3    3    0    0  0.16086254408E+01  0.81566984379E+01  0.56848213560E+01  0.10071573813E+02  0.00000000000E+00 0. -1.
</event>
<event>
 7    1  0.2328810E-008  0.4614232E+02  0.7816164E-02  0.1320468E+00
        -11   -1    0    0    0    0  0.00000000000E+00  0.00000000000E+00  0.45593999997E+02  0.45594000000E+02  0.51100000000E-03 0.  1.
         11   -1    0    0    0    0 -0.00000000000E+00 -0.00000000000E+00 -0.45593999997E+02  0.45594000000E+02  0.51100000000E-03 0. -1.
    9900012    2    1    2    0    0 -0.32095611778E+02  0.54839607813E+01  0.31127340772E+02  0.46142318023E+02  0.10000002386E+02 0.  0.
         12    1    1    2    0    0  0.32095611778E+02 -0.54839607813E+01 -0.31127340772E+02  0.45045681977E+02  0.00000000000E+00 0. -1.
         11    1    3    3    0    0 -0.36698259066E+01 -0.16505931158E+01  0.48164373901E+01  0.62761572011E+01  0.51100000000E-03 0. -1.
        -11    1    3    3    0    0 -0.15451454609E+02  0.19252899047E+01  0.17081744315E+02  0.23113636232E+02  0.51100000000E-03 0.  1.
         12    1    3    3    0    0 -0.12974331262E+02  0.52092639924E+01  0.92291590662E+01  0.16752524589E+02  0.00000000000E+00 0. -1.
</event>
<event>
 7    1  0.2328810E-008  0.4614232E+02  0.7816164E-02  0.1320468E+00
        -11   -1    0    0    0    0  0.00000000000E+00  0.00000000000E+00  0.45593999997E+02  0.45594000000E+02  0.51100000000E-03 0.  1.
         11   -1    0    0    0    0 -0.00000000000E+00 -0.00000000000E+00 -0.45593999997E+02  0.45594000000E+02  0.51100000000E-03 0. -1.
    9900012    2    1    2    0    0 -0.35162066935E+02 -0.23075650553E+02  0.16132476872E+02  0.46142318636E+02  0.10000007974E+02 0.  0.
         12    1    1    2    0    0  0.35162066935E+02  0.23075650553E+02 -0.16132476872E+02  0.45045681364E+02  0.00000000000E+00 0. -1.
         11    1    3    3    0    0 -0.10214246338E+01  0.43950223306E+00  0.16147774923E+01  0.19606063108E+01  0.51100000000E-03 0. -1.
        -11    1    3    3    0    0 -0.16135940803E+02 -0.87239599117E+01  0.50081693184E+01  0.19014673868E+02  0.51100000000E-03 0.  1.
        -12    1    3    3    0    0 -0.18004701498E+02 -0.14791192874E+02  0.95095300614E+01  0.25167038456E+02  0.00000000000E+00 0.  1.
</event>
<event>
 7    1  0.2328810E-008  0.4614232E+02  0.7816164E-02  0.1320468E+00
        -11   -1    0    0    0    0  0.00000000000E+00  0.00000000000E+00  0.45593999997E+02  0.45594000000E+02  0.51100000000E-03 0.  1.
         11   -1    0    0    0    0 -0.00000000000E+00 -0.00000000000E+00 -0.45593999997E+02  0.45594000000E+02  0.51100000000E-03 0. -1.
    9900012    2    1    2    0    0  0.89345573250E+01  0.69335884086E+01  0.43602895537E+02  0.46142318053E+02  0.10000002662E+02 0.  0.
         12    1    1    2    0    0 -0.89345573250E+01 -0.69335884086E+01 -0.43602895537E+02  0.45045681947E+02  0.00000000000E+00 0. -1.
         11    1    3    3    0    0  0.35783233971E+01  0.45030757040E+01  0.20551769462E+02  0.21341446001E+02  0.51100000000E-03 0.  1.
        -11    1    3    3    0    0  0.87678530924E+00 -0.23375384990E+01  0.47599485296E+01  0.53749371139E+01  0.51100000000E-03 0. -1.
         12    1    3    3    0    0  0.44794486187E+01  0.47680512036E+01  0.18291177546E+02  0.19425934938E+02  0.00000000000E+00 0. -1.
</event>
<event>
 7    1  0.2328810E-008  0.4614232E+02  0.7816164E-02  0.1320468E+00
        -11   -1    0    0    0    0  0.00000000000E+00  0.00000000000E+00  0.45593999997E+02  0.45594000000E+02  0.51100000000E-03 0.  1.
         11   -1    0    0    0    0 -0.00000000000E+00 -0.00000000000E+00 -0.45593999997E+02  0.45594000000E+02  0.51100000000E-03 0. -1.
    9900012    2    1    2    0    0  0.40123040358E+02  0.98494917034E+00  0.20452013129E+02  0.46142319480E+02  0.10000015677E+02 0.  0.
         12    1    1    2    0    0 -0.40123040358E+02 -0.98494917034E+00 -0.20452013129E+02  0.45045680520E+02  0.00000000000E+00 0. -1.
         11    1    3    3    0    0  0.49313672184E+01 -0.21337739304E+01  0.18915411061E+01  0.56964288678E+01  0.51100000000E-03 0. -1.
        -11    1    3    3    0    0  0.23398774182E+02 -0.10619352150E+01  0.12233677676E+02  0.26425238114E+02  0.51100000000E-03 0.  1.
         12    1    3    3    0    0  0.11792898957E+02  0.41806583158E+01  0.63267943467E+01  0.14020652498E+02  0.00000000000E+00 0. -1.
</event>
<event>
 7    1  0.2328810E-008  0.4614232E+02  0.7816164E-02  0.1320468E+00
        -11   -1    0    0    0    0  0.00000000000E+00  0.00000000000E+00  0.45593999997E+02  0.45594000000E+02  0.51100000000E-03 0. -1.
         11   -1    0    0    0    0 -0.00000000000E+00 -0.00000000000E+00 -0.45593999997E+02  0.45594000000E+02  0.51100000000E-03 0.  1.
    9900012    2    1    2    0    0  0.35124356154E+02  0.13334010769E+02 -0.24851504114E+02  0.46142317686E+02  0.99999993161E+01 0.  0.
         12    1    1    2    0    0 -0.35124356154E+02 -0.13334010769E+02  0.24851504114E+02  0.45045682314E+02  0.00000000000E+00 0. -1.
         11    1    3    3    0    0  0.17212530548E+02  0.47608850525E+01 -0.11975207707E+02  0.21502158827E+02  0.51100000000E-03 0. -1.
        -11    1    3    3    0    0  0.11604823895E+02  0.17919871846E+01 -0.74628748523E+01  0.13913218788E+02  0.51100000000E-03 0.  1.
         12    1    3    3    0    0  0.63070017109E+01  0.67811385318E+01 -0.54134215543E+01  0.10726940071E+02  0.00000000000E+00 0. -1.
</event>
<event>
 7    1  0.2328810E-008  0.4614232E+02  0.7816164E-02  0.1320468E+00
        -11   -1    0    0    0    0  0.00000000000E+00  0.00000000000E+00  0.45593999997E+02  0.45594000000E+02  0.51100000000E-03 0.  1.
         11   -1    0    0    0    0 -0.00000000000E+00 -0.00000000000E+00 -0.45593999997E+02  0.45594000000E+02  0.51100000000E-03 0. -1.
    9900012    2    1    2    0    0 -0.37224325276E+02 -0.45631959743E+01  0.24952755735E+02  0.46142321311E+02  0.10000032370E+02 0.  0.
         12    1    1    2    0    0  0.37224325276E+02  0.45631959743E+01 -0.24952755735E+02  0.45045678689E+02  0.00000000000E+00 0. -1.
         11    1    3    3    0    0 -0.70258888650E+01 -0.38073383085E+01  0.38215719996E+01  0.88579541740E+01  0.51100000000E-03 0. -1.
        -11    1    3    3    0    0 -0.28978597191E+02 -0.16027363121E+01  0.20937128242E+02  0.35786746124E+02  0.51100000000E-03 0.  1.
        -12    1    3    3    0    0 -0.12198392202E+01  0.84687864639E+00  0.19405549399E+00  0.14976210134E+01  0.00000000000E+00 0.  1.
</event>
<event>
 7    1  0.2328810E-008  0.4614231E+02  0.7816164E-02  0.1320468E+00
        -11   -1    0    0    0    0  0.00000000000E+00  0.00000000000E+00  0.45593999997E+02  0.45594000000E+02  0.51100000000E-03 0.  1.
         11   -1    0    0    0    0 -0.00000000000E+00 -0.00000000000E+00 -0.45593999997E+02  0.45594000000E+02  0.51100000000E-03 0. -1.
    9900012    2    1    2    0    0  0.60817597732E+01  0.18706805252E+02  0.40523841205E+02  0.46142311297E+02  0.99999410566E+01 0.  0.
         12    1    1    2    0    0 -0.60817597732E+01 -0.18706805252E+02 -0.40523841205E+02  0.45045688703E+02  0.00000000000E+00 0. -1.
         11    1    3    3    0    0  0.47425606486E+01  0.13695052948E+02  0.29696622208E+02  0.33044450783E+02  0.51100000000E-03 0. -1.
        -11    1    3    3    0    0 -0.67065596765E+00  0.44652176615E+01  0.42579025725E+01  0.62062615776E+01  0.51100000000E-03 0.  1.
         12    1    3    3    0    0  0.20098550923E+01  0.54653464265E+00  0.65693164250E+01  0.68915989364E+01  0.00000000000E+00 0. -1.
</event>
<event>
 7    1  0.2328810E-008  0.4614232E+02  0.7816164E-02  0.1320468E+00
        -11   -1    0    0    0    0  0.00000000000E+00  0.00000000000E+00  0.45593999997E+02  0.45594000000E+02  0.51100000000E-03 0. -1.
         11   -1    0    0    0    0 -0.00000000000E+00 -0.00000000000E+00 -0.45593999997E+02  0.45594000000E+02  0.51100000000E-03 0.  1.
    9900012    2    1    2    0    0 -0.84288105550E+01  0.22444826563E+02 -0.38135264710E+02  0.46142317617E+02  0.99999986867E+01 0.  0.
         12    1    1    2    0    0  0.84288105550E+01 -0.22444826563E+02  0.38135264710E+02  0.45045682383E+02  0.00000000000E+00 0. -1.
         11    1    3    3    0    0 -0.47468537757E+01  0.69350257037E+01 -0.12930971787E+02  0.15421972439E+02  0.51100000000E-03 0.  1.
        -11    1    3    3    0    0 -0.12426168521E+01  0.14997515717E+02 -0.22140293925E+02  0.26770547056E+02  0.51100000000E-03 0. -1.
         12    1    3    3    0    0 -0.24393399271E+01  0.51228514211E+00 -0.30639989980E+01  0.39497981223E+01  0.00000000000E+00 0. -1.
</event>
<event>
 7    1  0.2328810E-008  0.4614232E+02  0.7816164E-02  0.1320468E+00
        -11   -1    0    0    0    0  0.00000000000E+00  0.00000000000E+00  0.45593999997E+02  0.45594000000E+02  0.51100000000E-03 0.  1.
         11   -1    0    0    0    0 -0.00000000000E+00 -0.00000000000E+00 -0.45593999997E+02  0.45594000000E+02  0.51100000000E-03 0. -1.
    9900012    2    1    2    0    0  0.36014142271E+02  0.32066862987E+00  0.27055356703E+02  0.46142316542E+02  0.99999888830E+01 0.  0.
         12    1    1    2    0    0 -0.36014142271E+02 -0.32066862987E+00 -0.27055356703E+02  0.45045683458E+02  0.00000000000E+00 0. -1.
         11    1    3    3    0    0  0.16294536374E+02  0.44891430380E+00  0.10753877877E+02  0.19528423627E+02  0.51100000000E-03 0.  1.
        -11    1    3    3    0    0  0.15928740434E+02 -0.75533112117E+00  0.88692088833E+01  0.18247141239E+02  0.51100000000E-03 0. -1.
         12    1    3    3    0    0  0.37908654632E+01  0.62708544723E+00  0.74322699420E+01  0.83667516761E+01  0.00000000000E+00 0. -1.
</event>
<event>
 7    1  0.2328810E-008  0.4614232E+02  0.7816164E-02  0.1320468E+00
        -11   -1    0    0    0    0  0.00000000000E+00  0.00000000000E+00  0.45593999997E+02  0.45594000000E+02  0.51100000000E-03 0.  1.
         11   -1    0    0    0    0 -0.00000000000E+00 -0.00000000000E+00 -0.45593999997E+02  0.45594000000E+02  0.51100000000E-03 0. -1.
    9900012    2    1    2    0    0 -0.61362836194E+01  0.42020699263E+02  0.15023990564E+02  0.46142318346E+02  0.10000005333E+02 0.  0.
         12    1    1    2    0    0  0.61362836194E+01 -0.42020699263E+02 -0.15023990564E+02  0.45045681654E+02  0.00000000000E+00 0. -1.
         11    1    3    3    0    0  0.75640364858E+00  0.46204007700E+01  0.14831442193E+01  0.49112082823E+01  0.51100000000E-03 0. -1.
        -11    1    3    3    0    0 -0.14423151228E+01  0.20258092592E+02  0.34317663384E+01  0.20597271879E+02  0.51100000000E-03 0.  1.
         12    1    3    3    0    0 -0.54503721452E+01  0.17142205901E+02  0.10109080006E+02  0.20633838185E+02  0.00000000000E+00 0. -1.
</event>
<event>
 7    1  0.2328810E-008  0.4614232E+02  0.7816164E-02  0.1320468E+00
        -11   -1    0    0    0    0  0.00000000000E+00  0.00000000000E+00  0.45593999997E+02  0.45594000000E+02  0.51100000000E-03 0. -1.
         11   -1    0    0    0    0 -0.00000000000E+00 -0.00000000000E+00 -0.45593999997E+02  0.45594000000E+02  0.51100000000E-03 0.  1.
    9900012    2    1    2    0    0  0.30353431468E+02 -0.24329759953E+02 -0.22712232997E+02  0.46142317088E+02  0.99999938631E+01 0.  0.
         12    1    1    2    0    0 -0.30353431468E+02  0.24329759953E+02  0.22712232997E+02  0.45045682912E+02  0.00000000000E+00 0. -1.
         11    1    3    3    0    0  0.10154235991E+02 -0.89642736183E+01 -0.33959802822E+01  0.13964218288E+02  0.51100000000E-03 0. -1.
        -11    1    3    3    0    0  0.16642745584E+02 -0.12239558496E+02 -0.13502170058E+02  0.24679877821E+02  0.51100000000E-03 0.  1.
         12    1    3    3    0    0  0.35564498932E+01 -0.31259278391E+01 -0.58140826568E+01  0.74982209782E+01  0.00000000000E+00 0. -1.
</event>
<event>
 7    1  0.2328810E-008  0.4614232E+02  0.7816164E-02  0.1320468E+00
        -11   -1    0    0    0    0  0.00000000000E+00  0.00000000000E+00  0.45593999997E+02  0.45594000000E+02  0.51100000000E-03 0.  1.
         11   -1    0    0    0    0 -0.00000000000E+00 -0.00000000000E+00 -0.45593999997E+02  0.45594000000E+02  0.51100000000E-03 0. -1.
    9900012    2    1    2    0    0  0.15206286790E+02 -0.79643408188E+00  0.42393961982E+02  0.46142317879E+02  0.10000001074E+02 0.  0.
         12    1    1    2    0    0 -0.15206286790E+02  0.79643408188E+00 -0.42393961982E+02  0.45045682121E+02  0.00000000000E+00 0. -1.
         11    1    3    3    0    0  0.49085954405E+01  0.12161827727E+00  0.22632337194E+02  0.23158838212E+02  0.51100000000E-03 0. -1.
        -11    1    3    3    0    0  0.44740810797E+01  0.16970348056E+01  0.12093941455E+02  0.13006181177E+02  0.51100000000E-03 0.  1.
         12    1    3    3    0    0  0.58236102696E+01 -0.26150871647E+01  0.76676833341E+01  0.99772984902E+01  0.00000000000E+00 0. -1.
</event>
<event>
 7    1  0.2328810E-008  0.4614232E+02  0.7816164E-02  0.1320468E+00
        -11   -1    0    0    0    0  0.00000000000E+00  0.00000000000E+00  0.45593999997E+02  0.45594000000E+02  0.51100000000E-03 0.  1.
         11   -1    0    0    0    0 -0.00000000000E+00 -0.00000000000E+00 -0.45593999997E+02  0.45594000000E+02  0.51100000000E-03 0. -1.
    9900012    2    1    2    0    0 -0.34572657817E+01  0.27963136605E+02  0.35145749250E+02  0.46142318899E+02  0.10000010376E+02 0.  0.
         12    1    1    2    0    0  0.34572657817E+01 -0.27963136605E+02 -0.35145749250E+02  0.45045681101E+02  0.00000000000E+00 0. -1.
         11    1    3    3    0    0 -0.22963652401E+01  0.52905709089E+01  0.84791346224E+01  0.10254713944E+02  0.51100000000E-03 0. -1.
        -11    1    3    3    0    0 -0.13034982378E+01  0.41412875685E+01  0.10244306764E+02  0.11126328762E+02  0.51100000000E-03 0.  1.
         12    1    3    3    0    0  0.14259769627E+00  0.18531278128E+02  0.16422307864E+02  0.24761276194E+02  0.00000000000E+00 0. -1.
</event>
<event>
 7    1  0.2328810E-008  0.4614232E+02  0.7816164E-02  0.1320468E+00
        -11   -1    0    0    0    0  0.00000000000E+00  0.00000000000E+00  0.45593999997E+02  0.45594000000E+02  0.51100000000E-03 0.  1.
         11   -1    0    0    0    0 -0.00000000000E+00 -0.00000000000E+00 -0.45593999997E+02  0.45594000000E+02  0.51100000000E-03 0. -1.
    9900012    2    1    2    0    0 -0.35211302034E+02  0.28006272801E+02  0.22195871637E+01  0.46142315697E+02  0.99999811784E+01 0.  0.
         12    1    1    2    0    0  0.35211302034E+02 -0.28006272801E+02 -0.22195871637E+01  0.45045684303E+02  0.00000000000E+00 0. -1.
         11    1    3    3    0    0 -0.69025037052E+01  0.10024144913E+02  0.14193585637E+01  0.12253269671E+02  0.51100000000E-03 0. -1.
        -11    1    3    3    0    0 -0.36596354954E+01  0.65502236539E+00  0.54904841344E+00  0.37581166400E+01  0.51100000000E-03 0.  1.
        -12    1    3    3    0    0 -0.24649162834E+02  0.17327105523E+02  0.25118018656E+00  0.30130929386E+02  0.00000000000E+00 0.  1.
</event>
<event>
 7    1  0.2328810E-008  0.4614232E+02  0.7816164E-02  0.1320468E+00
        -11   -1    0    0    0    0  0.00000000000E+00  0.00000000000E+00  0.45593999997E+02  0.45594000000E+02  0.51100000000E-03 0.  1.
         11   -1    0    0    0    0 -0.00000000000E+00 -0.00000000000E+00 -0.45593999997E+02  0.45594000000E+02  0.51100000000E-03 0. -1.
    9900012    2    1    2    0    0 -0.28554590950E+02 -0.10389077543E+02  0.33253809768E+02  0.46142318069E+02  0.10000002810E+02 0.  0.
         12    1    1    2    0    0  0.28554590950E+02  0.10389077543E+02 -0.33253809768E+02  0.45045681931E+02  0.00000000000E+00 0. -1.
         11    1    3    3    0    0 -0.16580351443E+01 -0.44689240260E+00  0.31775654371E+01  0.36118853425E+01  0.51100000000E-03 0. -1.
        -11    1    3    3    0    0 -0.22175457022E+02 -0.58091232128E+01  0.27357412263E+02  0.35692083332E+02  0.51100000000E-03 0.  1.
        -12    1    3    3    0    0 -0.47210987842E+01 -0.41330619275E+01  0.27188320679E+01  0.68383493944E+01  0.00000000000E+00 0.  1.
</event>
<event>
 7    1  0.2328810E-008  0.4614232E+02  0.7816164E-02  0.1320468E+00
        -11   -1    0    0    0    0  0.00000000000E+00  0.00000000000E+00  0.45593999997E+02  0.45594000000E+02  0.51100000000E-03 0. -1.
         11   -1    0    0    0    0 -0.00000000000E+00 -0.00000000000E+00 -0.45593999997E+02  0.45594000000E+02  0.51100000000E-03 0.  1.
    9900012    2    1    2    0    0  0.19352874948E+02  0.40659585002E+02  0.11738813883E+01  0.46142316313E+02  0.99999867952E+01 0.  0.
         12    1    1    2    0    0 -0.19352874948E+02 -0.40659585002E+02 -0.11738813883E+01  0.45045683687E+02  0.00000000000E+00 0. -1.
         11    1    3    3    0    0  0.80720298253E+01  0.18554281441E+02 -0.89742919427E+00  0.20253997253E+02  0.51100000000E-03 0.  1.
        -11    1    3    3    0    0  0.90266293868E+01  0.11919003367E+02  0.35073048839E+01  0.15357208964E+02  0.51100000000E-03 0. -1.
         12    1    3    3    0    0  0.22542157361E+01  0.10186300194E+02 -0.14359943013E+01  0.10531110096E+02  0.00000000000E+00 0. -1.
</event>
<event>
 7    1  0.2328810E-008  0.4614232E+02  0.7816164E-02  0.1320468E+00
        -11   -1    0    0    0    0  0.00000000000E+00  0.00000000000E+00  0.45593999997E+02  0.45594000000E+02  0.51100000000E-03 0.  1.
         11   -1    0    0    0    0 -0.00000000000E+00 -0.00000000000E+00 -0.45593999997E+02  0.45594000000E+02  0.51100000000E-03 0. -1.
    9900012    2    1    2    0    0 -0.31688134289E+02 -0.15249239905E+02  0.28150241812E+02  0.46142320002E+02  0.10000020439E+02 0.  0.
         12    1    1    2    0    0  0.31688134289E+02  0.15249239905E+02 -0.28150241812E+02  0.45045679998E+02  0.00000000000E+00 0. -1.
         11    1    3    3    0    0 -0.17997812319E+02 -0.88294748794E+01  0.13762837990E+02  0.24316590730E+02  0.51100000000E-03 0. -1.
        -11    1    3    3    0    0 -0.11449580973E+02 -0.41483726987E+01  0.14086822261E+02  0.18620968347E+02  0.51100000000E-03 0.  1.
         12    1    3    3    0    0 -0.22407409968E+01 -0.22713923268E+01  0.30058156081E+00  0.32047609258E+01  0.00000000000E+00 0. -1.
</event>
<event>
 7    1  0.2328810E-008  0.4614232E+02  0.7816164E-02  0.1320468E+00
        -11   -1    0    0    0    0  0.00000000000E+00  0.00000000000E+00  0.45593999997E+02  0.45594000000E+02  0.51100000000E-03 0.  1.
         11   -1    0    0    0    0 -0.00000000000E+00 -0.00000000000E+00 -0.45593999997E+02  0.45594000000E+02  0.51100000000E-03 0. -1.
    9900012    2    1    2    0    0 -0.27231641572E+02 -0.19814317534E+02  0.29915613046E+02  0.46142318898E+02  0.10000010363E+02 0.  0.
         12    1    1    2    0    0  0.27231641572E+02  0.19814317534E+02 -0.29915613046E+02  0.45045681102E+02  0.00000000000E+00 0. -1.
         11    1    3    3    0    0 -0.15195301679E+02 -0.10705883220E+02  0.16349889046E+02  0.24755443860E+02  0.51100000000E-03 0. -1.
        -11    1    3    3    0    0 -0.63588787807E+01 -0.87179484331E+01  0.96773730856E+01  0.14494464955E+02  0.51100000000E-03 0.  1.
         12    1    3    3    0    0 -0.56774611123E+01 -0.39048588022E+00  0.38883509149E+01  0.68924100822E+01  0.00000000000E+00 0. -1.
</event>
<event>
 7    1  0.2328810E-008  0.4614232E+02  0.7816164E-02  0.1320468E+00
        -11   -1    0    0    0    0  0.00000000000E+00  0.00000000000E+00  0.45593999997E+02  0.45594000000E+02  0.51100000000E-03 0. -1.
         11   -1    0    0    0    0 -0.00000000000E+00 -0.00000000000E+00 -0.45593999997E+02  0.45594000000E+02  0.51100000000E-03 0.  1.
    9900012    2    1    2    0    0 -0.23279246287E+02  0.18672193741E+02 -0.33742248726E+02  0.46142317900E+02  0.10000001265E+02 0.  0.
         12    1    1    2    0    0  0.23279246287E+02 -0.18672193741E+02  0.33742248726E+02  0.45045682100E+02  0.00000000000E+00 0. -1.
         11    1    3    3    0    0 -0.64859663551E+01  0.82451631862E+01 -0.78172035963E+01  0.13082780586E+02  0.51100000000E-03 0. -1.
        -11    1    3    3    0    0 -0.82704556092E+00  0.12936132555E+01 -0.48457371796E+01  0.50831691581E+01  0.51100000000E-03 0.  1.
         12    1    3    3    0    0 -0.15966234371E+02  0.91334172992E+01 -0.21079307950E+02  0.27976368156E+02  0.00000000000E+00 0. -1.
</event>
<event>
 7    1  0.2328810E-008  0.4614231E+02  0.7816164E-02  0.1320468E+00
        -11   -1    0    0    0    0  0.00000000000E+00  0.00000000000E+00  0.45593999997E+02  0.45594000000E+02  0.51100000000E-03 0.  1.
         11   -1    0    0    0    0 -0.00000000000E+00 -0.00000000000E+00 -0.45593999997E+02  0.45594000000E+02  0.51100000000E-03 0. -1.
    9900012    2    1    2    0    0  0.41794189984E+02  0.15868033827E+02 -0.55285830794E+01  0.46142311584E+02  0.99999436765E+01 0.  0.
         12    1    1    2    0    0 -0.41794189984E+02 -0.15868033827E+02  0.55285830794E+01  0.45045688416E+02  0.00000000000E+00 0. -1.
         11    1    3    3    0    0  0.33051124139E+02  0.10696708596E+02 -0.55789245237E+01  0.35184098407E+02  0.51100000000E-03 0. -1.
        -11    1    3    3    0    0  0.64221475869E+01  0.38579695653E+01 -0.18091143835E+01  0.77071917005E+01  0.51100000000E-03 0.  1.
         12    1    3    3    0    0  0.23209182580E+01  0.13133556660E+01  0.18594558277E+01  0.32510214766E+01  0.00000000000E+00 0. -1.
</event>
<event>
 7    1  0.2328810E-008  0.4614232E+02  0.7816164E-02  0.1320468E+00
        -11   -1    0    0    0    0  0.00000000000E+00  0.00000000000E+00  0.45593999997E+02  0.45594000000E+02  0.51100000000E-03 0. -1.
         11   -1    0    0    0    0 -0.00000000000E+00 -0.00000000000E+00 -0.45593999997E+02  0.45594000000E+02  0.51100000000E-03 0.  1.
    9900012    2    1    2    0    0  0.24595217306E+02  0.25503356311E+02 -0.27816678262E+02  0.46142317777E+02  0.10000000145E+02 0.  0.
         12    1    1    2    0    0 -0.24595217306E+02 -0.25503356311E+02  0.27816678262E+02  0.45045682223E+02  0.00000000000E+00 0. -1.
         11    1    3    3    0    0  0.84943360748E+01  0.80399166272E+01 -0.13623950260E+02  0.17955668344E+02  0.51100000000E-03 0. -1.
        -11    1    3    3    0    0  0.65656546868E+01  0.78472723218E+01 -0.91806404638E+01  0.13746696474E+02  0.51100000000E-03 0.  1.
         12    1    3    3    0    0  0.95352265440E+01  0.96161673617E+01 -0.50120875375E+01  0.14439952959E+02  0.00000000000E+00 0. -1.
</event>
<event>
 7    1  0.2328810E-008  0.4614232E+02  0.7816164E-02  0.1320468E+00
        -11   -1    0    0    0    0  0.00000000000E+00  0.00000000000E+00  0.45593999997E+02  0.45594000000E+02  0.51100000000E-03 0. -1.
         11   -1    0    0    0    0 -0.00000000000E+00 -0.00000000000E+00 -0.45593999997E+02  0.45594000000E+02  0.51100000000E-03 0.  1.
    9900012    2    1    2    0    0 -0.40102401462E+02  0.20227725294E+01 -0.20416151265E+02  0.46142318251E+02  0.10000004467E+02 0.  0.
         12    1    1    2    0    0  0.40102401462E+02 -0.20227725294E+01  0.20416151265E+02  0.45045681749E+02  0.00000000000E+00 0. -1.
         11    1    3    3    0    0 -0.13111826409E+02  0.28389590783E+00 -0.39260428893E+01  0.13689937972E+02  0.51100000000E-03 0. -1.
        -11    1    3    3    0    0 -0.98675682151E+01 -0.48728395354E-01 -0.22760467067E+01  0.10126779637E+02  0.51100000000E-03 0.  1.
         12    1    3    3    0    0 -0.17123006838E+02  0.17876050169E+01 -0.14214061669E+02  0.22325600642E+02  0.00000000000E+00 0. -1.
</event>
<event>
 7    1  0.2328810E-008  0.4614232E+02  0.7816164E-02  0.1320468E+00
        -11   -1    0    0    0    0  0.00000000000E+00  0.00000000000E+00  0.45593999997E+02  0.45594000000E+02  0.51100000000E-03 0.  1.
         11   -1    0    0    0    0 -0.00000000000E+00 -0.00000000000E+00 -0.45593999997E+02  0.45594000000E+02  0.51100000000E-03 0. -1.
    9900012    2    1    2    0    0 -0.36677964726E+02  0.15976824685E+02  0.20702208836E+02  0.46142317919E+02  0.10000001440E+02 0.  0.
         12    1    1    2    0    0  0.36677964726E+02 -0.15976824685E+02 -0.20702208836E+02  0.45045682081E+02  0.00000000000E+00 0. -1.
         11    1    3    3    0    0 -0.22943687079E+01  0.11503420891E+01 -0.68303002782E+00  0.26559263864E+01  0.51100000000E-03 0. -1.
        -11    1    3    3    0    0 -0.31024240108E+02  0.12489616922E+02  0.17103496800E+02  0.37563594187E+02  0.51100000000E-03 0.  1.
        -12    1    3    3    0    0 -0.33593559097E+01  0.23368656741E+01  0.42817420633E+01  0.59227973461E+01  0.00000000000E+00 0.  1.
</event>
<event>
 7    1  0.2328810E-008  0.4614232E+02  0.7816164E-02  0.1320468E+00
        -11   -1    0    0    0    0  0.00000000000E+00  0.00000000000E+00  0.45593999997E+02  0.45594000000E+02  0.51100000000E-03 0.  1.
         11   -1    0    0    0    0 -0.00000000000E+00 -0.00000000000E+00 -0.45593999997E+02  0.45594000000E+02  0.51100000000E-03 0. -1.
    9900012    2    1    2    0    0 -0.11063333060E+02  0.13300866234E+02  0.41590902248E+02  0.46142317291E+02  0.99999957092E+01 0.  0.
         12    1    1    2    0    0  0.11063333060E+02 -0.13300866234E+02 -0.41590902248E+02  0.45045682709E+02  0.00000000000E+00 0. -1.
         11    1    3    3    0    0 -0.17900564108E+01  0.65330432031E+01  0.12521492396E+02  0.14236317204E+02  0.51100000000E-03 0. -1.
        -11    1    3    3    0    0  0.31284835101E+00  0.54051346060E-01 -0.20565154270E+00  0.37827034893E+00  0.51100000000E-03 0.  1.
        -12    1    3    3    0    0 -0.95861250006E+01  0.67137716844E+01  0.29275061394E+02  0.31527729738E+02  0.00000000000E+00 0.  1.
</event>
<event>
 7    1  0.2328810E-008  0.4614232E+02  0.7816164E-02  0.1320468E+00
        -11   -1    0    0    0    0  0.00000000000E+00  0.00000000000E+00  0.45593999997E+02  0.45594000000E+02  0.51100000000E-03 0.  1.
         11   -1    0    0    0    0 -0.00000000000E+00 -0.00000000000E+00 -0.45593999997E+02  0.45594000000E+02  0.51100000000E-03 0. -1.
    9900012    2    1    2    0    0  0.30662999371E+02  0.28138810878E+02  0.17236626698E+02  0.46142317544E+02  0.99999980169E+01 0.  0.
         12    1    1    2    0    0 -0.30662999371E+02 -0.28138810878E+02 -0.17236626698E+02  0.45045682456E+02  0.00000000000E+00 0. -1.
         11    1    3    3    0    0  0.27180733527E+02  0.26133604502E+02  0.15279720795E+02  0.40684486321E+02  0.51100000000E-03 0.  1.
        -11    1    3    3    0    0  0.43989908720E+00  0.17527018310E+01 -0.44196840364E-01  0.18076029810E+01  0.51100000000E-03 0. -1.
        -12    1    3    3    0    0  0.30423667568E+01  0.25250454425E+00  0.20011027433E+01  0.36502282418E+01  0.00000000000E+00 0.  1.
</event>
<event>
 7    1  0.2328810E-008  0.4614232E+02  0.7816164E-02  0.1320468E+00
        -11   -1    0    0    0    0  0.00000000000E+00  0.00000000000E+00  0.45593999997E+02  0.45594000000E+02  0.51100000000E-03 0.  1.
         11   -1    0    0    0    0 -0.00000000000E+00 -0.00000000000E+00 -0.45593999997E+02  0.45594000000E+02  0.51100000000E-03 0. -1.
    9900012    2    1    2    0    0  0.34477608718E+02 -0.28385948775E+02  0.58860795022E+01  0.46142317381E+02  0.99999965305E+01 0.  0.
         12    1    1    2    0    0 -0.34477608718E+02  0.28385948775E+02 -0.58860795022E+01  0.45045682619E+02  0.00000000000E+00 0. -1.
         11    1    3    3    0    0  0.21294226477E+01 -0.39287900312E+01 -0.14346890794E+00  0.44710642481E+01  0.51100000000E-03 0. -1.
        -11    1    3    3    0    0  0.18776046747E+02 -0.11666291525E+02  0.11281143047E+00  0.22105542655E+02  0.51100000000E-03 0.  1.
        -12    1    3    3    0    0  0.13572139324E+02 -0.12790867218E+02  0.59167369797E+01  0.19565710478E+02  0.00000000000E+00 0.  1.
</event>
<event>
 7    1  0.2328810E-008  0.4614232E+02  0.7816164E-02  0.1320468E+00
        -11   -1    0    0    0    0  0.00000000000E+00  0.00000000000E+00  0.45593999997E+02  0.45594000000E+02  0.51100000000E-03 0.  1.
         11   -1    0    0    0    0 -0.00000000000E+00 -0.00000000000E+00 -0.45593999997E+02  0.45594000000E+02  0.51100000000E-03 0. -1.
    9900012    2    1    2    0    0 -0.14334778985E+01 -0.74174942308E+01  0.44407650240E+02  0.46142317861E+02  0.10000000911E+02 0.  0.
         12    1    1    2    0    0  0.14334778985E+01  0.74174942308E+01 -0.44407650240E+02  0.45045682139E+02  0.00000000000E+00 0. -1.
         11    1    3    3    0    0  0.15092134020E+01 -0.34703556559E+01  0.88583926331E+01  0.96328715228E+01  0.51100000000E-03 0.  1.
        -11    1    3    3    0    0 -0.11402703324E+01 -0.34097895009E+00  0.60816376651E+00  0.13365427428E+01  0.51100000000E-03 0. -1.
         12    1    3    3    0    0 -0.18024209681E+01 -0.36061596248E+01  0.34941093840E+02  0.35172903595E+02  0.00000000000E+00 0. -1.
</event>
<event>
 7    1  0.2328810E-008  0.4614232E+02  0.7816164E-02  0.1320468E+00
        -11   -1    0    0    0    0  0.00000000000E+00  0.00000000000E+00  0.45593999997E+02  0.45594000000E+02  0.51100000000E-03 0.  1.
         11   -1    0    0    0    0 -0.00000000000E+00 -0.00000000000E+00 -0.45593999997E+02  0.45594000000E+02  0.51100000000E-03 0. -1.
    9900012    2    1    2    0    0  0.35713626693E+01 -0.41507447397E+02  0.17131569929E+02  0.46142317532E+02  0.99999979143E+01 0.  0.
         12    1    1    2    0    0 -0.35713626693E+01  0.41507447397E+02 -0.17131569929E+02  0.45045682468E+02  0.00000000000E+00 0. -1.
         11    1    3    3    0    0  0.13014386312E+01 -0.13982872307E+02  0.89941124946E+01  0.16676585990E+02  0.51100000000E-03 0. -1.
        -11    1    3    3    0    0  0.29155784693E+01 -0.11393458489E+02  0.59313828395E+01  0.13171666440E+02  0.51100000000E-03 0.  1.
         12    1    3    3    0    0 -0.64565443111E+00 -0.16131116601E+02  0.22060745952E+01  0.16294065102E+02  0.00000000000E+00 0. -1.
</event>
<event>
 7    1  0.2328810E-008  0.4614232E+02  0.7816164E-02  0.1320468E+00
        -11   -1    0    0    0    0  0.00000000000E+00  0.00000000000E+00  0.45593999997E+02  0.45594000000E+02  0.51100000000E-03 0.  1.
         11   -1    0    0    0    0 -0.00000000000E+00 -0.00000000000E+00 -0.45593999997E+02  0.45594000000E+02  0.51100000000E-03 0. -1.
    9900012    2    1    2    0    0 -0.35126596646E+02 -0.23805847980E+02  0.15116790538E+02  0.46142317120E+02  0.99999941519E+01 0.  0.
         12    1    1    2    0    0  0.35126596646E+02  0.23805847980E+02 -0.15116790538E+02  0.45045682880E+02  0.00000000000E+00 0. -1.
         11    1    3    3    0    0 -0.20055785006E+01 -0.31357925746E-01  0.11898545528E+01  0.23321840750E+01  0.51100000000E-03 0. -1.
        -11    1    3    3    0    0 -0.69152929625E+01 -0.33300390707E+01  0.57265295336E+01  0.95761985010E+01  0.51100000000E-03 0.  1.
        -12    1    3    3    0    0 -0.26205725183E+02 -0.20444450984E+02  0.82004064514E+01  0.34233934544E+02  0.00000000000E+00 0.  1.
</event>
<event>
 7    1  0.2328810E-008  0.4614232E+02  0.7816164E-02  0.1320468E+00
        -11   -1    0    0    0    0  0.00000000000E+00  0.00000000000E+00  0.45593999997E+02  0.45594000000E+02  0.51100000000E-03 0.  1.
         11   -1    0    0    0    0 -0.00000000000E+00 -0.00000000000E+00 -0.45593999997E+02  0.45594000000E+02  0.51100000000E-03 0. -1.
    9900012    2    1    2    0    0  0.42205471049E+02 -0.12900877682E+02 -0.90210394233E+01  0.46142316703E+02  0.99999903499E+01 0.  0.
         12    1    1    2    0    0 -0.42205471049E+02  0.12900877682E+02  0.90210394233E+01  0.45045683297E+02  0.00000000000E+00 0. -1.
         11    1    3    3    0    0  0.11482277560E+02 -0.60006448119E+00 -0.49107378818E+01  0.12502724589E+02  0.51100000000E-03 0. -1.
        -11    1    3    3    0    0  0.63167247981E+01 -0.17286465247E+01 -0.24419817548E+01  0.69894567839E+01  0.51100000000E-03 0.  1.
        -12    1    3    3    0    0  0.24406468691E+02 -0.10572166676E+02 -0.16683197867E+01  0.26650135330E+02  0.00000000000E+00 0.  1.
</event>
<event>
 7    1  0.2328810E-008  0.4614232E+02  0.7816164E-02  0.1320468E+00
        -11   -1    0    0    0    0  0.00000000000E+00  0.00000000000E+00  0.45593999997E+02  0.45594000000E+02  0.51100000000E-03 0.  1.
         11   -1    0    0    0    0 -0.00000000000E+00 -0.00000000000E+00 -0.45593999997E+02  0.45594000000E+02  0.51100000000E-03 0. -1.
    9900012    2    1    2    0    0 -0.34461676355E+02 -0.63547188836E+01 -0.28304132602E+02  0.46142317503E+02  0.99999976456E+01 0.  0.
         12    1    1    2    0    0  0.34461676355E+02  0.63547188836E+01  0.28304132602E+02  0.45045682497E+02  0.00000000000E+00 0. -1.
         11    1    3    3    0    0 -0.39403846762E+00  0.18144332865E+00  0.75436150519E+00  0.87020086021E+00  0.51100000000E-03 0. -1.
        -11    1    3    3    0    0 -0.63951936901E+01 -0.71842557460E+00 -0.56094826007E+01  0.85370330296E+01  0.51100000000E-03 0.  1.
         12    1    3    3    0    0 -0.27672444197E+02 -0.58177366377E+01 -0.23449011506E+02  0.36735083613E+02  0.00000000000E+00 0. -1.
</event>
<event>
 7    1  0.2328810E-008  0.4614232E+02  0.7816164E-02  0.1320468E+00
        -11   -1    0    0    0    0  0.00000000000E+00  0.00000000000E+00  0.45593999997E+02  0.45594000000E+02  0.51100000000E-03 0.  1.
         11   -1    0    0    0    0 -0.00000000000E+00 -0.00000000000E+00 -0.45593999997E+02  0.45594000000E+02  0.51100000000E-03 0. -1.
    9900012    2    1    2    0    0  0.17899624104E+02 -0.28912234009E+02  0.29543184003E+02  0.46142317193E+02  0.99999948208E+01 0.  0.
         12    1    1    2    0    0 -0.17899624104E+02  0.28912234009E+02 -0.29543184003E+02  0.45045682807E+02  0.00000000000E+00 0. -1.
         11    1    3    3    0    0  0.52243344650E+01 -0.65801069661E+01  0.31658568615E+01  0.89785370866E+01  0.51100000000E-03 0. -1.
        -11    1    3    3    0    0  0.91045651325E+01 -0.18362730762E+02  0.18272877266E+02  0.27458715031E+02  0.51100000000E-03 0.  1.
         12    1    3    3    0    0  0.35707245066E+01 -0.39693962814E+01  0.81044498756E+01  0.97050650758E+01  0.00000000000E+00 0. -1.
</event>
<event>
 7    1  0.2328810E-008  0.4614232E+02  0.7816164E-02  0.1320468E+00
        -11   -1    0    0    0    0  0.00000000000E+00  0.00000000000E+00  0.45593999997E+02  0.45594000000E+02  0.51100000000E-03 0. -1.
         11   -1    0    0    0    0 -0.00000000000E+00 -0.00000000000E+00 -0.45593999997E+02  0.45594000000E+02  0.51100000000E-03 0.  1.
    9900012    2    1    2    0    0 -0.91931789961E+01 -0.26565618448E+02 -0.35197540907E+02  0.46142317527E+02  0.99999978637E+01 0.  0.
         12    1    1    2    0    0  0.91931789961E+01  0.26565618448E+02  0.35197540907E+02  0.45045682473E+02  0.00000000000E+00 0. -1.
         11    1    3    3    0    0 -0.92867897212E+00 -0.28630666299E+01 -0.54571437417E+00  0.30589866950E+01  0.51100000000E-03 0. -1.
        -11    1    3    3    0    0 -0.16561296057E+01 -0.31322542063E+01 -0.81750674392E+01  0.89098546329E+01  0.51100000000E-03 0.  1.
        -12    1    3    3    0    0 -0.66083704184E+01 -0.20570297612E+02 -0.26476759094E+02  0.34173476199E+02  0.00000000000E+00 0.  1.
</event>
<event>
 7    1  0.2328810E-008  0.4614232E+02  0.7816164E-02  0.1320468E+00
        -11   -1    0    0    0    0  0.00000000000E+00  0.00000000000E+00  0.45593999997E+02  0.45594000000E+02  0.51100000000E-03 0.  1.
         11   -1    0    0    0    0 -0.00000000000E+00 -0.00000000000E+00 -0.45593999997E+02  0.45594000000E+02  0.51100000000E-03 0. -1.
    9900012    2    1    2    0    0  0.83050444424E+01  0.32657060463E+02  0.29894082077E+02  0.46142317582E+02  0.99999983665E+01 0.  0.
         12    1    1    2    0    0 -0.83050444424E+01 -0.32657060463E+02 -0.29894082077E+02  0.45045682418E+02  0.00000000000E+00 0. -1.
         11    1    3    3    0    0 -0.47319903072E+00  0.39057226542E+00  0.22825840708E+00  0.65464966105E+00  0.51100000000E-03 0. -1.
        -11    1    3    3    0    0  0.33575871937E+01  0.66806378847E+01  0.27733994160E+01  0.79747137185E+01  0.51100000000E-03 0.  1.
        -12    1    3    3    0    0  0.54206562794E+01  0.25585850313E+02  0.26892424254E+02  0.37512954202E+02  0.00000000000E+00 0.  1.
</event>
<event>
 7    1  0.2328810E-008  0.4614232E+02  0.7816164E-02  0.1320468E+00
        -11   -1    0    0    0    0  0.00000000000E+00  0.00000000000E+00  0.45593999997E+02  0.45594000000E+02  0.51100000000E-03 0.  1.
         11   -1    0    0    0    0 -0.00000000000E+00 -0.00000000000E+00 -0.45593999997E+02  0.45594000000E+02  0.51100000000E-03 0. -1.
    9900012    2    1    2    0    0  0.29400412641E+02  0.38446939008E+01  0.33910876493E+02  0.46142317863E+02  0.10000000928E+02 0.  0.
         12    1    1    2    0    0 -0.29400412641E+02 -0.38446939008E+01 -0.33910876493E+02  0.45045682137E+02  0.00000000000E+00 0. -1.
         11    1    3    3    0    0  0.73088879039E+01  0.30330179503E+01  0.10428433348E+02  0.13090884716E+02  0.51100000000E-03 0. -1.
        -11    1    3    3    0    0  0.14310507564E+02  0.20525446049E+01  0.19349905575E+02  0.24154138613E+02  0.51100000000E-03 0.  1.
         12    1    3    3    0    0  0.77810171731E+01 -0.12408686544E+01  0.41325375694E+01  0.88972945342E+01  0.00000000000E+00 0. -1.
</event>
<event>
 7    1  0.2328810E-008  0.4614232E+02  0.7816164E-02  0.1320468E+00
        -11   -1    0    0    0    0  0.00000000000E+00  0.00000000000E+00  0.45593999997E+02  0.45594000000E+02  0.51100000000E-03 0. -1.
         11   -1    0    0    0    0 -0.00000000000E+00 -0.00000000000E+00 -0.45593999997E+02  0.45594000000E+02  0.51100000000E-03 0.  1.
    9900012    2    1    2    0    0  0.27472625182E+02 -0.25377973212E+02 -0.25106311079E+02  0.46142317468E+02  0.99999973310E+01 0.  0.
         12    1    1    2    0    0 -0.27472625182E+02  0.25377973212E+02  0.25106311079E+02  0.45045682532E+02  0.00000000000E+00 0. -1.
         11    1    3    3    0    0  0.15729171091E+02 -0.17496109926E+02 -0.14423627194E+02  0.27596407510E+02  0.51100000000E-03 0. -1.
        -11    1    3    3    0    0  0.68715099191E+01 -0.54673687302E+01 -0.33085225473E+01  0.93838207094E+01  0.51100000000E-03 0.  1.
        -12    1    3    3    0    0  0.48719441718E+01 -0.24144945557E+01 -0.73741613378E+01  0.91620892491E+01  0.00000000000E+00 0.  1.
</event>
<event>
 7    1  0.2328810E-008  0.4614232E+02  0.7816164E-02  0.1320468E+00
        -11   -1    0    0    0    0  0.00000000000E+00  0.00000000000E+00  0.45593999997E+02  0.45594000000E+02  0.51100000000E-03 0. -1.
         11   -1    0    0    0    0 -0.00000000000E+00 -0.00000000000E+00 -0.45593999997E+02  0.45594000000E+02  0.51100000000E-03 0.  1.
    9900012    2    1    2    0    0  0.43157991859E+02  0.11955064161E+02 -0.48556848730E+01  0.46142317677E+02  0.99999992336E+01 0.  0.
         12    1    1    2    0    0 -0.43157991859E+02 -0.11955064161E+02  0.48556848730E+01  0.45045682323E+02  0.00000000000E+00 0. -1.
         11    1    3    3    0    0  0.17756196689E+01 -0.10502583638E+01 -0.16326651711E+01  0.26308674732E+01  0.51100000000E-03 0. -1.
        -11    1    3    3    0    0  0.22493919912E+02  0.65361608959E+01 -0.15289315598E+01  0.23474144590E+02  0.51100000000E-03 0.  1.
         12    1    3    3    0    0  0.18888452278E+02  0.64691616285E+01 -0.16940881421E+01  0.20037305614E+02  0.00000000000E+00 0. -1.
</event>
<event>
 7    1  0.2328810E-008  0.4614232E+02  0.7816164E-02  0.1320468E+00
        -11   -1    0    0    0    0  0.00000000000E+00  0.00000000000E+00  0.45593999997E+02  0.45594000000E+02  0.51100000000E-03 0.  1.
         11   -1    0    0    0    0 -0.00000000000E+00 -0.00000000000E+00 -0.45593999997E+02  0.45594000000E+02  0.51100000000E-03 0. -1.
    9900012    2    1    2    0    0  0.21789415492E+02  0.12915066341E+02  0.37249644493E+02  0.46142316734E+02  0.99999906299E+01 0.  0.
         12    1    1    2    0    0 -0.21789415492E+02 -0.12915066341E+02 -0.37249644493E+02  0.45045683266E+02  0.00000000000E+00 0. -1.
         11    1    3    3    0    0  0.28165500492E+01  0.39972115593E+01  0.12676341329E+02  0.13586768717E+02  0.51100000000E-03 0. -1.
        -11    1    3    3    0    0  0.38962778999E+01  0.26434793602E+01  0.33580426250E+01  0.57832011148E+01  0.51100000000E-03 0.  1.
        -12    1    3    3    0    0  0.15076587543E+02  0.62743754218E+01  0.21215260539E+02  0.26772346901E+02  0.00000000000E+00 0.  1.
</event>
<event>
 7    1  0.2328810E-008  0.4614232E+02  0.7816164E-02  0.1320468E+00
        -11   -1    0    0    0    0  0.00000000000E+00  0.00000000000E+00  0.45593999997E+02  0.45594000000E+02  0.51100000000E-03 0.  1.
         11   -1    0    0    0    0 -0.00000000000E+00 -0.00000000000E+00 -0.45593999997E+02  0.45594000000E+02  0.51100000000E-03 0. -1.
    9900012    2    1    2    0    0  0.13055944022E+02 -0.40085760189E+02  0.15867818589E+02  0.46142317510E+02  0.99999977090E+01 0.  0.
         12    1    1    2    0    0 -0.13055944022E+02  0.40085760189E+02 -0.15867818589E+02  0.45045682490E+02  0.00000000000E+00 0. -1.
         11    1    3    3    0    0  0.47845418338E+01 -0.14519891637E+02  0.11699466070E+01  0.15332575421E+02  0.51100000000E-03 0. -1.
        -11    1    3    3    0    0  0.56139622696E+00 -0.59245543048E+01  0.26772933032E+01  0.65255964575E+01  0.51100000000E-03 0.  1.
         12    1    3    3    0    0  0.77100059617E+01 -0.19641314247E+02  0.12020578679E+02  0.24284145631E+02  0.00000000000E+00 0. -1.
</event>
<event>
 7    1  0.2328810E-008  0.4614232E+02  0.7816164E-02  0.1320468E+00
        -11   -1    0    0    0    0  0.00000000000E+00  0.00000000000E+00  0.45593999997E+02  0.45594000000E+02  0.51100000000E-03 0.  1.
         11   -1    0    0    0    0 -0.00000000000E+00 -0.00000000000E+00 -0.45593999997E+02  0.45594000000E+02  0.51100000000E-03 0. -1.
    9900012    2    1    2    0    0  0.89843117846E+01  0.14289041551E+02  0.41763847443E+02  0.46142317410E+02  0.99999968023E+01 0.  0.
         12    1    1    2    0    0 -0.89843117846E+01 -0.14289041551E+02 -0.41763847443E+02  0.45045682590E+02  0.00000000000E+00 0. -1.
         11    1    3    3    0    0  0.81420053107E+00 -0.99746331294E+00  0.58427249787E+00  0.14139413631E+01  0.51100000000E-03 0. -1.
        -11    1    3    3    0    0  0.16380303110E+01  0.16947819520E+01  0.64039584149E+01  0.68239367527E+01  0.51100000000E-03 0.  1.
         12    1    3    3    0    0  0.65320809426E+01  0.13591722912E+02  0.34775616531E+02  0.37904439295E+02  0.00000000000E+00 0. -1.
</event>
<event>
 7    1  0.2328810E-008  0.4614230E+02  0.7816164E-02  0.1320468E+00
        -11   -1    0    0    0    0  0.00000000000E+00  0.00000000000E+00  0.45593999997E+02  0.45594000000E+02  0.51100000000E-03 0.  1.
         11   -1    0    0    0    0 -0.00000000000E+00 -0.00000000000E+00 -0.45593999997E+02  0.45594000000E+02  0.51100000000E-03 0. -1.
    9900012    2    1    2    0    0 -0.24001367441E+02  0.42378072533E+01  0.37882583927E+02  0.46142303043E+02  0.99998657882E+01 0.  0.
         12    1    1    2    0    0  0.24001367441E+02 -0.42378072533E+01 -0.37882583927E+02  0.45045696957E+02  0.00000000000E+00 0. -1.
         11    1    3    3    0    0 -0.99838448835E+01  0.29969370432E+00  0.17518006954E+02  0.20165503784E+02  0.51100000000E-03 0.  1.
        -11    1    3    3    0    0 -0.70349925628E+01  0.25509005138E+00  0.47868098398E+01  0.85129160690E+01  0.51100000000E-03 0. -1.
        -12    1    3    3    0    0 -0.69825299942E+01  0.36830234976E+01  0.15577767133E+02  0.17463883190E+02  0.00000000000E+00 0.  1.
</event>
<event>
 7    1  0.2328810E-008  0.4614232E+02  0.7816164E-02  0.1320468E+00
        -11   -1    0    0    0    0  0.00000000000E+00  0.00000000000E+00  0.45593999997E+02  0.45594000000E+02  0.51100000000E-03 0.  1.
         11   -1    0    0    0    0 -0.00000000000E+00 -0.00000000000E+00 -0.45593999997E+02  0.45594000000E+02  0.51100000000E-03 0. -1.
    9900012    2    1    2    0    0  0.66110415739E+01 -0.24830635797E+02  0.36997936417E+02  0.46142316035E+02  0.99999842586E+01 0.  0.
         12    1    1    2    0    0 -0.66110415739E+01  0.24830635797E+02 -0.36997936417E+02  0.45045683965E+02  0.00000000000E+00 0. -1.
         11    1    3    3    0    0 -0.15740198627E+01 -0.51143672581E+01  0.11406446025E+02  0.12599258000E+02  0.51100000000E-03 0. -1.
        -11    1    3    3    0    0  0.33805552373E+00 -0.12459957627E+01  0.43425668965E+00  0.13621182443E+01  0.51100000000E-03 0.  1.
        -12    1    3    3    0    0  0.78470059130E+01 -0.18470272777E+02  0.25157233702E+02  0.32180939790E+02  0.00000000000E+00 0.  1.
</event>
<event>
 7    1  0.2328810E-008  0.4614232E+02  0.7816164E-02  0.1320468E+00
        -11   -1    0    0    0    0  0.00000000000E+00  0.00000000000E+00  0.45593999997E+02  0.45594000000E+02  0.51100000000E-03 0.  1.
         11   -1    0    0    0    0 -0.00000000000E+00 -0.00000000000E+00 -0.45593999997E+02  0.45594000000E+02  0.51100000000E-03 0. -1.
    9900012    2    1    2    0    0 -0.37371866790E+02  0.16030388815E+02  0.19377399936E+02  0.46142318506E+02  0.10000006795E+02 0.  0.
         12    1    1    2    0    0  0.37371866790E+02 -0.16030388815E+02 -0.19377399936E+02  0.45045681494E+02  0.00000000000E+00 0. -1.
         11    1    3    3    0    0 -0.68435462453E+01  0.79136790961E+00  0.17833090391E+01  0.71162194858E+01  0.51100000000E-03 0. -1.
        -11    1    3    3    0    0 -0.11714006695E+02  0.22743174506E+01  0.70729663587E+01  0.13871457245E+02  0.51100000000E-03 0.  1.
        -12    1    3    3    0    0 -0.18814313850E+02  0.12964703455E+02  0.10521124538E+02  0.25154641776E+02  0.00000000000E+00 0.  1.
</event>
<event>
 7    1  0.2328810E-008  0.4614232E+02  0.7816164E-02  0.1320468E+00
        -11   -1    0    0    0    0  0.00000000000E+00  0.00000000000E+00  0.45593999997E+02  0.45594000000E+02  0.51100000000E-03 0.  1.
         11   -1    0    0    0    0 -0.00000000000E+00 -0.00000000000E+00 -0.45593999997E+02  0.45594000000E+02  0.51100000000E-03 0. -1.
    9900012    2    1    2    0    0 -0.39040469868E+02  0.17268667841E+02  0.14378745278E+02  0.46142317718E+02  0.99999996048E+01 0.  0.
         12    1    1    2    0    0  0.39040469868E+02 -0.17268667841E+02 -0.14378745278E+02  0.45045682282E+02  0.00000000000E+00 0. -1.
         11    1    3    3    0    0 -0.99212629219E+01  0.44162114131E+01  0.38958568645E+01  0.11537420950E+02  0.51100000000E-03 0. -1.
        -11    1    3    3    0    0 -0.27103814797E+02  0.14039904903E+02  0.10456089784E+02  0.32265546951E+02  0.51100000000E-03 0.  1.
         12    1    3    3    0    0 -0.20153921489E+01 -0.11874484756E+01  0.26798629849E-01  0.23393498162E+01  0.00000000000E+00 0. -1.
</event>
<event>
 7    1  0.2328810E-008  0.4614232E+02  0.7816164E-02  0.1320468E+00
        -11   -1    0    0    0    0  0.00000000000E+00  0.00000000000E+00  0.45593999997E+02  0.45594000000E+02  0.51100000000E-03 0. -1.
         11   -1    0    0    0    0 -0.00000000000E+00 -0.00000000000E+00 -0.45593999997E+02  0.45594000000E+02  0.51100000000E-03 0.  1.
    9900012    2    1    2    0    0  0.12767883187E+02 -0.13114091684E+00 -0.43198111402E+02  0.46142324650E+02  0.10000062820E+02 0.  0.
         12    1    1    2    0    0 -0.12767883187E+02  0.13114091684E+00  0.43198111402E+02  0.45045675350E+02  0.00000000000E+00 0. -1.
         11    1    3    3    0    0  0.74926857784E+01 -0.20997386177E+00 -0.17119389096E+02  0.18688443286E+02  0.51100000000E-03 0. -1.
        -11    1    3    3    0    0  0.61511467765E+01  0.20294627968E+00 -0.25803570047E+02  0.26527382481E+02  0.51100000000E-03 0.  1.
        -12    1    3    3    0    0 -0.87594936746E+00 -0.12411333476E+00 -0.27515225934E+00  0.92649888291E+00  0.00000000000E+00 0.  1.
</event>
<event>
 7    1  0.2328810E-008  0.4614232E+02  0.7816164E-02  0.1320468E+00
        -11   -1    0    0    0    0  0.00000000000E+00  0.00000000000E+00  0.45593999997E+02  0.45594000000E+02  0.51100000000E-03 0.  1.
         11   -1    0    0    0    0 -0.00000000000E+00 -0.00000000000E+00 -0.45593999997E+02  0.45594000000E+02  0.51100000000E-03 0. -1.
    9900012    2    1    2    0    0  0.38114585858E+02  0.10229931164E+02  0.21719584982E+02  0.46142317426E+02  0.99999969478E+01 0.  0.
         12    1    1    2    0    0 -0.38114585858E+02 -0.10229931164E+02 -0.21719584982E+02  0.45045682574E+02  0.00000000000E+00 0. -1.
         11    1    3    3    0    0  0.18888377236E+02  0.11031081468E+01  0.13352140273E+02  0.23157445721E+02  0.51100000000E-03 0. -1.
        -11    1    3    3    0    0  0.12228484292E+02  0.57368992350E+01  0.41034511488E+01  0.14116874743E+02  0.51100000000E-03 0.  1.
         12    1    3    3    0    0  0.69977243294E+01  0.33899237825E+01  0.42639935608E+01  0.88679969625E+01  0.00000000000E+00 0. -1.
</event>
<event>
 7    1  0.2328810E-008  0.4614232E+02  0.7816164E-02  0.1320468E+00
        -11   -1    0    0    0    0  0.00000000000E+00  0.00000000000E+00  0.45593999997E+02  0.45594000000E+02  0.51100000000E-03 0.  1.
         11   -1    0    0    0    0 -0.00000000000E+00 -0.00000000000E+00 -0.45593999997E+02  0.45594000000E+02  0.51100000000E-03 0. -1.
    9900012    2    1    2    0    0  0.29901553351E+02  0.23239187427E+01  0.33609669563E+02  0.46142318972E+02  0.10000011043E+02 0.  0.
         12    1    1    2    0    0 -0.29901553351E+02 -0.23239187427E+01 -0.33609669563E+02  0.45045681028E+02  0.00000000000E+00 0. -1.
         11    1    3    3    0    0 -0.39328189463E+00  0.91383879605E-01  0.20098695376E+01  0.20500237758E+01  0.51100000000E-03 0. -1.
        -11    1    3    3    0    0  0.11104974766E+02 -0.29254792832E+00  0.14493295844E+02  0.18260932986E+02  0.51100000000E-03 0.  1.
         12    1    3    3    0    0  0.19189860479E+02  0.25250827914E+01  0.17106504182E+02  0.25831362210E+02  0.00000000000E+00 0. -1.
</event>
<event>
 7    1  0.2328810E-008  0.4614232E+02  0.7816164E-02  0.1320468E+00
        -11   -1    0    0    0    0  0.00000000000E+00  0.00000000000E+00  0.45593999997E+02  0.45594000000E+02  0.51100000000E-03 0.  1.
         11   -1    0    0    0    0 -0.00000000000E+00 -0.00000000000E+00 -0.45593999997E+02  0.45594000000E+02  0.51100000000E-03 0. -1.
    9900012    2    1    2    0    0  0.21909447684E+02  0.35162679901E+02  0.17682627020E+02  0.46142320363E+02  0.10000023728E+02 0.  0.
         12    1    1    2    0    0 -0.21909447684E+02 -0.35162679901E+02 -0.17682627020E+02  0.45045679637E+02  0.00000000000E+00 0. -1.
         11    1    3    3    0    0  0.59088604851E+01  0.85283738308E+01  0.44903957084E+01  0.11305372453E+02  0.51100000000E-03 0. -1.
        -11    1    3    3    0    0  0.16720471573E+02  0.26695674172E+02  0.12704519267E+02  0.33965246932E+02  0.51100000000E-03 0.  1.
         12    1    3    3    0    0 -0.71988437397E+00 -0.61368101955E-01  0.48771204450E+00  0.87170097750E+00  0.00000000000E+00 0. -1.
</event>
<event>
 7    1  0.2328810E-008  0.4614232E+02  0.7816164E-02  0.1320468E+00
        -11   -1    0    0    0    0  0.00000000000E+00  0.00000000000E+00  0.45593999997E+02  0.45594000000E+02  0.51100000000E-03 0. -1.
         11   -1    0    0    0    0 -0.00000000000E+00 -0.00000000000E+00 -0.45593999997E+02  0.45594000000E+02  0.51100000000E-03 0.  1.
    9900012    2    1    2    0    0 -0.22937171433E+02 -0.35515560237E+02 -0.15544926781E+02  0.46142316511E+02  0.99999886048E+01 0.  0.
         12    1    1    2    0    0  0.22937171433E+02  0.35515560237E+02  0.15544926781E+02  0.45045683489E+02  0.00000000000E+00 0. -1.
         11    1    3    3    0    0 -0.99034382560E+01 -0.99680336399E+01 -0.67653335948E+01  0.15595176269E+02  0.51100000000E-03 0. -1.
        -11    1    3    3    0    0 -0.58078993723E+01 -0.68111152078E+01 -0.98181129191E+00  0.90048286583E+01  0.51100000000E-03 0.  1.
        -12    1    3    3    0    0 -0.72258338049E+01 -0.18736411390E+02 -0.77977818939E+01  0.21542311585E+02  0.00000000000E+00 0.  1.
</event>
<event>
 7    1  0.2328810E-008  0.4614233E+02  0.7816164E-02  0.1320468E+00
        -11   -1    0    0    0    0  0.00000000000E+00  0.00000000000E+00  0.45593999997E+02  0.45594000000E+02  0.51100000000E-03 0.  1.
         11   -1    0    0    0    0 -0.00000000000E+00 -0.00000000000E+00 -0.45593999997E+02  0.45594000000E+02  0.51100000000E-03 0. -1.
    9900012    2    1    2    0    0 -0.11664871871E+02  0.42853224290E+02  0.75262640753E+01  0.46142326304E+02  0.10000077902E+02 0.  0.
         12    1    1    2    0    0  0.11664871871E+02 -0.42853224290E+02 -0.75262640753E+01  0.45045673696E+02  0.00000000000E+00 0. -1.
         11    1    3    3    0    0 -0.85631249776E+01  0.25199951455E+02  0.23788625609E+01  0.26721220968E+02  0.51100000000E-03 0. -1.
        -11    1    3    3    0    0 -0.38774619632E+01  0.14143284223E+02  0.23196453966E+01  0.14847489853E+02  0.51100000000E-03 0.  1.
         12    1    3    3    0    0  0.77571507028E+00  0.35099886119E+01  0.28277561179E+01  0.45736154832E+01  0.00000000000E+00 0. -1.
</event>
<event>
 7    1  0.2328810E-008  0.4614232E+02  0.7816164E-02  0.1320468E+00
        -11   -1    0    0    0    0  0.00000000000E+00  0.00000000000E+00  0.45593999997E+02  0.45594000000E+02  0.51100000000E-03 0.  1.
         11   -1    0    0    0    0 -0.00000000000E+00 -0.00000000000E+00 -0.45593999997E+02  0.45594000000E+02  0.51100000000E-03 0. -1.
    9900012    2    1    2    0    0  0.17946566703E+02 -0.21893137551E+02  0.35038905409E+02  0.46142316294E+02  0.99999866245E+01 0.  0.
         12    1    1    2    0    0 -0.17946566703E+02  0.21893137551E+02 -0.35038905409E+02  0.45045683706E+02  0.00000000000E+00 0. -1.
         11    1    3    3    0    0  0.73455946300E+01 -0.10034127199E+02  0.20017968252E+02  0.23566088396E+02  0.51100000000E-03 0. -1.
        -11    1    3    3    0    0  0.27471674857E+01 -0.52631178847E+01  0.86868553463E+01  0.10521824705E+02  0.51100000000E-03 0.  1.
        -12    1    3    3    0    0  0.78538045875E+01 -0.65958924677E+01  0.63340818106E+01  0.12054403192E+02  0.00000000000E+00 0.  1.
</event>
<event>
 7    1  0.2328810E-008  0.4614232E+02  0.7816164E-02  0.1320468E+00
        -11   -1    0    0    0    0  0.00000000000E+00  0.00000000000E+00  0.45593999997E+02  0.45594000000E+02  0.51100000000E-03 0.  1.
         11   -1    0    0    0    0 -0.00000000000E+00 -0.00000000000E+00 -0.45593999997E+02  0.45594000000E+02  0.51100000000E-03 0. -1.
    9900012    2    1    2    0    0 -0.23024788211E+02 -0.10725882706E+02  0.37201177552E+02  0.46142322702E+02  0.10000045059E+02 0.  0.
         12    1    1    2    0    0  0.23024788211E+02  0.10725882706E+02 -0.37201177552E+02  0.45045677298E+02  0.00000000000E+00 0. -1.
         11    1    3    3    0    0 -0.73815909329E+01 -0.54213012159E-01  0.12119086365E+02  0.14190245887E+02  0.51100000000E-03 0. -1.
        -11    1    3    3    0    0 -0.97597528046E+01 -0.47816440796E+01  0.17978652412E+02  0.21008304018E+02  0.51100000000E-03 0.  1.
        -12    1    3    3    0    0 -0.58834444731E+01 -0.58900256145E+01  0.71034387740E+01  0.10943772797E+02  0.00000000000E+00 0.  1.
</event>
<event>
 7    1  0.2328810E-008  0.4614232E+02  0.7816164E-02  0.1320468E+00
        -11   -1    0    0    0    0  0.00000000000E+00  0.00000000000E+00  0.45593999997E+02  0.45594000000E+02  0.51100000000E-03 0.  1.
         11   -1    0    0    0    0 -0.00000000000E+00 -0.00000000000E+00 -0.45593999997E+02  0.45594000000E+02  0.51100000000E-03 0. -1.
    9900012    2    1    2    0    0  0.16187861053E+02  0.28047724864E+02  0.31311208490E+02  0.46142317714E+02  0.99999995713E+01 0.  0.
         12    1    1    2    0    0 -0.16187861053E+02 -0.28047724864E+02 -0.31311208490E+02  0.45045682286E+02  0.00000000000E+00 0. -1.
         11    1    3    3    0    0  0.14921639034E+00  0.47284638716E+01  0.34555159627E+01  0.58584321234E+01  0.51100000000E-03 0. -1.
        -11    1    3    3    0    0  0.81348462417E+01  0.67227634277E+01  0.81389232406E+01  0.13327165612E+02  0.51100000000E-03 0.  1.
         12    1    3    3    0    0  0.79037984210E+01  0.16596497565E+02  0.19716769286E+02  0.26956719978E+02  0.00000000000E+00 0. -1.
</event>
<event>
 7    1  0.2328810E-008  0.4614232E+02  0.7816164E-02  0.1320468E+00
        -11   -1    0    0    0    0  0.00000000000E+00  0.00000000000E+00  0.45593999997E+02  0.45594000000E+02  0.51100000000E-03 0.  1.
         11   -1    0    0    0    0 -0.00000000000E+00 -0.00000000000E+00 -0.45593999997E+02  0.45594000000E+02  0.51100000000E-03 0. -1.
    9900012    2    1    2    0    0 -0.67521139457E+01  0.42945175892E+02  0.11799753810E+02  0.46142319130E+02  0.10000012480E+02 0.  0.
         12    1    1    2    0    0  0.67521139457E+01 -0.42945175892E+02 -0.11799753810E+02  0.45045680870E+02  0.00000000000E+00 0. -1.
         11    1    3    3    0    0  0.55663355086E-01  0.10505692076E+02  0.37463538958E+01  0.11153825899E+02  0.51100000000E-03 0. -1.
        -11    1    3    3    0    0 -0.22040604371E+01  0.24148507466E+02  0.36113461407E+01  0.24516323469E+02  0.51100000000E-03 0.  1.
         12    1    3    3    0    0 -0.46037168637E+01  0.82909763499E+01  0.44420537734E+01  0.10472169762E+02  0.00000000000E+00 0. -1.
</event>
<event>
 7    1  0.2328810E-008  0.4614232E+02  0.7816164E-02  0.1320468E+00
        -11   -1    0    0    0    0  0.00000000000E+00  0.00000000000E+00  0.45593999997E+02  0.45594000000E+02  0.51100000000E-03 0.  1.
         11   -1    0    0    0    0 -0.00000000000E+00 -0.00000000000E+00 -0.45593999997E+02  0.45594000000E+02  0.51100000000E-03 0. -1.
    9900012    2    1    2    0    0  0.31294972163E+02  0.63089500470E+01  0.31779480600E+02  0.46142317404E+02  0.99999967412E+01 0.  0.
         12    1    1    2    0    0 -0.31294972163E+02 -0.63089500470E+01 -0.31779480600E+02  0.45045682596E+02  0.00000000000E+00 0. -1.
         11    1    3    3    0    0  0.17847470034E+02  0.49786030563E+01  0.19112812785E+02  0.26619885195E+02  0.51100000000E-03 0. -1.
        -11    1    3    3    0    0  0.96827622342E+01  0.22858726332E+01  0.11989444743E+02  0.15579726688E+02  0.51100000000E-03 0.  1.
         12    1    3    3    0    0  0.37647398947E+01 -0.95552564248E+00  0.67722307204E+00  0.39427055200E+01  0.00000000000E+00 0. -1.
</event>
<event>
 7    1  0.2328810E-008  0.4614232E+02  0.7816164E-02  0.1320468E+00
        -11   -1    0    0    0    0  0.00000000000E+00  0.00000000000E+00  0.45593999997E+02  0.45594000000E+02  0.51100000000E-03 0.  1.
         11   -1    0    0    0    0 -0.00000000000E+00 -0.00000000000E+00 -0.45593999997E+02  0.45594000000E+02  0.51100000000E-03 0. -1.
    9900012    2    1    2    0    0  0.17610657109E+02 -0.98736646409E+01  0.40267718247E+02  0.46142316188E+02  0.99999856548E+01 0.  0.
         12    1    1    2    0    0 -0.17610657109E+02  0.98736646409E+01 -0.40267718247E+02  0.45045683812E+02  0.00000000000E+00 0. -1.
         11    1    3    3    0    0  0.85492106555E+01 -0.29800998471E+01  0.19944777330E+02  0.21903518917E+02  0.51100000000E-03 0.  1.
        -11    1    3    3    0    0  0.24828476719E+01  0.45853229386E+00  0.83579353705E+01  0.87309717870E+01  0.51100000000E-03 0. -1.
         12    1    3    3    0    0  0.65785987816E+01 -0.73520970876E+01  0.11965005547E+02  0.15507825484E+02  0.00000000000E+00 0. -1.
</event>
<event>
 7    1  0.2328810E-008  0.4614232E+02  0.7816164E-02  0.1320468E+00
        -11   -1    0    0    0    0  0.00000000000E+00  0.00000000000E+00  0.45593999997E+02  0.45594000000E+02  0.51100000000E-03 0.  1.
         11   -1    0    0    0    0 -0.00000000000E+00 -0.00000000000E+00 -0.45593999997E+02  0.45594000000E+02  0.51100000000E-03 0. -1.
    9900012    2    1    2    0    0  0.64473830151E+01 -0.36295446063E+02  0.25887939106E+02  0.46142317146E+02  0.99999943920E+01 0.  0.
         12    1    1    2    0    0 -0.64473830151E+01  0.36295446063E+02 -0.25887939106E+02  0.45045682854E+02  0.00000000000E+00 0. -1.
         11    1    3    3    0    0  0.17464614838E+01 -0.40164133090E+00  0.11272797185E+01  0.21171214651E+01  0.51100000000E-03 0. -1.
        -11    1    3    3    0    0  0.35874835263E+01 -0.19117978017E+02  0.11365204178E+02  0.22528537187E+02  0.51100000000E-03 0.  1.
        -12    1    3    3    0    0  0.11134380049E+01 -0.16775826715E+02  0.13395455209E+02  0.21496658494E+02  0.00000000000E+00 0.  1.
</event>
<event>
 7    1  0.2328810E-008  0.4614232E+02  0.7816164E-02  0.1320468E+00
        -11   -1    0    0    0    0  0.00000000000E+00  0.00000000000E+00  0.45593999997E+02  0.45594000000E+02  0.51100000000E-03 0. -1.
         11   -1    0    0    0    0 -0.00000000000E+00 -0.00000000000E+00 -0.45593999997E+02  0.45594000000E+02  0.51100000000E-03 0.  1.
    9900012    2    1    2    0    0 -0.40567177023E+02 -0.18414703211E+02  0.66570414639E+01  0.46142319330E+02  0.10000014310E+02 0.  0.
         12    1    1    2    0    0  0.40567177023E+02  0.18414703211E+02 -0.66570414639E+01  0.45045680670E+02  0.00000000000E+00 0. -1.
         11    1    3    3    0    0 -0.21529073496E+01  0.55666580076E+00  0.17510885659E+01  0.28304060303E+01  0.51100000000E-03 0. -1.
        -11    1    3    3    0    0 -0.24846189990E+02 -0.12753927039E+02  0.50771255024E+01  0.28386141259E+02  0.51100000000E-03 0.  1.
        -12    1    3    3    0    0 -0.13568079682E+02 -0.62174419735E+01 -0.17117260442E+00  0.14925772041E+02  0.00000000000E+00 0.  1.
</event>
<event>
 7    1  0.2328810E-008  0.4614232E+02  0.7816164E-02  0.1320468E+00
        -11   -1    0    0    0    0  0.00000000000E+00  0.00000000000E+00  0.45593999997E+02  0.45594000000E+02  0.51100000000E-03 0. -1.
         11   -1    0    0    0    0 -0.00000000000E+00 -0.00000000000E+00 -0.45593999997E+02  0.45594000000E+02  0.51100000000E-03 0.  1.
    9900012    2    1    2    0    0  0.14437828699E+02 -0.26870088753E+02 -0.33146055409E+02  0.46142317007E+02  0.99999931217E+01 0.  0.
         12    1    1    2    0    0 -0.14437828699E+02  0.26870088753E+02  0.33146055409E+02  0.45045682993E+02  0.00000000000E+00 0. -1.
         11    1    3    3    0    0  0.47271032769E+01 -0.66458550467E+01 -0.69793906507E+01  0.10734281010E+02  0.51100000000E-03 0. -1.
        -11    1    3    3    0    0  0.78444004447E+01 -0.13359510214E+02 -0.12146290066E+02  0.19686124406E+02  0.51100000000E-03 0.  1.
         12    1    3    3    0    0  0.18663249775E+01 -0.68647234923E+01 -0.14020374692E+02  0.15721911591E+02  0.00000000000E+00 0. -1.
</event>
<event>
 7    1  0.2328810E-008  0.4614232E+02  0.7816164E-02  0.1320468E+00
        -11   -1    0    0    0    0  0.00000000000E+00  0.00000000000E+00  0.45593999997E+02  0.45594000000E+02  0.51100000000E-03 0.  1.
         11   -1    0    0    0    0 -0.00000000000E+00 -0.00000000000E+00 -0.45593999997E+02  0.45594000000E+02  0.51100000000E-03 0. -1.
    9900012    2    1    2    0    0 -0.35108473289E+02 -0.22135484197E+02  0.17507972693E+02  0.46142315799E+02  0.99999821035E+01 0.  0.
         12    1    1    2    0    0  0.35108473289E+02  0.22135484197E+02 -0.17507972693E+02  0.45045684201E+02  0.00000000000E+00 0. -1.
         11    1    3    3    0    0 -0.11069185847E+02 -0.89967086457E+01  0.36998934475E+01  0.14736242857E+02  0.51100000000E-03 0.  1.
        -11    1    3    3    0    0 -0.10356842922E+02 -0.54112103923E+01  0.22514878367E+01  0.11900192896E+02  0.51100000000E-03 0. -1.
        -12    1    3    3    0    0 -0.13682444521E+02 -0.77275651595E+01  0.11556591409E+02  0.19505880046E+02  0.00000000000E+00 0.  1.
</event>
<event>
 7    1  0.2328810E-008  0.4614232E+02  0.7816164E-02  0.1320468E+00
        -11   -1    0    0    0    0  0.00000000000E+00  0.00000000000E+00  0.45593999997E+02  0.45594000000E+02  0.51100000000E-03 0.  1.
         11   -1    0    0    0    0 -0.00000000000E+00 -0.00000000000E+00 -0.45593999997E+02  0.45594000000E+02  0.51100000000E-03 0. -1.
    9900012    2    1    2    0    0 -0.21432412035E+01 -0.39375310650E+02  0.21773949452E+02  0.46142318228E+02  0.10000004253E+02 0.  0.
         12    1    1    2    0    0  0.21432412035E+01  0.39375310650E+02 -0.21773949452E+02  0.45045681772E+02  0.00000000000E+00 0. -1.
         11    1    3    3    0    0 -0.93244289901E+00 -0.10872632982E+02  0.84767972910E+01  0.13818092861E+02  0.51100000000E-03 0. -1.
        -11    1    3    3    0    0 -0.30203341660E+01 -0.25391335755E+02  0.13071929536E+02  0.28717898460E+02  0.51100000000E-03 0.  1.
         12    1    3    3    0    0  0.18095358616E+01 -0.31113419124E+01  0.22522262485E+00  0.36063269071E+01  0.00000000000E+00 0. -1.
</event>
<event>
 7    1  0.2328810E-008  0.4614232E+02  0.7816164E-02  0.1320468E+00
        -11   -1    0    0    0    0  0.00000000000E+00  0.00000000000E+00  0.45593999997E+02  0.45594000000E+02  0.51100000000E-03 0. -1.
         11   -1    0    0    0    0 -0.00000000000E+00 -0.00000000000E+00 -0.45593999997E+02  0.45594000000E+02  0.51100000000E-03 0.  1.
    9900012    2    1    2    0    0 -0.27789992036E+01 -0.78131941542E+01 -0.44275778782E+02  0.46142318451E+02  0.10000006292E+02 0.  0.
         12    1    1    2    0    0  0.27789992036E+01  0.78131941542E+01  0.44275778782E+02  0.45045681549E+02  0.00000000000E+00 0. -1.
         11    1    3    3    0    0 -0.16488036320E+01 -0.34730330369E+01 -0.69081381863E+01  0.79058766341E+01  0.51100000000E-03 0. -1.
        -11    1    3    3    0    0  0.20298667339E+01  0.68318927491E+00 -0.85616437424E+01  0.88254660146E+01  0.51100000000E-03 0.  1.
        -12    1    3    3    0    0 -0.31600623054E+01 -0.50233503922E+01 -0.28805996853E+02  0.29410975802E+02  0.00000000000E+00 0.  1.
</event>
<event>
 7    1  0.2328810E-008  0.4614232E+02  0.7816164E-02  0.1320468E+00
        -11   -1    0    0    0    0  0.00000000000E+00  0.00000000000E+00  0.45593999997E+02  0.45594000000E+02  0.51100000000E-03 0. -1.
         11   -1    0    0    0    0 -0.00000000000E+00 -0.00000000000E+00 -0.45593999997E+02  0.45594000000E+02  0.51100000000E-03 0.  1.
    9900012    2    1    2    0    0 -0.11038091112E+01  0.73841773621E+00 -0.45026102456E+02  0.46142316991E+02  0.99999929813E+01 0.  0.
         12    1    1    2    0    0  0.11038091112E+01 -0.73841773621E+00  0.45026102456E+02  0.45045683009E+02  0.00000000000E+00 0. -1.
         11    1    3    3    0    0  0.23060134510E+01  0.25499451397E+01 -0.10169325002E+02  0.10734760804E+02  0.51100000000E-03 0. -1.
        -11    1    3    3    0    0  0.62201451257E+00 -0.12783111255E+01 -0.33469149727E+01  0.36363197719E+01  0.51100000000E-03 0.  1.
        -12    1    3    3    0    0 -0.40318370747E+01 -0.53321627806E+00 -0.31509862482E+02  0.31771236416E+02  0.00000000000E+00 0.  1.
</event>
<event>
 7    1  0.2328810E-008  0.4614232E+02  0.7816164E-02  0.1320468E+00
        -11   -1    0    0    0    0  0.00000000000E+00  0.00000000000E+00  0.45593999997E+02  0.45594000000E+02  0.51100000000E-03 0.  1.
         11   -1    0    0    0    0 -0.00000000000E+00 -0.00000000000E+00 -0.45593999997E+02  0.45594000000E+02  0.51100000000E-03 0. -1.
    9900012    2    1    2    0    0  0.16919565624E+02 -0.62640519233E+01  0.41274729680E+02  0.46142319213E+02  0.10000013242E+02 0.  0.
         12    1    1    2    0    0 -0.16919565624E+02  0.62640519233E+01 -0.41274729680E+02  0.45045680787E+02  0.00000000000E+00 0. -1.
         11    1    3    3    0    0  0.21809418296E+01 -0.95506928693E+00  0.23167131431E+01  0.33220211702E+01  0.51100000000E-03 0. -1.
        -11    1    3    3    0    0 -0.11082246143E+01 -0.36021992083E+00  0.23060955956E+01  0.25837951436E+01  0.51100000000E-03 0.  1.
        -12    1    3    3    0    0  0.15846848409E+02 -0.49487627155E+01  0.36651920941E+02  0.40236502899E+02  0.00000000000E+00 0.  1.
</event>
<event>
 7    1  0.2328810E-008  0.4614232E+02  0.7816164E-02  0.1320468E+00
        -11   -1    0    0    0    0  0.00000000000E+00  0.00000000000E+00  0.45593999997E+02  0.45594000000E+02  0.51100000000E-03 0.  1.
         11   -1    0    0    0    0 -0.00000000000E+00 -0.00000000000E+00 -0.45593999997E+02  0.45594000000E+02  0.51100000000E-03 0. -1.
    9900012    2    1    2    0    0 -0.40051803888E+02  0.17670458575E+02  0.10617031166E+02  0.46142318168E+02  0.10000003706E+02 0.  0.
         12    1    1    2    0    0  0.40051803888E+02 -0.17670458575E+02 -0.10617031166E+02  0.45045681832E+02  0.00000000000E+00 0. -1.
         11    1    3    3    0    0 -0.92814258543E+01  0.21360055929E+01  0.15764430056E+01  0.96536292965E+01  0.51100000000E-03 0. -1.
        -11    1    3    3    0    0 -0.21424935109E+02  0.80896276948E+01  0.88120216522E+01  0.24538167139E+02  0.51100000000E-03 0.  1.
        -12    1    3    3    0    0 -0.93454429249E+01  0.74448252877E+01  0.22856650812E+00  0.11950521732E+02  0.00000000000E+00 0.  1.
</event>
<event>
 7    1  0.2328810E-008  0.4614232E+02  0.7816164E-02  0.1320468E+00
        -11   -1    0    0    0    0  0.00000000000E+00  0.00000000000E+00  0.45593999997E+02  0.45594000000E+02  0.51100000000E-03 0.  1.
         11   -1    0    0    0    0 -0.00000000000E+00 -0.00000000000E+00 -0.45593999997E+02  0.45594000000E+02  0.51100000000E-03 0. -1.
    9900012    2    1    2    0    0 -0.22091318578E+01 -0.27958291330E+02  0.35250065710E+02  0.46142318185E+02  0.10000003864E+02 0.  0.
         12    1    1    2    0    0  0.22091318578E+01  0.27958291330E+02 -0.35250065710E+02  0.45045681815E+02  0.00000000000E+00 0. -1.
         11    1    3    3    0    0  0.17520738684E+01 -0.16134962521E+01  0.62154678244E+01  0.66562131526E+01  0.51100000000E-03 0. -1.
        -11    1    3    3    0    0 -0.35653415120E+01 -0.15371521207E+02  0.16963097199E+02  0.23167692832E+02  0.51100000000E-03 0.  1.
        -12    1    3    3    0    0 -0.39586421419E+00 -0.10973273871E+02  0.12071500687E+02  0.16318412201E+02  0.00000000000E+00 0.  1.
</event>
<event>
 7    1  0.2328810E-008  0.4614232E+02  0.7816164E-02  0.1320468E+00
        -11   -1    0    0    0    0  0.00000000000E+00  0.00000000000E+00  0.45593999997E+02  0.45594000000E+02  0.51100000000E-03 0. -1.
         11   -1    0    0    0    0 -0.00000000000E+00 -0.00000000000E+00 -0.45593999997E+02  0.45594000000E+02  0.51100000000E-03 0.  1.
    9900012    2    1    2    0    0 -0.29338236093E+02  0.31794025890E+02 -0.12550749639E+02  0.46142317678E+02  0.99999992452E+01 0.  0.
         12    1    1    2    0    0  0.29338236093E+02 -0.31794025890E+02  0.12550749639E+02  0.45045682322E+02  0.00000000000E+00 0. -1.
         11    1    3    3    0    0 -0.29741058435E+01  0.43643619295E+01 -0.39636739337E+01  0.66033076510E+01  0.51100000000E-03 0. -1.
        -11    1    3    3    0    0 -0.22636258980E+02  0.26292603074E+02 -0.75598347598E+01  0.35508482070E+02  0.51100000000E-03 0.  1.
         12    1    3    3    0    0 -0.37278712690E+01  0.11370608863E+01 -0.10272409453E+01  0.40305279576E+01  0.00000000000E+00 0. -1.
</event>
<event>
 7    1  0.2328810E-008  0.4614232E+02  0.7816164E-02  0.1320468E+00
        -11   -1    0    0    0    0  0.00000000000E+00  0.00000000000E+00  0.45593999997E+02  0.45594000000E+02  0.51100000000E-03 0.  1.
         11   -1    0    0    0    0 -0.00000000000E+00 -0.00000000000E+00 -0.45593999997E+02  0.45594000000E+02  0.51100000000E-03 0. -1.
    9900012    2    1    2    0    0  0.45156203805E+01 -0.15695955453E+02  0.41980466677E+02  0.46142318437E+02  0.10000006166E+02 0.  0.
         12    1    1    2    0    0 -0.45156203805E+01  0.15695955453E+02 -0.41980466677E+02  0.45045681563E+02  0.00000000000E+00 0. -1.
         11    1    3    3    0    0  0.24137761331E+01 -0.42751906399E+01  0.14578575317E+02  0.15383056548E+02  0.51100000000E-03 0. -1.
        -11    1    3    3    0    0 -0.11635637110E+00  0.11433276956E+01  0.15400682538E+01  0.19216002478E+01  0.51100000000E-03 0.  1.
        -12    1    3    3    0    0  0.22182006185E+01 -0.12564092509E+02  0.25861823107E+02  0.28837661642E+02  0.00000000000E+00 0.  1.
</event>
<event>
 7    1  0.2328810E-008  0.4614232E+02  0.7816164E-02  0.1320468E+00
        -11   -1    0    0    0    0  0.00000000000E+00  0.00000000000E+00  0.45593999997E+02  0.45594000000E+02  0.51100000000E-03 0.  1.
         11   -1    0    0    0    0 -0.00000000000E+00 -0.00000000000E+00 -0.45593999997E+02  0.45594000000E+02  0.51100000000E-03 0. -1.
    9900012    2    1    2    0    0 -0.15023978924E+02  0.40363394071E+01  0.42274124612E+02  0.46142316630E+02  0.99999896867E+01 0.  0.
         12    1    1    2    0    0  0.15023978924E+02 -0.40363394071E+01 -0.42274124612E+02  0.45045683370E+02  0.00000000000E+00 0. -1.
         11    1    3    3    0    0 -0.23703095096E+00 -0.58704243809E+00  0.26801471723E+00  0.68748428753E+00  0.51100000000E-03 0. -1.
        -11    1    3    3    0    0 -0.44598959354E+01 -0.13376925579E+01  0.18756446764E+02  0.19325744193E+02  0.51100000000E-03 0.  1.
         12    1    3    3    0    0 -0.10327052037E+02  0.59610744031E+01  0.23249663131E+02  0.26129088149E+02  0.00000000000E+00 0. -1.
</event>
<event>
 7    1  0.2328810E-008  0.4614231E+02  0.7816164E-02  0.1320468E+00
        -11   -1    0    0    0    0  0.00000000000E+00  0.00000000000E+00  0.45593999997E+02  0.45594000000E+02  0.51100000000E-03 0.  1.
         11   -1    0    0    0    0 -0.00000000000E+00 -0.00000000000E+00 -0.45593999997E+02  0.45594000000E+02  0.51100000000E-03 0. -1.
    9900012    2    1    2    0    0 -0.15362369037E+02  0.40566801651E+02 -0.12142736843E+02  0.46142313896E+02  0.99999647514E+01 0.  0.
         12    1    1    2    0    0  0.15362369037E+02 -0.40566801651E+02  0.12142736843E+02  0.45045686104E+02  0.00000000000E+00 0. -1.
         11    1    3    3    0    0 -0.40873461556E+00  0.35404246470E+01  0.40999478500E+00  0.35874457002E+01  0.51100000000E-03 0.  1.
        -11    1    3    3    0    0 -0.10255959789E+02  0.15500183553E+02 -0.47757238940E+01  0.19189787397E+02  0.51100000000E-03 0. -1.
        -12    1    3    3    0    0 -0.46976746318E+01  0.21526193450E+02 -0.77770077336E+01  0.23365080798E+02  0.00000000000E+00 0.  1.
</event>
<event>
 7    1  0.2328810E-008  0.4614232E+02  0.7816164E-02  0.1320468E+00
        -11   -1    0    0    0    0  0.00000000000E+00  0.00000000000E+00  0.45593999997E+02  0.45594000000E+02  0.51100000000E-03 0.  1.
         11   -1    0    0    0    0 -0.00000000000E+00 -0.00000000000E+00 -0.45593999997E+02  0.45594000000E+02  0.51100000000E-03 0. -1.
    9900012    2    1    2    0    0 -0.19488143198E+02  0.13138861333E+02  0.38427802957E+02  0.46142318270E+02  0.10000004640E+02 0.  0.
         12    1    1    2    0    0  0.19488143198E+02 -0.13138861333E+02 -0.38427802957E+02  0.45045681730E+02  0.00000000000E+00 0. -1.
         11    1    3    3    0    0 -0.82563772023E+01  0.49615036539E+01  0.13892023097E+02  0.16904809641E+02  0.51100000000E-03 0. -1.
        -11    1    3    3    0    0 -0.97839500233E+01  0.57419359565E+01  0.23713431971E+02  0.26287304211E+02  0.51100000000E-03 0.  1.
         12    1    3    3    0    0 -0.14478159721E+01  0.24354217229E+01  0.82234788960E+00  0.29502044182E+01  0.00000000000E+00 0. -1.
</event>
<event>
 7    1  0.2328810E-008  0.4614232E+02  0.7816164E-02  0.1320468E+00
        -11   -1    0    0    0    0  0.00000000000E+00  0.00000000000E+00  0.45593999997E+02  0.45594000000E+02  0.51100000000E-03 0.  1.
         11   -1    0    0    0    0 -0.00000000000E+00 -0.00000000000E+00 -0.45593999997E+02  0.45594000000E+02  0.51100000000E-03 0. -1.
    9900012    2    1    2    0    0  0.32113809052E+02  0.12476385980E+02  0.29019934679E+02  0.46142317103E+02  0.99999939949E+01 0.  0.
         12    1    1    2    0    0 -0.32113809052E+02 -0.12476385980E+02 -0.29019934679E+02  0.45045682897E+02  0.00000000000E+00 0. -1.
         11    1    3    3    0    0  0.12387759189E+02  0.43975847627E+01  0.10966964731E+02  0.17119277004E+02  0.51100000000E-03 0. -1.
        -11    1    3    3    0    0  0.20246881814E+02  0.85820473683E+01  0.17316832378E+02  0.27990363415E+02  0.51100000000E-03 0.  1.
         12    1    3    3    0    0 -0.52083195187E+00 -0.50324615102E+00  0.73613756959E+00  0.10326766832E+01  0.00000000000E+00 0. -1.
</event>
<event>
 7    1  0.2328810E-008  0.4614232E+02  0.7816164E-02  0.1320468E+00
        -11   -1    0    0    0    0  0.00000000000E+00  0.00000000000E+00  0.45593999997E+02  0.45594000000E+02  0.51100000000E-03 0. -1.
         11   -1    0    0    0    0 -0.00000000000E+00 -0.00000000000E+00 -0.45593999997E+02  0.45594000000E+02  0.51100000000E-03 0.  1.
    9900012    2    1    2    0    0 -0.28029719559E+01  0.15550567251E+02 -0.42183370420E+02  0.46142317259E+02  0.99999954220E+01 0.  0.
         12    1    1    2    0    0  0.28029719559E+01 -0.15550567251E+02  0.42183370420E+02  0.45045682741E+02  0.00000000000E+00 0. -1.
         11    1    3    3    0    0  0.52560808471E+00  0.25591962850E+00 -0.29807842911E+01  0.30375704051E+01  0.51100000000E-03 0. -1.
        -11    1    3    3    0    0 -0.61489999232E+00  0.23578464308E+01 -0.17680109000E+02  0.17847234976E+02  0.51100000000E-03 0.  1.
         12    1    3    3    0    0 -0.27136800483E+01  0.12936801192E+02 -0.21522477129E+02  0.25257511878E+02  0.00000000000E+00 0. -1.
</event>
<event>
 7    1  0.2328810E-008  0.4614232E+02  0.7816164E-02  0.1320468E+00
        -11   -1    0    0    0    0  0.00000000000E+00  0.00000000000E+00  0.45593999997E+02  0.45594000000E+02  0.51100000000E-03 0. -1.
         11   -1    0    0    0    0 -0.00000000000E+00 -0.00000000000E+00 -0.45593999997E+02  0.45594000000E+02  0.51100000000E-03 0.  1.
    9900012    2    1    2    0    0  0.13710216780E+02  0.39627355068E+02 -0.16456491633E+02  0.46142318401E+02  0.10000005837E+02 0.  0.
         12    1    1    2    0    0 -0.13710216780E+02 -0.39627355068E+02  0.16456491633E+02  0.45045681599E+02  0.00000000000E+00 0. -1.
         11    1    3    3    0    0  0.13346599676E+02  0.30454798462E+02 -0.97815467168E+01  0.34659848942E+02  0.51100000000E-03 0. -1.
        -11    1    3    3    0    0  0.90869210563E+00  0.34621493468E+01 -0.21428583408E+01  0.41718151412E+01  0.51100000000E-03 0.  1.
         12    1    3    3    0    0 -0.54507500195E+00  0.57104072592E+01 -0.45320865759E+01  0.73106543178E+01  0.00000000000E+00 0. -1.
</event>
<event>
 7    1  0.2328810E-008  0.4614232E+02  0.7816164E-02  0.1320468E+00
        -11   -1    0    0    0    0  0.00000000000E+00  0.00000000000E+00  0.45593999997E+02  0.45594000000E+02  0.51100000000E-03 0.  1.
         11   -1    0    0    0    0 -0.00000000000E+00 -0.00000000000E+00 -0.45593999997E+02  0.45594000000E+02  0.51100000000E-03 0. -1.
    9900012    2    1    2    0    0  0.76055003279E+01  0.61288880718E+01  0.43973929796E+02  0.46142318676E+02  0.10000008340E+02 0.  0.
         12    1    1    2    0    0 -0.76055003279E+01 -0.61288880718E+01 -0.43973929796E+02  0.45045681324E+02  0.00000000000E+00 0. -1.
         11    1    3    3    0    0  0.10361921187E+00 -0.10942068707E+01  0.30987980268E+01  0.32879438999E+01  0.51100000000E-03 0. -1.
        -11    1    3    3    0    0  0.48923059340E+01  0.80517995557E+00  0.94184992458E+01  0.10643829218E+02  0.51100000000E-03 0.  1.
        -12    1    3    3    0    0  0.26095751820E+01  0.64179149869E+01  0.31456632524E+02  0.32210545558E+02  0.00000000000E+00 0.  1.
</event>
<event>
 7    1  0.2328810E-008  0.4614232E+02  0.7816164E-02  0.1320468E+00
        -11   -1    0    0    0    0  0.00000000000E+00  0.00000000000E+00  0.45593999997E+02  0.45594000000E+02  0.51100000000E-03 0. -1.
         11   -1    0    0    0    0 -0.00000000000E+00 -0.00000000000E+00 -0.45593999997E+02  0.45594000000E+02  0.51100000000E-03 0.  1.
    9900012    2    1    2    0    0  0.10461453197E+02 -0.43694797157E+02 -0.32305045450E+01  0.46142318063E+02  0.10000002751E+02 0.  0.
         12    1    1    2    0    0 -0.10461453197E+02  0.43694797157E+02  0.32305045450E+01  0.45045681937E+02  0.00000000000E+00 0. -1.
         11    1    3    3    0    0  0.98022073950E-01 -0.21482682128E+01  0.16740842345E+00  0.21570096158E+01  0.51100000000E-03 0. -1.
        -11    1    3    3    0    0  0.92369111122E+01 -0.20134090432E+02  0.66475650681E+00  0.22161769466E+02  0.51100000000E-03 0.  1.
        -12    1    3    3    0    0  0.11265200113E+01 -0.21412438512E+02 -0.40626694753E+01  0.21823538981E+02  0.00000000000E+00 0.  1.
</event>
<event>
 7    1  0.2328810E-008  0.4614232E+02  0.7816164E-02  0.1320468E+00
        -11   -1    0    0    0    0  0.00000000000E+00  0.00000000000E+00  0.45593999997E+02  0.45594000000E+02  0.51100000000E-03 0.  1.
         11   -1    0    0    0    0 -0.00000000000E+00 -0.00000000000E+00 -0.45593999997E+02  0.45594000000E+02  0.51100000000E-03 0. -1.
    9900012    2    1    2    0    0 -0.34373160978E+02  0.26413091784E+02 -0.12245324868E+02  0.46142316584E+02  0.99999892701E+01 0.  0.
         12    1    1    2    0    0  0.34373160978E+02 -0.26413091784E+02  0.12245324868E+02  0.45045683416E+02  0.00000000000E+00 0. -1.
         11    1    3    3    0    0 -0.10740514843E+02  0.76577037355E+01 -0.54689582595E+01  0.14279656519E+02  0.51100000000E-03 0. -1.
        -11    1    3    3    0    0 -0.19138274469E+02  0.11331383603E+02 -0.65326819505E+01  0.23180805373E+02  0.51100000000E-03 0.  1.
         12    1    3    3    0    0 -0.44943716668E+01  0.74240044465E+01 -0.24368465757E+00  0.86818546932E+01  0.00000000000E+00 0. -1.
</event>
<event>
 7    1  0.2328810E-008  0.4614232E+02  0.7816164E-02  0.1320468E+00
        -11   -1    0    0    0    0  0.00000000000E+00  0.00000000000E+00  0.45593999997E+02  0.45594000000E+02  0.51100000000E-03 0.  1.
         11   -1    0    0    0    0 -0.00000000000E+00 -0.00000000000E+00 -0.45593999997E+02  0.45594000000E+02  0.51100000000E-03 0. -1.
    9900012    2    1    2    0    0 -0.42163502424E+02  0.61035469792E+01  0.14632132546E+02  0.46142317352E+02  0.99999962688E+01 0.  0.
         12    1    1    2    0    0  0.42163502424E+02 -0.61035469792E+01 -0.14632132546E+02  0.45045682648E+02  0.00000000000E+00 0. -1.
         11    1    3    3    0    0 -0.41594292754E+01  0.25474918112E+01 -0.62161518948E+00  0.49170084534E+01  0.51100000000E-03 0. -1.
        -11    1    3    3    0    0 -0.56255366868E+01  0.12228576990E+01  0.32747518911E+01  0.66231445837E+01  0.51100000000E-03 0.  1.
         12    1    3    3    0    0 -0.32378536462E+02  0.23331974689E+01  0.11978995845E+02  0.34602164315E+02  0.00000000000E+00 0. -1.
</event>
<event>
 7    1  0.2328810E-008  0.4614232E+02  0.7816164E-02  0.1320468E+00
        -11   -1    0    0    0    0  0.00000000000E+00  0.00000000000E+00  0.45593999997E+02  0.45594000000E+02  0.51100000000E-03 0.  1.
         11   -1    0    0    0    0 -0.00000000000E+00 -0.00000000000E+00 -0.45593999997E+02  0.45594000000E+02  0.51100000000E-03 0. -1.
    9900012    2    1    2    0    0 -0.12488944511E+02  0.26619445601E+02  0.34125428320E+02  0.46142317886E+02  0.10000001140E+02 0.  0.
         12    1    1    2    0    0  0.12488944511E+02 -0.26619445601E+02 -0.34125428320E+02  0.45045682114E+02  0.00000000000E+00 0. -1.
         11    1    3    3    0    0 -0.14854694774E+00  0.31717607106E+01  0.17937194640E+01  0.36468564515E+01  0.51100000000E-03 0. -1.
        -11    1    3    3    0    0 -0.85899401040E+01  0.17899727698E+02  0.18543549357E+02  0.27167085704E+02  0.51100000000E-03 0.  1.
        -12    1    3    3    0    0 -0.37504574592E+01  0.55479571919E+01  0.13788159499E+02  0.15328375730E+02  0.00000000000E+00 0.  1.
</event>
<event>
 7    1  0.2328810E-008  0.4614232E+02  0.7816164E-02  0.1320468E+00
        -11   -1    0    0    0    0  0.00000000000E+00  0.00000000000E+00  0.45593999997E+02  0.45594000000E+02  0.51100000000E-03 0.  1.
         11   -1    0    0    0    0 -0.00000000000E+00 -0.00000000000E+00 -0.45593999997E+02  0.45594000000E+02  0.51100000000E-03 0. -1.
    9900012    2    1    2    0    0 -0.97094114983E+01  0.15305780727E+02  0.41238015408E+02  0.46142317520E+02  0.99999978034E+01 0.  0.
         12    1    1    2    0    0  0.97094114983E+01 -0.15305780727E+02 -0.41238015408E+02  0.45045682480E+02  0.00000000000E+00 0. -1.
         11    1    3    3    0    0  0.10475424970E+01  0.41572961785E+01  0.11792467138E+02  0.12547618828E+02  0.51100000000E-03 0. -1.
        -11    1    3    3    0    0 -0.74937937243E+01  0.84044803618E+01  0.25084026531E+02  0.27495465477E+02  0.51100000000E-03 0.  1.
         12    1    3    3    0    0 -0.32631602710E+01  0.27440041871E+01  0.43615217387E+01  0.60992332149E+01  0.00000000000E+00 0. -1.
</event>
<event>
 7    1  0.2328810E-008  0.4614232E+02  0.7816164E-02  0.1320468E+00
        -11   -1    0    0    0    0  0.00000000000E+00  0.00000000000E+00  0.45593999997E+02  0.45594000000E+02  0.51100000000E-03 0.  1.
         11   -1    0    0    0    0 -0.00000000000E+00 -0.00000000000E+00 -0.45593999997E+02  0.45594000000E+02  0.51100000000E-03 0. -1.
    9900012    2    1    2    0    0 -0.38398328089E+02  0.16556138833E+02  0.16750409941E+02  0.46142316896E+02  0.99999921109E+01 0.  0.
         12    1    1    2    0    0  0.38398328089E+02 -0.16556138833E+02 -0.16750409941E+02  0.45045683104E+02  0.00000000000E+00 0. -1.
         11    1    3    3    0    0 -0.24908834492E+02  0.67363234337E+01  0.75950874235E+01  0.26898205189E+02  0.51100000000E-03 0. -1.
        -11    1    3    3    0    0 -0.97596710495E+01  0.55383872706E+01  0.55617792280E+01  0.12524308404E+02  0.51100000000E-03 0.  1.
         12    1    3    3    0    0 -0.37298225479E+01  0.42814281285E+01  0.35935432898E+01  0.67198033032E+01  0.00000000000E+00 0. -1.
</event>
<event>
 7    1  0.2328810E-008  0.4614232E+02  0.7816164E-02  0.1320468E+00
        -11   -1    0    0    0    0  0.00000000000E+00  0.00000000000E+00  0.45593999997E+02  0.45594000000E+02  0.51100000000E-03 0.  1.
         11   -1    0    0    0    0 -0.00000000000E+00 -0.00000000000E+00 -0.45593999997E+02  0.45594000000E+02  0.51100000000E-03 0. -1.
    9900012    2    1    2    0    0  0.99433839527E+01  0.19026121334E+02  0.39601126353E+02  0.46142318899E+02  0.10000010374E+02 0.  0.
         12    1    1    2    0    0 -0.99433839527E+01 -0.19026121334E+02 -0.39601126353E+02  0.45045681101E+02  0.00000000000E+00 0. -1.
         11    1    3    3    0    0  0.15981352113E+01  0.28195240226E+01  0.23207875549E+01  0.39862020776E+01  0.51100000000E-03 0. -1.
        -11    1    3    3    0    0  0.38842041386E+01  0.12856936357E+02  0.20820676391E+02  0.24776771782E+02  0.51100000000E-03 0.  1.
         12    1    3    3    0    0  0.44610446028E+01  0.33496609552E+01  0.16459662407E+02  0.17379345040E+02  0.00000000000E+00 0. -1.
</event>
<event>
 7    1  0.2328810E-008  0.4614232E+02  0.7816164E-02  0.1320468E+00
        -11   -1    0    0    0    0  0.00000000000E+00  0.00000000000E+00  0.45593999997E+02  0.45594000000E+02  0.51100000000E-03 0. -1.
         11   -1    0    0    0    0 -0.00000000000E+00 -0.00000000000E+00 -0.45593999997E+02  0.45594000000E+02  0.51100000000E-03 0.  1.
    9900012    2    1    2    0    0  0.12829555040E+02  0.42069445251E+02 -0.97302541873E+01  0.46142317046E+02  0.99999934777E+01 0.  0.
         12    1    1    2    0    0 -0.12829555040E+02 -0.42069445251E+02  0.97302541873E+01  0.45045682954E+02  0.00000000000E+00 0. -1.
         11    1    3    3    0    0  0.11432301667E+02  0.33327666611E+02 -0.58353461614E+01  0.35713892930E+02  0.51100000000E-03 0. -1.
        -11    1    3    3    0    0  0.24700471936E+01  0.47376137323E+01 -0.11754377088E+01  0.54706280338E+01  0.51100000000E-03 0.  1.
         12    1    3    3    0    0 -0.10727938197E+01  0.40041649078E+01 -0.27194703171E+01  0.49577960824E+01  0.00000000000E+00 0. -1.
</event>
<event>
 7    1  0.2328810E-008  0.4614232E+02  0.7816164E-02  0.1320468E+00
        -11   -1    0    0    0    0  0.00000000000E+00  0.00000000000E+00  0.45593999997E+02  0.45594000000E+02  0.51100000000E-03 0.  1.
         11   -1    0    0    0    0 -0.00000000000E+00 -0.00000000000E+00 -0.45593999997E+02  0.45594000000E+02  0.51100000000E-03 0. -1.
    9900012    2    1    2    0    0  0.23411086441E+02 -0.36816280533E+02 -0.11206962380E+02  0.46142317783E+02  0.10000000196E+02 0.  0.
         12    1    1    2    0    0 -0.23411086441E+02  0.36816280533E+02  0.11206962380E+02  0.45045682217E+02  0.00000000000E+00 0. -1.
         11    1    3    3    0    0  0.86106928252E+01 -0.91015529349E+01 -0.22889717320E+01  0.12736627835E+02  0.51100000000E-03 0. -1.
        -11    1    3    3    0    0  0.17745461405E+01 -0.99920549848E+01 -0.19535160520E+01  0.10334718286E+02  0.51100000000E-03 0.  1.
        -12    1    3    3    0    0  0.13025847475E+02 -0.17722672613E+02 -0.69644745961E+01  0.23070971662E+02  0.00000000000E+00 0.  1.
</event>
<event>
 7    1  0.2328810E-008  0.4614233E+02  0.7816164E-02  0.1320468E+00
        -11   -1    0    0    0    0  0.00000000000E+00  0.00000000000E+00  0.45593999997E+02  0.45594000000E+02  0.51100000000E-03 0. -1.
         11   -1    0    0    0    0 -0.00000000000E+00 -0.00000000000E+00 -0.45593999997E+02  0.45594000000E+02  0.51100000000E-03 0.  1.
    9900012    2    1    2    0    0 -0.25132882026E+02  0.34467574584E+02 -0.14471950858E+02  0.46142325199E+02  0.10000067824E+02 0.  0.
         12    1    1    2    0    0  0.25132882026E+02 -0.34467574584E+02  0.14471950858E+02  0.45045674801E+02  0.00000000000E+00 0. -1.
         11    1    3    3    0    0 -0.12558492088E+02  0.11177521028E+02 -0.89736355674E+01  0.19057251518E+02  0.51100000000E-03 0. -1.
        -11    1    3    3    0    0 -0.10947942069E+02  0.19008265445E+02 -0.47507458406E+01  0.22444179136E+02  0.51100000000E-03 0.  1.
         12    1    3    3    0    0 -0.16264478696E+01  0.42817881112E+01 -0.74756944996E+00  0.46408945457E+01  0.00000000000E+00 0. -1.
</event>
<event>
 7    1  0.2328810E-008  0.4614232E+02  0.7816164E-02  0.1320468E+00
        -11   -1    0    0    0    0  0.00000000000E+00  0.00000000000E+00  0.45593999997E+02  0.45594000000E+02  0.51100000000E-03 0.  1.
         11   -1    0    0    0    0 -0.00000000000E+00 -0.00000000000E+00 -0.45593999997E+02  0.45594000000E+02  0.51100000000E-03 0. -1.
    9900012    2    1    2    0    0 -0.67436174772E+01 -0.25324275136E+02  0.36637661256E+02  0.46142317520E+02  0.99999977996E+01 0.  0.
         12    1    1    2    0    0  0.67436174772E+01  0.25324275136E+02 -0.36637661256E+02  0.45045682480E+02  0.00000000000E+00 0. -1.
         11    1    3    3    0    0  0.23759675522E+00 -0.24681360941E+01  0.30749228679E+01  0.39501011255E+01  0.51100000000E-03 0.  1.
        -11    1    3    3    0    0 -0.89000175467E+01 -0.21048631421E+02  0.31024454252E+02  0.38532738793E+02  0.51100000000E-03 0. -1.
         12    1    3    3    0    0  0.19188033143E+01 -0.18075076205E+01  0.25382841358E+01  0.36594776009E+01  0.00000000000E+00 0. -1.
</event>
<event>
 7    1  0.2328810E-008  0.4614232E+02  0.7816164E-02  0.1320468E+00
        -11   -1    0    0    0    0  0.00000000000E+00  0.00000000000E+00  0.45593999997E+02  0.45594000000E+02  0.51100000000E-03 0.  1.
         11   -1    0    0    0    0 -0.00000000000E+00 -0.00000000000E+00 -0.45593999997E+02  0.45594000000E+02  0.51100000000E-03 0. -1.
    9900012    2    1    2    0    0  0.30193688978E+02 -0.74897446099E+01  0.32578495996E+02  0.46142317302E+02  0.99999958089E+01 0.  0.
         12    1    1    2    0    0 -0.30193688978E+02  0.74897446099E+01 -0.32578495996E+02  0.45045682698E+02  0.00000000000E+00 0. -1.
         11    1    3    3    0    0  0.59503710535E+01 -0.45981155413E+01  0.79013906926E+01  0.10907866764E+02  0.51100000000E-03 0. -1.
        -11    1    3    3    0    0  0.44098937934E+01  0.17827443689E+01  0.51767220383E+01  0.70302056924E+01  0.51100000000E-03 0.  1.
        -12    1    3    3    0    0  0.19833424131E+02 -0.46743734375E+01  0.19500383265E+02  0.28204244845E+02  0.00000000000E+00 0.  1.
</event>
<event>
 7    1  0.2328810E-008  0.4614232E+02  0.7816164E-02  0.1320468E+00
        -11   -1    0    0    0    0  0.00000000000E+00  0.00000000000E+00  0.45593999997E+02  0.45594000000E+02  0.51100000000E-03 0. -1.
         11   -1    0    0    0    0 -0.00000000000E+00 -0.00000000000E+00 -0.45593999997E+02  0.45594000000E+02  0.51100000000E-03 0.  1.
    9900012    2    1    2    0    0  0.28910841147E+01  0.14611519212E+02 -0.42511864926E+02  0.46142317405E+02  0.99999967483E+01 0.  0.
         12    1    1    2    0    0 -0.28910841147E+01 -0.14611519212E+02  0.42511864926E+02  0.45045682595E+02  0.00000000000E+00 0. -1.
         11    1    3    3    0    0 -0.13607024449E+01  0.29163489925E+01 -0.11716461478E+02  0.12150393920E+02  0.51100000000E-03 0. -1.
        -11    1    3    3    0    0 -0.18646479584E+01  0.47247785547E+01 -0.12100909293E+02  0.13123736144E+02  0.51100000000E-03 0.  1.
        -12    1    3    3    0    0  0.61164345180E+01  0.69703916645E+01 -0.18694494155E+02  0.20868187340E+02  0.00000000000E+00 0.  1.
</event>
<event>
 7    1  0.2328810E-008  0.4614232E+02  0.7816164E-02  0.1320468E+00
        -11   -1    0    0    0    0  0.00000000000E+00  0.00000000000E+00  0.45593999997E+02  0.45594000000E+02  0.51100000000E-03 0.  1.
         11   -1    0    0    0    0 -0.00000000000E+00 -0.00000000000E+00 -0.45593999997E+02  0.45594000000E+02  0.51100000000E-03 0. -1.
    9900012    2    1    2    0    0  0.53088356085E+00 -0.25897886948E+02  0.36852828428E+02  0.46142319310E+02  0.10000014121E+02 0.  0.
         12    1    1    2    0    0 -0.53088356085E+00  0.25897886948E+02 -0.36852828428E+02  0.45045680690E+02  0.00000000000E+00 0. -1.
         11    1    3    3    0    0  0.15326673912E+01 -0.75147517514E+00  0.12953134195E+01  0.21428068944E+01  0.51100000000E-03 0. -1.
        -11    1    3    3    0    0 -0.17574846150E+01 -0.24789981498E+02  0.33016053374E+02  0.41324226739E+02  0.51100000000E-03 0.  1.
        -12    1    3    3    0    0  0.75570078466E+00 -0.35643027479E+00  0.25414616337E+01  0.26752856768E+01  0.00000000000E+00 0.  1.
</event>
<event>
 7    1  0.2328810E-008  0.4614232E+02  0.7816164E-02  0.1320468E+00
        -11   -1    0    0    0    0  0.00000000000E+00  0.00000000000E+00  0.45593999997E+02  0.45594000000E+02  0.51100000000E-03 0.  1.
         11   -1    0    0    0    0 -0.00000000000E+00 -0.00000000000E+00 -0.45593999997E+02  0.45594000000E+02  0.51100000000E-03 0. -1.
    9900012    2    1    2    0    0  0.38796197534E+02 -0.30848791547E+01  0.22681534833E+02  0.46142318244E+02  0.10000004402E+02 0.  0.
         12    1    1    2    0    0 -0.38796197534E+02  0.30848791547E+01 -0.22681534833E+02  0.45045681756E+02  0.00000000000E+00 0. -1.
         11    1    3    3    0    0  0.24043523264E+02  0.85667393469E+00  0.11098551859E+02  0.26495334586E+02  0.51100000000E-03 0. -1.
        -11    1    3    3    0    0  0.13358328708E+02 -0.46916120657E+01  0.11102902156E+02  0.17992515282E+02  0.51100000000E-03 0.  1.
         12    1    3    3    0    0  0.13943455621E+01  0.75005897630E+00  0.48008081777E+00  0.16544683757E+01  0.00000000000E+00 0. -1.
</event>
<event>
 7    1  0.2328810E-008  0.4614232E+02  0.7816164E-02  0.1320468E+00
        -11   -1    0    0    0    0  0.00000000000E+00  0.00000000000E+00  0.45593999997E+02  0.45594000000E+02  0.51100000000E-03 0. -1.
         11   -1    0    0    0    0 -0.00000000000E+00 -0.00000000000E+00 -0.45593999997E+02  0.45594000000E+02  0.51100000000E-03 0.  1.
    9900012    2    1    2    0    0  0.75879346485E+01  0.29572686468E+02 -0.33120884685E+02  0.46142317194E+02  0.99999948267E+01 0.  0.
         12    1    1    2    0    0 -0.75879346485E+01 -0.29572686468E+02  0.33120884685E+02  0.45045682806E+02  0.00000000000E+00 0. -1.
         11    1    3    3    0    0  0.50162798364E+01  0.13933352490E+02 -0.12665629751E+02  0.19486394029E+02  0.51100000000E-03 0. -1.
        -11    1    3    3    0    0  0.21121540248E+01  0.77116133260E+01 -0.15074150551E+02  0.17063416709E+02  0.51100000000E-03 0.  1.
        -12    1    3    3    0    0  0.45950078728E+00  0.79277206518E+01 -0.53811043832E+01  0.95925064550E+01  0.00000000000E+00 0.  1.
</event>
<event>
 7    1  0.2328810E-008  0.4614232E+02  0.7816164E-02  0.1320468E+00
        -11   -1    0    0    0    0  0.00000000000E+00  0.00000000000E+00  0.45593999997E+02  0.45594000000E+02  0.51100000000E-03 0.  1.
         11   -1    0    0    0    0 -0.00000000000E+00 -0.00000000000E+00 -0.45593999997E+02  0.45594000000E+02  0.51100000000E-03 0. -1.
    9900012    2    1    2    0    0  0.79340166646E+01  0.21031258915E+02  0.39036536023E+02  0.46142316337E+02  0.99999870155E+01 0.  0.
         12    1    1    2    0    0 -0.79340166646E+01 -0.21031258915E+02 -0.39036536023E+02  0.45045683663E+02  0.00000000000E+00 0. -1.
         11    1    3    3    0    0  0.46024136730E+00  0.76449123184E-01  0.74475517084E+01  0.74621507151E+01  0.51100000000E-03 0. -1.
        -11    1    3    3    0    0  0.36387310934E-02  0.10277654333E+00  0.42927438093E-02  0.10293175892E+00  0.51100000000E-03 0.  1.
        -12    1    3    3    0    0  0.74701365662E+01  0.20852033249E+02  0.31584691570E+02  0.38577233863E+02  0.00000000000E+00 0.  1.
</event>
<event>
 7    1  0.2328810E-008  0.4614232E+02  0.7816164E-02  0.1320468E+00
        -11   -1    0    0    0    0  0.00000000000E+00  0.00000000000E+00  0.45593999997E+02  0.45594000000E+02  0.51100000000E-03 0.  1.
         11   -1    0    0    0    0 -0.00000000000E+00 -0.00000000000E+00 -0.45593999997E+02  0.45594000000E+02  0.51100000000E-03 0. -1.
    9900012    2    1    2    0    0 -0.30952757783E+02 -0.19554880906E+02  0.26242083386E+02  0.46142317387E+02  0.99999965906E+01 0.  0.
         12    1    1    2    0    0  0.30952757783E+02  0.19554880906E+02 -0.26242083386E+02  0.45045682613E+02  0.00000000000E+00 0. -1.
         11    1    3    3    0    0 -0.64431382019E+01  0.74441524200E-01  0.42430972969E+01  0.77151439624E+01  0.51100000000E-03 0. -1.
        -11    1    3    3    0    0 -0.16946709947E+02 -0.13827051515E+02  0.16720956545E+02  0.27531231713E+02  0.51100000000E-03 0.  1.
         12    1    3    3    0    0 -0.75629096345E+01 -0.58022709149E+01  0.52780295439E+01  0.10895941711E+02  0.00000000000E+00 0. -1.
</event>
<event>
 7    1  0.2328810E-008  0.4614232E+02  0.7816164E-02  0.1320468E+00
        -11   -1    0    0    0    0  0.00000000000E+00  0.00000000000E+00  0.45593999997E+02  0.45594000000E+02  0.51100000000E-03 0.  1.
         11   -1    0    0    0    0 -0.00000000000E+00 -0.00000000000E+00 -0.45593999997E+02  0.45594000000E+02  0.51100000000E-03 0. -1.
    9900012    2    1    2    0    0 -0.14713611083E+02 -0.11547972946E+02  0.40978866231E+02  0.46142317545E+02  0.99999980254E+01 0.  0.
         12    1    1    2    0    0  0.14713611083E+02  0.11547972946E+02 -0.40978866231E+02  0.45045682455E+02  0.00000000000E+00 0. -1.
         11    1    3    3    0    0  0.41232771483E+00 -0.24217024564E+01  0.17341584882E+01  0.30069856759E+01  0.51100000000E-03 0. -1.
        -11    1    3    3    0    0 -0.13204009081E+01 -0.11640316845E+01  0.22723803883E+01  0.28743940597E+01  0.51100000000E-03 0.  1.
        -12    1    3    3    0    0 -0.13805537890E+02 -0.79622388052E+01  0.36972327355E+02  0.40260937809E+02  0.00000000000E+00 0.  1.
</event>
<event>
 7    1  0.2328810E-008  0.4614232E+02  0.7816164E-02  0.1320468E+00
        -11   -1    0    0    0    0  0.00000000000E+00  0.00000000000E+00  0.45593999997E+02  0.45594000000E+02  0.51100000000E-03 0. -1.
         11   -1    0    0    0    0 -0.00000000000E+00 -0.00000000000E+00 -0.45593999997E+02  0.45594000000E+02  0.51100000000E-03 0.  1.
    9900012    2    1    2    0    0  0.68873929097E+01 -0.38146488936E+00 -0.44514400556E+02  0.46142317039E+02  0.99999934174E+01 0.  0.
         12    1    1    2    0    0 -0.68873929097E+01  0.38146488936E+00  0.44514400556E+02  0.45045682961E+02  0.00000000000E+00 0. -1.
         11    1    3    3    0    0 -0.74979321201E+00 -0.10910695134E+00 -0.11459436670E+02  0.11484458335E+02  0.51100000000E-03 0. -1.
        -11    1    3    3    0    0  0.64450775026E+01  0.94301604112E+00 -0.31997449496E+02  0.32653714609E+02  0.51100000000E-03 0.  1.
         12    1    3    3    0    0  0.11921086190E+01 -0.12153739791E+01 -0.10575143892E+01  0.20041440947E+01  0.00000000000E+00 0. -1.
</event>
<event>
 7    1  0.2328810E-008  0.4614232E+02  0.7816164E-02  0.1320468E+00
        -11   -1    0    0    0    0  0.00000000000E+00  0.00000000000E+00  0.45593999997E+02  0.45594000000E+02  0.51100000000E-03 0.  1.
         11   -1    0    0    0    0 -0.00000000000E+00 -0.00000000000E+00 -0.45593999997E+02  0.45594000000E+02  0.51100000000E-03 0. -1.
    9900012    2    1    2    0    0  0.36831074995E+02  0.20533982255E+02  0.15841119243E+02  0.46142316839E+02  0.99999915930E+01 0.  0.
         12    1    1    2    0    0 -0.36831074995E+02 -0.20533982255E+02 -0.15841119243E+02  0.45045683161E+02  0.00000000000E+00 0. -1.
         11    1    3    3    0    0  0.54485758190E+01  0.59757149642E+01  0.56309136432E+01  0.98541025216E+01  0.51100000000E-03 0. -1.
        -11    1    3    3    0    0  0.27448834037E+02  0.13015633523E+02  0.10255136417E+02  0.32062642268E+02  0.51100000000E-03 0.  1.
         12    1    3    3    0    0  0.39336651391E+01  0.15426337678E+01 -0.44930817301E-01  0.42255720496E+01  0.00000000000E+00 0. -1.
</event>
<event>
 7    1  0.2328810E-008  0.4614232E+02  0.7816164E-02  0.1320468E+00
        -11   -1    0    0    0    0  0.00000000000E+00  0.00000000000E+00  0.45593999997E+02  0.45594000000E+02  0.51100000000E-03 0.  1.
         11   -1    0    0    0    0 -0.00000000000E+00 -0.00000000000E+00 -0.45593999997E+02  0.45594000000E+02  0.51100000000E-03 0. -1.
    9900012    2    1    2    0    0 -0.15887875325E+02 -0.38606489752E+02  0.16918268968E+02  0.46142318096E+02  0.10000003052E+02 0.  0.
         12    1    1    2    0    0  0.15887875325E+02  0.38606489752E+02 -0.16918268968E+02  0.45045681904E+02  0.00000000000E+00 0. -1.
         11    1    3    3    0    0 -0.86682335418E+01 -0.25218494816E+02  0.64631570912E+01  0.27438716322E+02  0.51100000000E-03 0.  1.
        -11    1    3    3    0    0 -0.59257098832E+01 -0.12269980593E+02  0.83089787220E+01  0.15959498396E+02  0.51100000000E-03 0. -1.
         12    1    3    3    0    0 -0.12939318999E+01 -0.11180143429E+01  0.21461331550E+01  0.27441033785E+01  0.00000000000E+00 0. -1.
</event>
<event>
 7    1  0.2328810E-008  0.4614232E+02  0.7816164E-02  0.1320468E+00
        -11   -1    0    0    0    0  0.00000000000E+00  0.00000000000E+00  0.45593999997E+02  0.45594000000E+02  0.51100000000E-03 0.  1.
         11   -1    0    0    0    0 -0.00000000000E+00 -0.00000000000E+00 -0.45593999997E+02  0.45594000000E+02  0.51100000000E-03 0. -1.
    9900012    2    1    2    0    0  0.24096724277E+02  0.19618312291E+02  0.32612622980E+02  0.46142317902E+02  0.10000001289E+02 0.  0.
         12    1    1    2    0    0 -0.24096724277E+02 -0.19618312291E+02 -0.32612622980E+02  0.45045682098E+02  0.00000000000E+00 0. -1.
         11    1    3    3    0    0  0.22208260213E+00 -0.34478573455E+00  0.35971623130E+00  0.54552168894E+00  0.51100000000E-03 0. -1.
        -11    1    3    3    0    0  0.87897659541E+01  0.12615287648E+02  0.16988423857E+02  0.22913140626E+02  0.51100000000E-03 0.  1.
        -12    1    3    3    0    0  0.15084875721E+02  0.73478103774E+01  0.15264482892E+02  0.22683655587E+02  0.00000000000E+00 0.  1.
</event>
<event>
 7    1  0.2328810E-008  0.4614232E+02  0.7816164E-02  0.1320468E+00
        -11   -1    0    0    0    0  0.00000000000E+00  0.00000000000E+00  0.45593999997E+02  0.45594000000E+02  0.51100000000E-03 0. -1.
         11   -1    0    0    0    0 -0.00000000000E+00 -0.00000000000E+00 -0.45593999997E+02  0.45594000000E+02  0.51100000000E-03 0.  1.
    9900012    2    1    2    0    0 -0.30533139013E+02 -0.16770851407E+01 -0.33076098444E+02  0.46142317845E+02  0.10000000764E+02 0.  0.
         12    1    1    2    0    0  0.30533139013E+02  0.16770851407E+01  0.33076098444E+02  0.45045682155E+02  0.00000000000E+00 0. -1.
         11    1    3    3    0    0 -0.15261818700E+02 -0.18677762907E+01 -0.18532490207E+02  0.24080383963E+02  0.51100000000E-03 0.  1.
        -11    1    3    3    0    0 -0.64150809251E+01 -0.96138104504E+00 -0.10304152518E+02  0.12175921984E+02  0.51100000000E-03 0. -1.
         12    1    3    3    0    0 -0.88562393882E+01  0.11520721951E+01 -0.42394557192E+01  0.98860118975E+01  0.00000000000E+00 0. -1.
</event>
<event>
 7    1  0.2328810E-008  0.4614232E+02  0.7816164E-02  0.1320468E+00
        -11   -1    0    0    0    0  0.00000000000E+00  0.00000000000E+00  0.45593999997E+02  0.45594000000E+02  0.51100000000E-03 0.  1.
         11   -1    0    0    0    0 -0.00000000000E+00 -0.00000000000E+00 -0.45593999997E+02  0.45594000000E+02  0.51100000000E-03 0. -1.
    9900012    2    1    2    0    0  0.10381502550E+02  0.38439518556E+02  0.21065166782E+02  0.46142318369E+02  0.10000005547E+02 0.  0.
         12    1    1    2    0    0 -0.10381502550E+02 -0.38439518556E+02 -0.21065166782E+02  0.45045681631E+02  0.00000000000E+00 0. -1.
         11    1    3    3    0    0  0.69601631474E+00  0.62730338893E+00  0.48685287557E+00  0.10559234043E+01  0.51100000000E-03 0. -1.
        -11    1    3    3    0    0  0.97267926263E+01  0.28218154775E+02  0.11842826558E+02  0.32111170873E+02  0.51100000000E-03 0.  1.
        -12    1    3    3    0    0 -0.41306391261E-01  0.95940603922E+01  0.87354873481E+01  0.12975224092E+02  0.00000000000E+00 0.  1.
</event>
<event>
 7    1  0.2328810E-008  0.4614232E+02  0.7816164E-02  0.1320468E+00
        -11   -1    0    0    0    0  0.00000000000E+00  0.00000000000E+00  0.45593999997E+02  0.45594000000E+02  0.51100000000E-03 0.  1.
         11   -1    0    0    0    0 -0.00000000000E+00 -0.00000000000E+00 -0.45593999997E+02  0.45594000000E+02  0.51100000000E-03 0. -1.
    9900012    2    1    2    0    0 -0.13151498592E+01  0.28147780885E+02  0.35143794316E+02  0.46142318000E+02  0.10000002176E+02 0.  0.
         12    1    1    2    0    0  0.13151498592E+01 -0.28147780885E+02 -0.35143794316E+02  0.45045682000E+02  0.00000000000E+00 0. -1.
         11    1    3    3    0    0 -0.34847279882E+01  0.41617805672E+01  0.71940542155E+01  0.90121120143E+01  0.51100000000E-03 0. -1.
        -11    1    3    3    0    0 -0.19780173759E+00  0.41825588710E+01  0.73390235710E+01  0.84495083569E+01  0.51100000000E-03 0.  1.
        -12    1    3    3    0    0  0.23673798666E+01  0.19803441447E+02  0.20610716530E+02  0.28680697629E+02  0.00000000000E+00 0.  1.
</event>
<event>
 7    1  0.2328810E-008  0.4614232E+02  0.7816164E-02  0.1320468E+00
        -11   -1    0    0    0    0  0.00000000000E+00  0.00000000000E+00  0.45593999997E+02  0.45594000000E+02  0.51100000000E-03 0.  1.
         11   -1    0    0    0    0 -0.00000000000E+00 -0.00000000000E+00 -0.45593999997E+02  0.45594000000E+02  0.51100000000E-03 0. -1.
    9900012    2    1    2    0    0  0.83481101171E+01  0.27392162951E+02  0.34771999271E+02  0.46142317999E+02  0.10000002165E+02 0.  0.
         12    1    1    2    0    0 -0.83481101171E+01 -0.27392162951E+02 -0.34771999271E+02  0.45045682001E+02  0.00000000000E+00 0. -1.
         11    1    3    3    0    0  0.92875542315E+00  0.60203918199E+01  0.12278738728E+02  0.13706754879E+02  0.51100000000E-03 0. -1.
        -11    1    3    3    0    0  0.31099581981E+01  0.16792115202E+02  0.16672697685E+02  0.23866835176E+02  0.51100000000E-03 0.  1.
         12    1    3    3    0    0  0.43093964959E+01  0.45796559293E+01  0.58205628573E+01  0.85687279432E+01  0.00000000000E+00 0. -1.
</event>
<event>
 7    1  0.2328810E-008  0.4614232E+02  0.7816164E-02  0.1320468E+00
        -11   -1    0    0    0    0  0.00000000000E+00  0.00000000000E+00  0.45593999997E+02  0.45594000000E+02  0.51100000000E-03 0.  1.
         11   -1    0    0    0    0 -0.00000000000E+00 -0.00000000000E+00 -0.45593999997E+02  0.45594000000E+02  0.51100000000E-03 0. -1.
    9900012    2    1    2    0    0  0.27042652804E+02  0.93877656262E+01  0.34780424966E+02  0.46142321240E+02  0.10000031725E+02 0.  0.
         12    1    1    2    0    0 -0.27042652804E+02 -0.93877656262E+01 -0.34780424966E+02  0.45045678760E+02  0.00000000000E+00 0. -1.
         11    1    3    3    0    0  0.17934144895E+02  0.28305239700E+01  0.18155860684E+02  0.25676461915E+02  0.51100000000E-03 0. -1.
        -11    1    3    3    0    0  0.80275114521E+01  0.46504146533E+01  0.10772045339E+02  0.14216337700E+02  0.51100000000E-03 0.  1.
         12    1    3    3    0    0  0.10809964567E+01  0.19068270029E+01  0.58525189428E+01  0.62495216244E+01  0.00000000000E+00 0. -1.
</event>
<event>
 7    1  0.2328810E-008  0.4614232E+02  0.7816164E-02  0.1320468E+00
        -11   -1    0    0    0    0  0.00000000000E+00  0.00000000000E+00  0.45593999997E+02  0.45594000000E+02  0.51100000000E-03 0.  1.
         11   -1    0    0    0    0 -0.00000000000E+00 -0.00000000000E+00 -0.45593999997E+02  0.45594000000E+02  0.51100000000E-03 0. -1.
    9900012    2    1    2    0    0  0.89026685405E+01 -0.18079583815E+02  0.40286284288E+02  0.46142316968E+02  0.99999927715E+01 0.  0.
         12    1    1    2    0    0 -0.89026685405E+01  0.18079583815E+02 -0.40286284288E+02  0.45045683032E+02  0.00000000000E+00 0. -1.
         11    1    3    3    0    0 -0.18289281837E+00 -0.10592735665E+01  0.76235698568E+01  0.76989822635E+01  0.51100000000E-03 0. -1.
        -11    1    3    3    0    0  0.10795427280E+01 -0.77424301202E+01  0.15434359916E+02  0.17301159006E+02  0.51100000000E-03 0.  1.
        -12    1    3    3    0    0  0.80060186309E+01 -0.92778801288E+01  0.17228354515E+02  0.21142175699E+02  0.00000000000E+00 0.  1.
</event>
<event>
 7    1  0.2328810E-008  0.4614232E+02  0.7816164E-02  0.1320468E+00
        -11   -1    0    0    0    0  0.00000000000E+00  0.00000000000E+00  0.45593999997E+02  0.45594000000E+02  0.51100000000E-03 0. -1.
         11   -1    0    0    0    0 -0.00000000000E+00 -0.00000000000E+00 -0.45593999997E+02  0.45594000000E+02  0.51100000000E-03 0.  1.
    9900012    2    1    2    0    0  0.31486226126E+02  0.32176327353E+02 -0.15540624603E+01  0.46142316659E+02  0.99999899495E+01 0.  0.
         12    1    1    2    0    0 -0.31486226126E+02 -0.32176327353E+02  0.15540624603E+01  0.45045683341E+02  0.00000000000E+00 0. -1.
         11    1    3    3    0    0  0.11848269210E+02  0.10018954642E+02  0.31622693074E+01  0.15835431249E+02  0.51100000000E-03 0. -1.
        -11    1    3    3    0    0  0.61794756114E+01  0.85850090858E+01  0.16709549938E+00  0.10579046318E+02  0.51100000000E-03 0.  1.
         12    1    3    3    0    0  0.13458481304E+02  0.13572363624E+02 -0.48834272671E+01  0.19727839092E+02  0.00000000000E+00 0. -1.
</event>
<event>
 7    1  0.2328810E-008  0.4614232E+02  0.7816164E-02  0.1320468E+00
        -11   -1    0    0    0    0  0.00000000000E+00  0.00000000000E+00  0.45593999997E+02  0.45594000000E+02  0.51100000000E-03 0.  1.
         11   -1    0    0    0    0 -0.00000000000E+00 -0.00000000000E+00 -0.45593999997E+02  0.45594000000E+02  0.51100000000E-03 0. -1.
    9900012    2    1    2    0    0  0.38384837617E+02  0.15134710794E+02  0.18073686977E+02  0.46142318846E+02  0.10000009896E+02 0.  0.
         12    1    1    2    0    0 -0.38384837617E+02 -0.15134710794E+02 -0.18073686977E+02  0.45045681154E+02  0.00000000000E+00 0. -1.
         11    1    3    3    0    0  0.48130742922E+01  0.50662432862E+01  0.39867164441E+01  0.80452727389E+01  0.51100000000E-03 0. -1.
        -11    1    3    3    0    0  0.31778967525E+02  0.10393029490E+02  0.14069818331E+02  0.36275027596E+02  0.51100000000E-03 0.  1.
        -12    1    3    3    0    0  0.17927957992E+01 -0.32456198264E+00  0.17152201812E-01  0.18220185115E+01  0.00000000000E+00 0.  1.
</event>
<event>
 7    1  0.2328810E-008  0.4614232E+02  0.7816164E-02  0.1320468E+00
        -11   -1    0    0    0    0  0.00000000000E+00  0.00000000000E+00  0.45593999997E+02  0.45594000000E+02  0.51100000000E-03 0.  1.
         11   -1    0    0    0    0 -0.00000000000E+00 -0.00000000000E+00 -0.45593999997E+02  0.45594000000E+02  0.51100000000E-03 0. -1.
    9900012    2    1    2    0    0 -0.40209096433E+02 -0.25199003684E+01  0.20149246579E+02  0.46142317948E+02  0.10000001701E+02 0.  0.
         12    1    1    2    0    0  0.40209096433E+02  0.25199003684E+01 -0.20149246579E+02  0.45045682052E+02  0.00000000000E+00 0. -1.
         11    1    3    3    0    0 -0.29210985931E+02  0.11994842330E+01  0.16314316126E+02  0.33479506753E+02  0.51100000000E-03 0. -1.
        -11    1    3    3    0    0 -0.65494542032E+01 -0.20173119755E+01  0.39275354293E+01  0.78987614710E+01  0.51100000000E-03 0.  1.
         12    1    3    3    0    0 -0.44486562991E+01 -0.17020726258E+01 -0.92604975709E-01  0.47640497240E+01  0.00000000000E+00 0. -1.
</event>
<event>
 7    1  0.2328810E-008  0.4614232E+02  0.7816164E-02  0.1320468E+00
        -11   -1    0    0    0    0  0.00000000000E+00  0.00000000000E+00  0.45593999997E+02  0.45594000000E+02  0.51100000000E-03 0.  1.
         11   -1    0    0    0    0 -0.00000000000E+00 -0.00000000000E+00 -0.45593999997E+02  0.45594000000E+02  0.51100000000E-03 0. -1.
    9900012    2    1    2    0    0 -0.36862267363E+00  0.39306758235E+02  0.21999008574E+02  0.46142317589E+02  0.99999984304E+01 0.  0.
         12    1    1    2    0    0  0.36862267363E+00 -0.39306758235E+02 -0.21999008574E+02  0.45045682411E+02  0.00000000000E+00 0. -1.
         11    1    3    3    0    0  0.21490430171E+01  0.15119491976E+02  0.37903675810E+01  0.15734812048E+02  0.51100000000E-03 0. -1.
        -11    1    3    3    0    0 -0.60759217607E+00  0.11451448230E+02  0.82119002556E+01  0.14104614170E+02  0.51100000000E-03 0.  1.
         12    1    3    3    0    0 -0.19100735146E+01  0.12735818029E+02  0.99967407375E+01  0.16302891371E+02  0.00000000000E+00 0. -1.
</event>
<event>
 7    1  0.2328810E-008  0.4614232E+02  0.7816164E-02  0.1320468E+00
        -11   -1    0    0    0    0  0.00000000000E+00  0.00000000000E+00  0.45593999997E+02  0.45594000000E+02  0.51100000000E-03 0.  1.
         11   -1    0    0    0    0 -0.00000000000E+00 -0.00000000000E+00 -0.45593999997E+02  0.45594000000E+02  0.51100000000E-03 0. -1.
    9900012    2    1    2    0    0 -0.38229203345E+00  0.19794509011E+02  0.40461646100E+02  0.46142317195E+02  0.99999948409E+01 0.  0.
         12    1    1    2    0    0  0.38229203345E+00 -0.19794509011E+02 -0.40461646100E+02  0.45045682805E+02  0.00000000000E+00 0. -1.
         11    1    3    3    0    0  0.96160649763E+00  0.11909891770E+01  0.16914499422E+01  0.22812596179E+01  0.51100000000E-03 0.  1.
        -11    1    3    3    0    0  0.23033350646E+01  0.40362610448E+01  0.15366577094E+02  0.16053923118E+02  0.51100000000E-03 0. -1.
         12    1    3    3    0    0 -0.36472335956E+01  0.14567258789E+02  0.23403619065E+02  0.27807134460E+02  0.00000000000E+00 0. -1.
</event>
<event>
 7    1  0.2328810E-008  0.4614232E+02  0.7816164E-02  0.1320468E+00
        -11   -1    0    0    0    0  0.00000000000E+00  0.00000000000E+00  0.45593999997E+02  0.45594000000E+02  0.51100000000E-03 0. -1.
         11   -1    0    0    0    0 -0.00000000000E+00 -0.00000000000E+00 -0.45593999997E+02  0.45594000000E+02  0.51100000000E-03 0.  1.
    9900012    2    1    2    0    0  0.44495684072E+02 -0.69635791801E+01 -0.86958333737E+00  0.46142317508E+02  0.99999976918E+01 0.  0.
         12    1    1    2    0    0 -0.44495684072E+02  0.69635791801E+01  0.86958333737E+00  0.45045682492E+02  0.00000000000E+00 0. -1.
         11    1    3    3    0    0  0.33719097966E+01 -0.94968276783E+00  0.11852433162E+01  0.36981718478E+01  0.51100000000E-03 0. -1.
        -11    1    3    3    0    0  0.26911220193E+02 -0.57691729339E+00  0.94621868643E+00  0.26934029329E+02  0.51100000000E-03 0.  1.
        -12    1    3    3    0    0  0.14212554082E+02 -0.54369791189E+01 -0.30010453400E+01  0.15510116331E+02  0.00000000000E+00 0.  1.
</event>
<event>
 7    1  0.2328810E-008  0.4614232E+02  0.7816164E-02  0.1320468E+00
        -11   -1    0    0    0    0  0.00000000000E+00  0.00000000000E+00  0.45593999997E+02  0.45594000000E+02  0.51100000000E-03 0. -1.
         11   -1    0    0    0    0 -0.00000000000E+00 -0.00000000000E+00 -0.45593999997E+02  0.45594000000E+02  0.51100000000E-03 0.  1.
    9900012    2    1    2    0    0  0.29608466258E+02  0.15147202575E+02 -0.30381152809E+02  0.46142318010E+02  0.10000002267E+02 0.  0.
         12    1    1    2    0    0 -0.29608466258E+02 -0.15147202575E+02  0.30381152809E+02  0.45045681990E+02  0.00000000000E+00 0. -1.
         11    1    3    3    0    0  0.52293288504E+01  0.67653606994E+00 -0.45273301633E+01  0.69498417210E+01  0.51100000000E-03 0. -1.
        -11    1    3    3    0    0  0.12942925803E+02  0.60755507053E+01 -0.17963637725E+02  0.22959179543E+02  0.51100000000E-03 0.  1.
         12    1    3    3    0    0  0.11436211605E+02  0.83951157996E+01 -0.78901849203E+01  0.16233296746E+02  0.00000000000E+00 0. -1.
</event>
<event>
 7    1  0.2328810E-008  0.4614232E+02  0.7816164E-02  0.1320468E+00
        -11   -1    0    0    0    0  0.00000000000E+00  0.00000000000E+00  0.45593999997E+02  0.45594000000E+02  0.51100000000E-03 0.  1.
         11   -1    0    0    0    0 -0.00000000000E+00 -0.00000000000E+00 -0.45593999997E+02  0.45594000000E+02  0.51100000000E-03 0. -1.
    9900012    2    1    2    0    0  0.13619350635E+01  0.32586799266E+02  0.31070223313E+02  0.46142321736E+02  0.10000036249E+02 0.  0.
         12    1    1    2    0    0 -0.13619350635E+01 -0.32586799266E+02 -0.31070223313E+02  0.45045678264E+02  0.00000000000E+00 0. -1.
         11    1    3    3    0    0 -0.77452614323E+00  0.37187583189E+01  0.32179658072E+01  0.49783891348E+01  0.51100000000E-03 0. -1.
        -11    1    3    3    0    0  0.22799100791E+01  0.21043766298E+02  0.14398961651E+02  0.25600159899E+02  0.51100000000E-03 0.  1.
         12    1    3    3    0    0 -0.14344887233E+00  0.78242746484E+01  0.13453295855E+02  0.15563772702E+02  0.00000000000E+00 0. -1.
</event>
<event>
 7    1  0.2328810E-008  0.4614232E+02  0.7816164E-02  0.1320468E+00
        -11   -1    0    0    0    0  0.00000000000E+00  0.00000000000E+00  0.45593999997E+02  0.45594000000E+02  0.51100000000E-03 0.  1.
         11   -1    0    0    0    0 -0.00000000000E+00 -0.00000000000E+00 -0.45593999997E+02  0.45594000000E+02  0.51100000000E-03 0. -1.
    9900012    2    1    2    0    0 -0.83046178789E+01 -0.13680957285E+02  0.42106748007E+02  0.46142317653E+02  0.99999990153E+01 0.  0.
         12    1    1    2    0    0  0.83046178789E+01  0.13680957285E+02 -0.42106748007E+02  0.45045682347E+02  0.00000000000E+00 0. -1.
         11    1    3    3    0    0 -0.17418253359E+01  0.45889762463E+00  0.30561120595E+01  0.35474446736E+01  0.51100000000E-03 0. -1.
        -11    1    3    3    0    0 -0.32163748493E+01 -0.66976651232E+01  0.27271055856E+02  0.28265071608E+02  0.51100000000E-03 0.  1.
         12    1    3    3    0    0 -0.33464176936E+01 -0.74421897862E+01  0.11779580092E+02  0.14329801371E+02  0.00000000000E+00 0. -1.
</event>
<event>
 7    1  0.2328810E-008  0.4614232E+02  0.7816164E-02  0.1320468E+00
        -11   -1    0    0    0    0  0.00000000000E+00  0.00000000000E+00  0.45593999997E+02  0.45594000000E+02  0.51100000000E-03 0.  1.
         11   -1    0    0    0    0 -0.00000000000E+00 -0.00000000000E+00 -0.45593999997E+02  0.45594000000E+02  0.51100000000E-03 0. -1.
    9900012    2    1    2    0    0  0.11573866745E+02  0.22478883238E+02  0.37280811389E+02  0.46142317844E+02  0.10000000759E+02 0.  0.
         12    1    1    2    0    0 -0.11573866745E+02 -0.22478883238E+02 -0.37280811389E+02  0.45045682156E+02  0.00000000000E+00 0. -1.
         11    1    3    3    0    0  0.53079011736E+01  0.16548317163E+02  0.22753231235E+02  0.28630929913E+02  0.51100000000E-03 0. -1.
        -11    1    3    3    0    0  0.14729234910E+01  0.35748629699E+01  0.91454885448E+01  0.99292048950E+01  0.51100000000E-03 0.  1.
         12    1    3    3    0    0  0.47930420803E+01  0.23557031048E+01  0.53820916092E+01  0.75821830359E+01  0.00000000000E+00 0. -1.
</event>
<event>
 7    1  0.2328810E-008  0.4614232E+02  0.7816164E-02  0.1320468E+00
        -11   -1    0    0    0    0  0.00000000000E+00  0.00000000000E+00  0.45593999997E+02  0.45594000000E+02  0.51100000000E-03 0. -1.
         11   -1    0    0    0    0 -0.00000000000E+00 -0.00000000000E+00 -0.45593999997E+02  0.45594000000E+02  0.51100000000E-03 0.  1.
    9900012    2    1    2    0    0 -0.15712050918E+02 -0.17349201356E+02 -0.38487012969E+02  0.46142317642E+02  0.99999989179E+01 0.  0.
         12    1    1    2    0    0  0.15712050918E+02  0.17349201356E+02  0.38487012969E+02  0.45045682358E+02  0.00000000000E+00 0. -1.
         11    1    3    3    0    0 -0.15442346297E+01  0.30110316812E+00 -0.45898659316E+01  0.48520298063E+01  0.51100000000E-03 0. -1.
        -11    1    3    3    0    0 -0.60657109696E+01 -0.12452923351E+02 -0.18110159763E+02  0.22800132378E+02  0.51100000000E-03 0.  1.
        -12    1    3    3    0    0 -0.81021053189E+01 -0.51973811739E+01 -0.15786987275E+02  0.18490155458E+02  0.00000000000E+00 0.  1.
</event>
<event>
 7    1  0.2328810E-008  0.4614232E+02  0.7816164E-02  0.1320468E+00
        -11   -1    0    0    0    0  0.00000000000E+00  0.00000000000E+00  0.45593999997E+02  0.45594000000E+02  0.51100000000E-03 0. -1.
         11   -1    0    0    0    0 -0.00000000000E+00 -0.00000000000E+00 -0.45593999997E+02  0.45594000000E+02  0.51100000000E-03 0.  1.
    9900012    2    1    2    0    0  0.61638517623E+01  0.33183090599E+02 -0.29832917122E+02  0.46142317474E+02  0.99999973801E+01 0.  0.
         12    1    1    2    0    0 -0.61638517623E+01 -0.33183090599E+02  0.29832917122E+02  0.45045682526E+02  0.00000000000E+00 0. -1.
         11    1    3    3    0    0  0.27685160254E+01  0.16066557542E+02 -0.82103014952E+01  0.18253985952E+02  0.51100000000E-03 0. -1.
        -11    1    3    3    0    0  0.15453388843E+01  0.32481021352E+01 -0.50378547056E+01  0.61901712451E+01  0.51100000000E-03 0.  1.
         12    1    3    3    0    0  0.18499968527E+01  0.13868430922E+02 -0.16584760921E+02  0.21698160277E+02  0.00000000000E+00 0. -1.
</event>
<event>
 7    1  0.2328810E-008  0.4614232E+02  0.7816164E-02  0.1320468E+00
        -11   -1    0    0    0    0  0.00000000000E+00  0.00000000000E+00  0.45593999997E+02  0.45594000000E+02  0.51100000000E-03 0.  1.
         11   -1    0    0    0    0 -0.00000000000E+00 -0.00000000000E+00 -0.45593999997E+02  0.45594000000E+02  0.51100000000E-03 0. -1.
    9900012    2    1    2    0    0 -0.36327043279E+02 -0.21140092731E+02  0.16203576954E+02  0.46142317630E+02  0.99999988022E+01 0.  0.
         12    1    1    2    0    0  0.36327043279E+02  0.21140092731E+02 -0.16203576954E+02  0.45045682370E+02  0.00000000000E+00 0. -1.
         11    1    3    3    0    0 -0.13506282339E+02 -0.46100024008E+01  0.95727937687E+01  0.17184590934E+02  0.51100000000E-03 0. -1.
        -11    1    3    3    0    0 -0.10707959551E+02 -0.79550794358E+01  0.27956996215E+01  0.13629366207E+02  0.51100000000E-03 0.  1.
         12    1    3    3    0    0 -0.12112801389E+02 -0.85750108944E+01  0.38350835639E+01  0.15328360489E+02  0.00000000000E+00 0. -1.
</event>
<event>
 7    1  0.2328810E-008  0.4614233E+02  0.7816164E-02  0.1320468E+00
        -11   -1    0    0    0    0  0.00000000000E+00  0.00000000000E+00  0.45593999997E+02  0.45594000000E+02  0.51100000000E-03 0.  1.
         11   -1    0    0    0    0 -0.00000000000E+00 -0.00000000000E+00 -0.45593999997E+02  0.45594000000E+02  0.51100000000E-03 0. -1.
    9900012    2    1    2    0    0  0.28608509138E+02 -0.29568835738E+02  0.18339846392E+02  0.46142325317E+02  0.10000068900E+02 0.  0.
         12    1    1    2    0    0 -0.28608509138E+02  0.29568835738E+02 -0.18339846392E+02  0.45045674683E+02  0.00000000000E+00 0. -1.
         11    1    3    3    0    0  0.84414633368E+01 -0.66787150516E+01  0.80820041047E+01  0.13460398531E+02  0.51100000000E-03 0. -1.
        -11    1    3    3    0    0  0.55281330907E+01 -0.10352511318E+02  0.44568422213E+01  0.12553811728E+02  0.51100000000E-03 0.  1.
         12    1    3    3    0    0  0.14638912711E+02 -0.12537609368E+02  0.58010000656E+01  0.20128115058E+02  0.00000000000E+00 0. -1.
</event>
<event>
 7    1  0.2328810E-008  0.4614232E+02  0.7816164E-02  0.1320468E+00
        -11   -1    0    0    0    0  0.00000000000E+00  0.00000000000E+00  0.45593999997E+02  0.45594000000E+02  0.51100000000E-03 0.  1.
         11   -1    0    0    0    0 -0.00000000000E+00 -0.00000000000E+00 -0.45593999997E+02  0.45594000000E+02  0.51100000000E-03 0. -1.
    9900012    2    1    2    0    0  0.37258875793E+01 -0.23126920586E+02  0.38475665648E+02  0.46142317176E+02  0.99999946626E+01 0.  0.
         12    1    1    2    0    0 -0.37258875793E+01  0.23126920586E+02 -0.38475665648E+02  0.45045682824E+02  0.00000000000E+00 0. -1.
         11    1    3    3    0    0  0.40013293778E+01 -0.11941243054E+02  0.15280922831E+02  0.19801780862E+02  0.51100000000E-03 0. -1.
        -11    1    3    3    0    0  0.12062816586E+01 -0.30966794455E+01  0.11988682093E+02  0.12440781230E+02  0.51100000000E-03 0.  1.
         12    1    3    3    0    0 -0.14817234571E+01 -0.80889980859E+01  0.11206060724E+02  0.13899755084E+02  0.00000000000E+00 0. -1.
</event>
<event>
 7    1  0.2328810E-008  0.4614232E+02  0.7816164E-02  0.1320468E+00
        -11   -1    0    0    0    0  0.00000000000E+00  0.00000000000E+00  0.45593999997E+02  0.45594000000E+02  0.51100000000E-03 0.  1.
         11   -1    0    0    0    0 -0.00000000000E+00 -0.00000000000E+00 -0.45593999997E+02  0.45594000000E+02  0.51100000000E-03 0. -1.
    9900012    2    1    2    0    0  0.19559253139E+02 -0.39925628855E+02 -0.72452213869E+01  0.46142318123E+02  0.10000003297E+02 0.  0.
         12    1    1    2    0    0 -0.19559253139E+02  0.39925628855E+02  0.72452213869E+01  0.45045681877E+02  0.00000000000E+00 0. -1.
         11    1    3    3    0    0  0.14176812975E+02 -0.21740633967E+02 -0.63518265533E+01  0.26720458309E+02  0.51100000000E-03 0. -1.
        -11    1    3    3    0    0  0.19310500540E+01 -0.66038812753E+01 -0.23026333821E+01  0.72555029435E+01  0.51100000000E-03 0.  1.
         12    1    3    3    0    0  0.34513901103E+01 -0.11581113613E+02  0.14092385485E+01  0.12166356870E+02  0.00000000000E+00 0. -1.
</event>
<event>
 7    1  0.2328810E-008  0.4614232E+02  0.7816164E-02  0.1320468E+00
        -11   -1    0    0    0    0  0.00000000000E+00  0.00000000000E+00  0.45593999997E+02  0.45594000000E+02  0.51100000000E-03 0. -1.
         11   -1    0    0    0    0 -0.00000000000E+00 -0.00000000000E+00 -0.45593999997E+02  0.45594000000E+02  0.51100000000E-03 0.  1.
    9900012    2    1    2    0    0  0.75589644695E+01  0.15829867118E+02 -0.41489649165E+02  0.46142316248E+02  0.99999862052E+01 0.  0.
         12    1    1    2    0    0 -0.75589644695E+01 -0.15829867118E+02  0.41489649165E+02  0.45045683752E+02  0.00000000000E+00 0. -1.
         11    1    3    3    0    0  0.30591140463E+01  0.60990615379E+00 -0.35694697377E+01  0.47403880362E+01  0.51100000000E-03 0. -1.
        -11    1    3    3    0    0  0.91660274345E+00  0.15203302852E+01 -0.93266371224E+01  0.94940889525E+01  0.51100000000E-03 0.  1.
        -12    1    3    3    0    0  0.35832476798E+01  0.13699630679E+02 -0.28593542305E+02  0.31907839260E+02  0.00000000000E+00 0.  1.
</event>
<event>
 7    1  0.2328810E-008  0.4614232E+02  0.7816164E-02  0.1320468E+00
        -11   -1    0    0    0    0  0.00000000000E+00  0.00000000000E+00  0.45593999997E+02  0.45594000000E+02  0.51100000000E-03 0. -1.
         11   -1    0    0    0    0 -0.00000000000E+00 -0.00000000000E+00 -0.45593999997E+02  0.45594000000E+02  0.51100000000E-03 0.  1.
    9900012    2    1    2    0    0 -0.42032747145E+02  0.48630591781E+01 -0.15450319572E+02  0.46142317055E+02  0.99999935612E+01 0.  0.
         12    1    1    2    0    0  0.42032747145E+02 -0.48630591781E+01  0.15450319572E+02  0.45045682945E+02  0.00000000000E+00 0. -1.
         11    1    3    3    0    0 -0.40014223711E+00 -0.40379608967E-01  0.25184138289E+00  0.47451940529E+00  0.51100000000E-03 0. -1.
        -11    1    3    3    0    0 -0.35132324574E+02  0.72955860365E+01 -0.14139563493E+02  0.38567253747E+02  0.51100000000E-03 0.  1.
        -12    1    3    3    0    0 -0.65002803341E+01 -0.23921472494E+01 -0.15625974614E+01  0.71005439025E+01  0.00000000000E+00 0.  1.
</event>
<event>
 7    1  0.2328810E-008  0.4614232E+02  0.7816164E-02  0.1320468E+00
        -11   -1    0    0    0    0  0.00000000000E+00  0.00000000000E+00  0.45593999997E+02  0.45594000000E+02  0.51100000000E-03 0. -1.
         11   -1    0    0    0    0 -0.00000000000E+00 -0.00000000000E+00 -0.45593999997E+02  0.45594000000E+02  0.51100000000E-03 0.  1.
    9900012    2    1    2    0    0  0.39978644686E+02 -0.20512977318E+02  0.31684621190E+01  0.46142318503E+02  0.10000006765E+02 0.  0.
         12    1    1    2    0    0 -0.39978644686E+02  0.20512977318E+02 -0.31684621190E+01  0.45045681497E+02  0.00000000000E+00 0. -1.
         11    1    3    3    0    0  0.14560470690E+02 -0.73693831424E+01  0.18902538387E+01  0.16428273630E+02  0.51100000000E-03 0. -1.
        -11    1    3    3    0    0  0.17135128462E+02 -0.10713649570E+02 -0.23608487742E+01  0.20346216398E+02  0.51100000000E-03 0.  1.
         12    1    3    3    0    0  0.82830455337E+01 -0.24299446051E+01  0.36390570544E+01  0.93678284753E+01  0.00000000000E+00 0. -1.
</event>
<event>
 7    1  0.2328810E-008  0.4614232E+02  0.7816164E-02  0.1320468E+00
        -11   -1    0    0    0    0  0.00000000000E+00  0.00000000000E+00  0.45593999997E+02  0.45594000000E+02  0.51100000000E-03 0. -1.
         11   -1    0    0    0    0 -0.00000000000E+00 -0.00000000000E+00 -0.45593999997E+02  0.45594000000E+02  0.51100000000E-03 0.  1.
    9900012    2    1    2    0    0 -0.25524926881E+02 -0.36036851963E+02 -0.88846397483E+01  0.46142318574E+02  0.10000007409E+02 0.  0.
         12    1    1    2    0    0  0.25524926881E+02  0.36036851963E+02  0.88846397483E+01  0.45045681426E+02  0.00000000000E+00 0. -1.
         11    1    3    3    0    0 -0.20038249255E+02 -0.26580874353E+02 -0.25094643265E+01  0.33382206728E+02  0.51100000000E-03 0. -1.
        -11    1    3    3    0    0 -0.34349885802E+01 -0.63943187857E+01 -0.33607650964E+01  0.79988250120E+01  0.51100000000E-03 0.  1.
         12    1    3    3    0    0 -0.20516890463E+01 -0.30616588245E+01 -0.30144103254E+01  0.47612868334E+01  0.00000000000E+00 0. -1.
</event>
<event>
 7    1  0.2328810E-008  0.4614232E+02  0.7816164E-02  0.1320468E+00
        -11   -1    0    0    0    0  0.00000000000E+00  0.00000000000E+00  0.45593999997E+02  0.45594000000E+02  0.51100000000E-03 0.  1.
         11   -1    0    0    0    0 -0.00000000000E+00 -0.00000000000E+00 -0.45593999997E+02  0.45594000000E+02  0.51100000000E-03 0. -1.
    9900012    2    1    2    0    0 -0.18085629301E+02  0.14933180982E+01  0.41228550656E+02  0.46142319016E+02  0.10000011443E+02 0.  0.
         12    1    1    2    0    0  0.18085629301E+02 -0.14933180982E+01 -0.41228550656E+02  0.45045680984E+02  0.00000000000E+00 0. -1.
         11    1    3    3    0    0 -0.38540219069E+01  0.19382625186E+01  0.12391207112E+02  0.13120684449E+02  0.51100000000E-03 0. -1.
        -11    1    3    3    0    0 -0.14370221939E+02  0.82466141722E+00  0.28032680154E+02  0.31512132615E+02  0.51100000000E-03 0.  1.
         12    1    3    3    0    0  0.13861454495E+00 -0.12696058375E+01  0.80466338923E+00  0.15095019526E+01  0.00000000000E+00 0. -1.
</event>
<event>
 7    1  0.2328810E-008  0.4614232E+02  0.7816164E-02  0.1320468E+00
        -11   -1    0    0    0    0  0.00000000000E+00  0.00000000000E+00  0.45593999997E+02  0.45594000000E+02  0.51100000000E-03 0.  1.
         11   -1    0    0    0    0 -0.00000000000E+00 -0.00000000000E+00 -0.45593999997E+02  0.45594000000E+02  0.51100000000E-03 0. -1.
    9900012    2    1    2    0    0 -0.20022636875E+02  0.26526222344E+02  0.30406694946E+02  0.46142317001E+02  0.99999930681E+01 0.  0.
         12    1    1    2    0    0  0.20022636875E+02 -0.26526222344E+02 -0.30406694946E+02  0.45045682999E+02  0.00000000000E+00 0. -1.
         11    1    3    3    0    0 -0.69490528607E+01  0.87561535080E+01  0.15270049582E+02  0.18924427981E+02  0.51100000000E-03 0. -1.
        -11    1    3    3    0    0 -0.10027492523E+02  0.16304360705E+02  0.13731487680E+02  0.23557091044E+02  0.51100000000E-03 0.  1.
         12    1    3    3    0    0 -0.30460914919E+01  0.14657081316E+01  0.14051576848E+01  0.36607979763E+01  0.00000000000E+00 0. -1.
</event>
<event>
 7    1  0.2328810E-008  0.4614232E+02  0.7816164E-02  0.1320468E+00
        -11   -1    0    0    0    0  0.00000000000E+00  0.00000000000E+00  0.45593999997E+02  0.45594000000E+02  0.51100000000E-03 0.  1.
         11   -1    0    0    0    0 -0.00000000000E+00 -0.00000000000E+00 -0.45593999997E+02  0.45594000000E+02  0.51100000000E-03 0. -1.
    9900012    2    1    2    0    0 -0.22140011415E+02 -0.99519221747E+01  0.37945914785E+02  0.46142319749E+02  0.10000018126E+02 0.  0.
         12    1    1    2    0    0  0.22140011415E+02  0.99519221747E+01 -0.37945914785E+02  0.45045680251E+02  0.00000000000E+00 0. -1.
         11    1    3    3    0    0 -0.86198744709E+01 -0.56454352329E+01  0.10503691342E+02  0.14713962992E+02  0.51100000000E-03 0. -1.
        -11    1    3    3    0    0 -0.11118899971E+02 -0.17692795397E+01  0.24069552088E+02  0.26572610422E+02  0.51100000000E-03 0.  1.
         12    1    3    3    0    0 -0.24012369723E+01 -0.25372074020E+01  0.33726713552E+01  0.48557463348E+01  0.00000000000E+00 0. -1.
</event>
<event>
 7    1  0.2328810E-008  0.4614232E+02  0.7816164E-02  0.1320468E+00
        -11   -1    0    0    0    0  0.00000000000E+00  0.00000000000E+00  0.45593999997E+02  0.45594000000E+02  0.51100000000E-03 0.  1.
         11   -1    0    0    0    0 -0.00000000000E+00 -0.00000000000E+00 -0.45593999997E+02  0.45594000000E+02  0.51100000000E-03 0. -1.
    9900012    2    1    2    0    0 -0.18222379277E+02 -0.28031300577E+01  0.41099888648E+02  0.46142317726E+02  0.99999996784E+01 0.  0.
         12    1    1    2    0    0  0.18222379277E+02  0.28031300577E+01 -0.41099888648E+02  0.45045682274E+02  0.00000000000E+00 0. -1.
         11    1    3    3    0    0 -0.14084950567E+02  0.50527948386E+00  0.32139166715E+02  0.35093691417E+02  0.51100000000E-03 0.  1.
        -11    1    3    3    0    0 -0.23382257307E+01 -0.26294384092E+01  0.83002967121E+01  0.90153298157E+01  0.51100000000E-03 0. -1.
        -12    1    3    3    0    0 -0.17992029788E+01 -0.67897113236E+00  0.66042522113E+00  0.20332964935E+01  0.00000000000E+00 0.  1.
</event>
<event>
 7    1  0.2328810E-008  0.4614232E+02  0.7816164E-02  0.1320468E+00
        -11   -1    0    0    0    0  0.00000000000E+00  0.00000000000E+00  0.45593999997E+02  0.45594000000E+02  0.51100000000E-03 0. -1.
         11   -1    0    0    0    0 -0.00000000000E+00 -0.00000000000E+00 -0.45593999997E+02  0.45594000000E+02  0.51100000000E-03 0.  1.
    9900012    2    1    2    0    0  0.57675578933E+01 -0.37931516389E+02 -0.23601881138E+02  0.46142318155E+02  0.10000003590E+02 0.  0.
         12    1    1    2    0    0 -0.57675578933E+01  0.37931516389E+02  0.23601881138E+02  0.45045681845E+02  0.00000000000E+00 0. -1.
         11    1    3    3    0    0 -0.17862659804E+01 -0.62800108555E+01 -0.58132339937E+01  0.87420233484E+01  0.51100000000E-03 0. -1.
        -11    1    3    3    0    0  0.25776535349E+01 -0.55405117363E+01 -0.50359266909E+01  0.79184673986E+01  0.51100000000E-03 0.  1.
        -12    1    3    3    0    0  0.49761703388E+01 -0.26110993797E+02 -0.12752720454E+02  0.29481827408E+02  0.00000000000E+00 0.  1.
</event>
<event>
 7    1  0.2328810E-008  0.4614232E+02  0.7816164E-02  0.1320468E+00
        -11   -1    0    0    0    0  0.00000000000E+00  0.00000000000E+00  0.45593999997E+02  0.45594000000E+02  0.51100000000E-03 0. -1.
         11   -1    0    0    0    0 -0.00000000000E+00 -0.00000000000E+00 -0.45593999997E+02  0.45594000000E+02  0.51100000000E-03 0.  1.
    9900012    2    1    2    0    0 -0.26830492744E+02 -0.23767456695E+02 -0.27282707121E+02  0.46142318226E+02  0.10000004241E+02 0.  0.
         12    1    1    2    0    0  0.26830492744E+02  0.23767456695E+02  0.27282707121E+02  0.45045681774E+02  0.00000000000E+00 0. -1.
         11    1    3    3    0    0 -0.42930086704E+01 -0.29061657283E+01 -0.56410748557E+01  0.76614260078E+01  0.51100000000E-03 0. -1.
        -11    1    3    3    0    0 -0.20569002668E+02 -0.15465593571E+02 -0.19730285475E+02  0.32427652096E+02  0.51100000000E-03 0.  1.
         12    1    3    3    0    0 -0.19684814053E+01 -0.53956973957E+01 -0.19113467904E+01  0.60532401226E+01  0.00000000000E+00 0. -1.
</event>
<event>
 7    1  0.2328810E-008  0.4614232E+02  0.7816164E-02  0.1320468E+00
        -11   -1    0    0    0    0  0.00000000000E+00  0.00000000000E+00  0.45593999997E+02  0.45594000000E+02  0.51100000000E-03 0. -1.
         11   -1    0    0    0    0 -0.00000000000E+00 -0.00000000000E+00 -0.45593999997E+02  0.45594000000E+02  0.51100000000E-03 0.  1.
    9900012    2    1    2    0    0 -0.39059928786E+02 -0.22155089134E+02  0.35478797735E+01  0.46142318052E+02  0.10000002653E+02 0.  0.
         12    1    1    2    0    0  0.39059928786E+02  0.22155089134E+02 -0.35478797735E+01  0.45045681948E+02  0.00000000000E+00 0. -1.
         11    1    3    3    0    0 -0.10597385808E+02 -0.54832191642E+01  0.78923090208E+00  0.11957974914E+02  0.51100000000E-03 0.  1.
        -11    1    3    3    0    0 -0.25231759154E+02 -0.11149800850E+02  0.12646661493E+01  0.27614472831E+02  0.51100000000E-03 0. -1.
         12    1    3    3    0    0 -0.32307838241E+01 -0.55220691200E+01  0.14939827220E+01  0.65698703076E+01  0.00000000000E+00 0. -1.
</event>
<event>
 7    1  0.2328810E-008  0.4614232E+02  0.7816164E-02  0.1320468E+00
        -11   -1    0    0    0    0  0.00000000000E+00  0.00000000000E+00  0.45593999997E+02  0.45594000000E+02  0.51100000000E-03 0.  1.
         11   -1    0    0    0    0 -0.00000000000E+00 -0.00000000000E+00 -0.45593999997E+02  0.45594000000E+02  0.51100000000E-03 0. -1.
    9900012    2    1    2    0    0 -0.17675147165E+02  0.36392802177E+02  0.19805721208E+02  0.46142317963E+02  0.10000001841E+02 0.  0.
         12    1    1    2    0    0  0.17675147165E+02 -0.36392802177E+02 -0.19805721208E+02  0.45045682037E+02  0.00000000000E+00 0. -1.
         11    1    3    3    0    0 -0.33279595073E+00  0.37973390294E+00  0.12037805923E+01  0.13053884316E+01  0.51100000000E-03 0. -1.
        -11    1    3    3    0    0 -0.13086965615E+02  0.30581950461E+02  0.12219185201E+02  0.35437732013E+02  0.51100000000E-03 0.  1.
        -12    1    3    3    0    0 -0.42553855993E+01  0.54311178133E+01  0.63827554146E+01  0.93991975180E+01  0.00000000000E+00 0.  1.
</event>
<event>
 7    1  0.2328810E-008  0.4614232E+02  0.7816164E-02  0.1320468E+00
        -11   -1    0    0    0    0  0.00000000000E+00  0.00000000000E+00  0.45593999997E+02  0.45594000000E+02  0.51100000000E-03 0.  1.
         11   -1    0    0    0    0 -0.00000000000E+00 -0.00000000000E+00 -0.45593999997E+02  0.45594000000E+02  0.51100000000E-03 0. -1.
    9900012    2    1    2    0    0  0.33950217114E+02 -0.29451375420E+02  0.30186904669E+01  0.46142320425E+02  0.10000024291E+02 0.  0.
         12    1    1    2    0    0 -0.33950217114E+02  0.29451375420E+02 -0.30186904669E+01  0.45045679575E+02  0.00000000000E+00 0. -1.
         11    1    3    3    0    0  0.27521907011E+01 -0.38283285450E+01  0.16163006103E+01  0.49842834016E+01  0.51100000000E-03 0.  1.
        -11    1    3    3    0    0  0.11190453032E+02 -0.61809832889E+01 -0.23836684740E+01  0.13004332706E+02  0.51100000000E-03 0. -1.
         12    1    3    3    0    0  0.20007573381E+02 -0.19442063586E+02  0.37860583306E+01  0.28153704317E+02  0.00000000000E+00 0. -1.
</event>
<event>
 7    1  0.2328810E-008  0.4614232E+02  0.7816164E-02  0.1320468E+00
        -11   -1    0    0    0    0  0.00000000000E+00  0.00000000000E+00  0.45593999997E+02  0.45594000000E+02  0.51100000000E-03 0. -1.
         11   -1    0    0    0    0 -0.00000000000E+00 -0.00000000000E+00 -0.45593999997E+02  0.45594000000E+02  0.51100000000E-03 0.  1.
    9900012    2    1    2    0    0 -0.62777981829E+01  0.38189788765E+02 -0.23048704691E+02  0.46142317589E+02  0.99999984328E+01 0.  0.
         12    1    1    2    0    0  0.62777981829E+01 -0.38189788765E+02  0.23048704691E+02  0.45045682411E+02  0.00000000000E+00 0. -1.
         11    1    3    3    0    0  0.44709009525E+00  0.86425348785E+01 -0.40669812380E+01  0.95620936688E+01  0.51100000000E-03 0. -1.
        -11    1    3    3    0    0 -0.31361969838E+01  0.11196748711E+02 -0.30647768465E+01  0.12024798152E+02  0.51100000000E-03 0.  1.
        -12    1    3    3    0    0 -0.35886912943E+01  0.18350505175E+02 -0.15916946606E+02  0.24555425768E+02  0.00000000000E+00 0.  1.
</event>
<event>
 7    1  0.2328810E-008  0.4614232E+02  0.7816164E-02  0.1320468E+00
        -11   -1    0    0    0    0  0.00000000000E+00  0.00000000000E+00  0.45593999997E+02  0.45594000000E+02  0.51100000000E-03 0.  1.
         11   -1    0    0    0    0 -0.00000000000E+00 -0.00000000000E+00 -0.45593999997E+02  0.45594000000E+02  0.51100000000E-03 0. -1.
    9900012    2    1    2    0    0 -0.37337569538E+02 -0.78500790554E+01  0.23945680411E+02  0.46142318181E+02  0.10000003826E+02 0.  0.
         12    1    1    2    0    0  0.37337569538E+02  0.78500790554E+01 -0.23945680411E+02  0.45045681819E+02  0.00000000000E+00 0. -1.
         11    1    3    3    0    0 -0.88457818476E+01  0.67489425373E+00  0.20738791775E+01  0.91106703295E+01  0.51100000000E-03 0. -1.
        -11    1    3    3    0    0 -0.12247552964E+02 -0.31397364903E+01  0.76318383208E+01  0.14768393794E+02  0.51100000000E-03 0.  1.
         12    1    3    3    0    0 -0.16244234727E+02 -0.53852368188E+01  0.14239962913E+02  0.22263254057E+02  0.00000000000E+00 0. -1.
</event>
<event>
 7    1  0.2328810E-008  0.4614232E+02  0.7816164E-02  0.1320468E+00
        -11   -1    0    0    0    0  0.00000000000E+00  0.00000000000E+00  0.45593999997E+02  0.45594000000E+02  0.51100000000E-03 0.  1.
         11   -1    0    0    0    0 -0.00000000000E+00 -0.00000000000E+00 -0.45593999997E+02  0.45594000000E+02  0.51100000000E-03 0. -1.
    9900012    2    1    2    0    0 -0.17018877210E+02  0.33964918486E+02 -0.24204453272E+02  0.46142318438E+02  0.10000006168E+02 0.  0.
         12    1    1    2    0    0  0.17018877210E+02 -0.33964918486E+02  0.24204453272E+02  0.45045681562E+02  0.00000000000E+00 0. -1.
         11    1    3    3    0    0 -0.55973400768E+01  0.12558151279E+02 -0.53057773477E+01  0.14737321772E+02  0.51100000000E-03 0.  1.
        -11    1    3    3    0    0 -0.52809816977E+01  0.13139615850E+02 -0.14304564738E+02  0.20128557946E+02  0.51100000000E-03 0. -1.
         12    1    3    3    0    0 -0.61405554354E+01  0.82671513565E+01 -0.45941111863E+01  0.11276438720E+02  0.00000000000E+00 0. -1.
</event>
<event>
 7    1  0.2328810E-008  0.4614232E+02  0.7816164E-02  0.1320468E+00
        -11   -1    0    0    0    0  0.00000000000E+00  0.00000000000E+00  0.45593999997E+02  0.45594000000E+02  0.51100000000E-03 0. -1.
         11   -1    0    0    0    0 -0.00000000000E+00 -0.00000000000E+00 -0.45593999997E+02  0.45594000000E+02  0.51100000000E-03 0.  1.
    9900012    2    1    2    0    0 -0.13048989269E+02 -0.21414405598E+00 -0.43113703848E+02  0.46142318319E+02  0.10000005086E+02 0.  0.
         12    1    1    2    0    0  0.13048989269E+02  0.21414405598E+00  0.43113703848E+02  0.45045681681E+02  0.00000000000E+00 0. -1.
         11    1    3    3    0    0 -0.13608529162E+01  0.24502899067E+01 -0.11032718212E+02  0.11383176740E+02  0.51100000000E-03 0.  1.
        -11    1    3    3    0    0 -0.64023885062E+00  0.66246123595E+00 -0.33306410869E+00  0.97963903383E+00  0.51100000000E-03 0. -1.
         12    1    3    3    0    0 -0.11047897502E+02 -0.33268951986E+01 -0.31747921528E+02  0.33779502545E+02  0.00000000000E+00 0. -1.
</event>
<event>
 7    1  0.2328810E-008  0.4614232E+02  0.7816164E-02  0.1320468E+00
        -11   -1    0    0    0    0  0.00000000000E+00  0.00000000000E+00  0.45593999997E+02  0.45594000000E+02  0.51100000000E-03 0. -1.
         11   -1    0    0    0    0 -0.00000000000E+00 -0.00000000000E+00 -0.45593999997E+02  0.45594000000E+02  0.51100000000E-03 0.  1.
    9900012    2    1    2    0    0 -0.33959158216E+02 -0.29433890871E+02  0.30879083375E+01  0.46142317228E+02  0.99999951371E+01 0.  0.
         12    1    1    2    0    0  0.33959158216E+02  0.29433890871E+02 -0.30879083375E+01  0.45045682772E+02  0.00000000000E+00 0. -1.
         11    1    3    3    0    0 -0.99944983751E+01 -0.97084402776E+01  0.13022254292E+01  0.13994270318E+02  0.51100000000E-03 0. -1.
        -11    1    3    3    0    0 -0.85841202259E+01 -0.85405255230E+01  0.45401409079E+01  0.12932152798E+02  0.51100000000E-03 0.  1.
         12    1    3    3    0    0 -0.15380539615E+02 -0.11184925070E+02 -0.27544579997E+01  0.19215894112E+02  0.00000000000E+00 0. -1.
</event>
<event>
 7    1  0.2328810E-008  0.4614231E+02  0.7816164E-02  0.1320468E+00
        -11   -1    0    0    0    0  0.00000000000E+00  0.00000000000E+00  0.45593999997E+02  0.45594000000E+02  0.51100000000E-03 0.  1.
         11   -1    0    0    0    0 -0.00000000000E+00 -0.00000000000E+00 -0.45593999997E+02  0.45594000000E+02  0.51100000000E-03 0. -1.
    9900012    2    1    2    0    0 -0.15313903185E+02  0.10333896422E+02  0.41082949327E+02  0.46142314620E+02  0.99999713526E+01 0.  0.
         12    1    1    2    0    0  0.15313903185E+02 -0.10333896422E+02 -0.41082949327E+02  0.45045685380E+02  0.00000000000E+00 0. -1.
         11    1    3    3    0    0 -0.11702197525E+02  0.11237204866E+02  0.34211250829E+02  0.37863252418E+02  0.51100000000E-03 0. -1.
        -11    1    3    3    0    0 -0.50539962830E+00  0.87137184853E+00  0.19461715912E+01  0.21914154800E+01  0.51100000000E-03 0.  1.
         12    1    3    3    0    0 -0.31063060310E+01 -0.17746802924E+01  0.49255269062E+01  0.60876467212E+01  0.00000000000E+00 0. -1.
</event>
<event>
 7    1  0.2328810E-008  0.4614232E+02  0.7816164E-02  0.1320468E+00
        -11   -1    0    0    0    0  0.00000000000E+00  0.00000000000E+00  0.45593999997E+02  0.45594000000E+02  0.51100000000E-03 0.  1.
         11   -1    0    0    0    0 -0.00000000000E+00 -0.00000000000E+00 -0.45593999997E+02  0.45594000000E+02  0.51100000000E-03 0. -1.
    9900012    2    1    2    0    0  0.27730210817E+02  0.27497154181E+01  0.35391919770E+02  0.46142317501E+02  0.99999976256E+01 0.  0.
         12    1    1    2    0    0 -0.27730210817E+02 -0.27497154181E+01 -0.35391919770E+02  0.45045682499E+02  0.00000000000E+00 0. -1.
         11    1    3    3    0    0  0.93161930920E+01 -0.32408245860E+00  0.15643494797E+02  0.18210310621E+02  0.51100000000E-03 0. -1.
        -11    1    3    3    0    0  0.64639601100E+01  0.25591150170E+01  0.11374854079E+02  0.13331134819E+02  0.51100000000E-03 0.  1.
         12    1    3    3    0    0  0.11950057615E+02  0.51468285966E+00  0.83735708936E+01  0.14600872061E+02  0.00000000000E+00 0. -1.
</event>
<event>
 7    1  0.2328810E-008  0.4614232E+02  0.7816164E-02  0.1320468E+00
        -11   -1    0    0    0    0  0.00000000000E+00  0.00000000000E+00  0.45593999997E+02  0.45594000000E+02  0.51100000000E-03 0.  1.
         11   -1    0    0    0    0 -0.00000000000E+00 -0.00000000000E+00 -0.45593999997E+02  0.45594000000E+02  0.51100000000E-03 0. -1.
    9900012    2    1    2    0    0  0.33722740727E+02 -0.12560151650E+02  0.27094885611E+02  0.46142317878E+02  0.10000001063E+02 0.  0.
         12    1    1    2    0    0 -0.33722740727E+02  0.12560151650E+02 -0.27094885611E+02  0.45045682122E+02  0.00000000000E+00 0. -1.
         11    1    3    3    0    0  0.17471086540E+02 -0.65110599300E+01  0.18584092949E+02  0.26324917422E+02  0.51100000000E-03 0. -1.
        -11    1    3    3    0    0  0.98354257678E+01 -0.55267193199E+01  0.67359432491E+01  0.13139754876E+02  0.51100000000E-03 0.  1.
        -12    1    3    3    0    0  0.64162284193E+01 -0.52237240014E+00  0.17748494128E+01  0.66776455800E+01  0.00000000000E+00 0.  1.
</event>
<event>
 7    1  0.2328810E-008  0.4614232E+02  0.7816164E-02  0.1320468E+00
        -11   -1    0    0    0    0  0.00000000000E+00  0.00000000000E+00  0.45593999997E+02  0.45594000000E+02  0.51100000000E-03 0. -1.
         11   -1    0    0    0    0 -0.00000000000E+00 -0.00000000000E+00 -0.45593999997E+02  0.45594000000E+02  0.51100000000E-03 0.  1.
    9900012    2    1    2    0    0  0.14761589020E+02 -0.24298233287E+02 -0.34940017523E+02  0.46142317901E+02  0.10000001278E+02 0.  0.
         12    1    1    2    0    0 -0.14761589020E+02  0.24298233287E+02  0.34940017523E+02  0.45045682099E+02  0.00000000000E+00 0. -1.
         11    1    3    3    0    0  0.11710154155E+02 -0.18313667545E+02 -0.24737157789E+02  0.32930914123E+02  0.51100000000E-03 0. -1.
        -11    1    3    3    0    0  0.27764005872E+00 -0.51351968215E+01 -0.82248911269E+01  0.97003177633E+01  0.51100000000E-03 0.  1.
         12    1    3    3    0    0  0.27737948064E+01 -0.84936892067E+00 -0.19779686068E+01  0.35110860145E+01  0.00000000000E+00 0. -1.
</event>
<event>
 7    1  0.2328810E-008  0.4614231E+02  0.7816164E-02  0.1320468E+00
        -11   -1    0    0    0    0  0.00000000000E+00  0.00000000000E+00  0.45593999997E+02  0.45594000000E+02  0.51100000000E-03 0.  1.
         11   -1    0    0    0    0 -0.00000000000E+00 -0.00000000000E+00 -0.45593999997E+02  0.45594000000E+02  0.51100000000E-03 0. -1.
    9900012    2    1    2    0    0  0.35981774535E+02  0.36660385062E+01  0.26851187959E+02  0.46142309509E+02  0.99999247498E+01 0.  0.
         12    1    1    2    0    0 -0.35981774535E+02 -0.36660385062E+01 -0.26851187959E+02  0.45045690491E+02  0.00000000000E+00 0. -1.
         11    1    3    3    0    0  0.67213904303E+01  0.14192390292E+01  0.36635862561E+01  0.77854475309E+01  0.51100000000E-03 0. -1.
        -11    1    3    3    0    0  0.12796595877E+02  0.25451799763E+01  0.15272541370E+02  0.20086844633E+02  0.51100000000E-03 0.  1.
        -12    1    3    3    0    0  0.16463788227E+02 -0.29838049923E+00  0.79150603334E+01  0.18270017345E+02  0.00000000000E+00 0.  1.
</event>
<event>
 7    1  0.2328810E-008  0.4614232E+02  0.7816164E-02  0.1320468E+00
        -11   -1    0    0    0    0  0.00000000000E+00  0.00000000000E+00  0.45593999997E+02  0.45594000000E+02  0.51100000000E-03 0.  1.
         11   -1    0    0    0    0 -0.00000000000E+00 -0.00000000000E+00 -0.45593999997E+02  0.45594000000E+02  0.51100000000E-03 0. -1.
    9900012    2    1    2    0    0 -0.37204387709E+02  0.24956855522E+02 -0.47012822294E+01  0.46142321440E+02  0.10000033549E+02 0.  0.
         12    1    1    2    0    0  0.37204387709E+02 -0.24956855522E+02  0.47012822294E+01  0.45045678560E+02  0.00000000000E+00 0. -1.
         11    1    3    3    0    0 -0.20816168682E+02  0.10813873120E+02  0.93273661414E+00  0.23476003244E+02  0.51100000000E-03 0. -1.
        -11    1    3    3    0    0 -0.67188325290E+01  0.37078365631E+01 -0.12162934566E+01  0.77698219134E+01  0.51100000000E-03 0.  1.
         12    1    3    3    0    0 -0.96693864974E+01  0.10435145838E+02 -0.44177253869E+01  0.14896496283E+02  0.00000000000E+00 0. -1.
</event>
<event>
 7    1  0.2328810E-008  0.4614232E+02  0.7816164E-02  0.1320468E+00
        -11   -1    0    0    0    0  0.00000000000E+00  0.00000000000E+00  0.45593999997E+02  0.45594000000E+02  0.51100000000E-03 0.  1.
         11   -1    0    0    0    0 -0.00000000000E+00 -0.00000000000E+00 -0.45593999997E+02  0.45594000000E+02  0.51100000000E-03 0. -1.
    9900012    2    1    2    0    0  0.27900077753E+02  0.14543113123E+02  0.32236580708E+02  0.46142316370E+02  0.99999873165E+01 0.  0.
         12    1    1    2    0    0 -0.27900077753E+02 -0.14543113123E+02 -0.32236580708E+02  0.45045683630E+02  0.00000000000E+00 0. -1.
         11    1    3    3    0    0  0.11675331455E+01  0.23915465711E+01  0.59902749360E+01  0.65548472688E+01  0.51100000000E-03 0. -1.
        -11    1    3    3    0    0  0.78402882892E+01  0.45012145681E+01  0.10326058541E+02  0.13724377520E+02  0.51100000000E-03 0.  1.
         12    1    3    3    0    0  0.18892256318E+02  0.76503519835E+01  0.15920247231E+02  0.25863091582E+02  0.00000000000E+00 0. -1.
</event>
<event>
 7    1  0.2328810E-008  0.4614232E+02  0.7816164E-02  0.1320468E+00
        -11   -1    0    0    0    0  0.00000000000E+00  0.00000000000E+00  0.45593999997E+02  0.45594000000E+02  0.51100000000E-03 0.  1.
         11   -1    0    0    0    0 -0.00000000000E+00 -0.00000000000E+00 -0.45593999997E+02  0.45594000000E+02  0.51100000000E-03 0. -1.
    9900012    2    1    2    0    0 -0.37216712089E+01 -0.24528403550E+02  0.37598138925E+02  0.46142317988E+02  0.10000002069E+02 0.  0.
         12    1    1    2    0    0  0.37216712089E+01  0.24528403550E+02 -0.37598138925E+02  0.45045682012E+02  0.00000000000E+00 0. -1.
         11    1    3    3    0    0 -0.21864523249E+01 -0.32128705778E+01  0.84072672401E+01  0.92620329209E+01  0.51100000000E-03 0.  1.
        -11    1    3    3    0    0 -0.39650113103E+00 -0.16959540202E+02  0.17595416826E+02  0.24441397476E+02  0.51100000000E-03 0. -1.
         12    1    3    3    0    0 -0.11387177529E+01 -0.43559927698E+01  0.11595454858E+02  0.12438887591E+02  0.00000000000E+00 0. -1.
</event>
<event>
 7    1  0.2328810E-008  0.4614232E+02  0.7816164E-02  0.1320468E+00
        -11   -1    0    0    0    0  0.00000000000E+00  0.00000000000E+00  0.45593999997E+02  0.45594000000E+02  0.51100000000E-03 0. -1.
         11   -1    0    0    0    0 -0.00000000000E+00 -0.00000000000E+00 -0.45593999997E+02  0.45594000000E+02  0.51100000000E-03 0.  1.
    9900012    2    1    2    0    0 -0.23443462083E+02 -0.20299789595E+02 -0.32671639885E+02  0.46142318466E+02  0.10000006429E+02 0.  0.
         12    1    1    2    0    0  0.23443462083E+02  0.20299789595E+02  0.32671639885E+02  0.45045681534E+02  0.00000000000E+00 0. -1.
         11    1    3    3    0    0 -0.76750512783E+01 -0.33491013206E+01 -0.52575444236E+01  0.98876016003E+01  0.51100000000E-03 0. -1.
        -11    1    3    3    0    0 -0.88107892544E+01 -0.10258363308E+02 -0.19713795743E+02  0.23906019491E+02  0.51100000000E-03 0.  1.
         12    1    3    3    0    0 -0.69576215506E+01 -0.66923249669E+01 -0.77002997187E+01  0.12348697375E+02  0.00000000000E+00 0. -1.
</event>
<event>
 7    1  0.2328810E-008  0.4614232E+02  0.7816164E-02  0.1320468E+00
        -11   -1    0    0    0    0  0.00000000000E+00  0.00000000000E+00  0.45593999997E+02  0.45594000000E+02  0.51100000000E-03 0. -1.
         11   -1    0    0    0    0 -0.00000000000E+00 -0.00000000000E+00 -0.45593999997E+02  0.45594000000E+02  0.51100000000E-03 0.  1.
    9900012    2    1    2    0    0  0.36630380669E+01  0.44000178040E+02 -0.89263457910E+01  0.46142321355E+02  0.10000032773E+02 0.  0.
         12    1    1    2    0    0 -0.36630380669E+01 -0.44000178040E+02  0.89263457910E+01  0.45045678645E+02  0.00000000000E+00 0. -1.
         11    1    3    3    0    0  0.59528201539E+00  0.59839585871E+00  0.91647689522E+00  0.12459407860E+01  0.51100000000E-03 0. -1.
        -11    1    3    3    0    0 -0.17752568243E+00  0.13626668085E+01  0.53362418354E+00  0.14741544116E+01  0.51100000000E-03 0.  1.
        -12    1    3    3    0    0  0.32452817339E+01  0.42039115372E+02 -0.10376446870E+02  0.43422226157E+02  0.00000000000E+00 0.  1.
</event>
<event>
 7    1  0.2328810E-008  0.4614232E+02  0.7816164E-02  0.1320468E+00
        -11   -1    0    0    0    0  0.00000000000E+00  0.00000000000E+00  0.45593999997E+02  0.45594000000E+02  0.51100000000E-03 0.  1.
         11   -1    0    0    0    0 -0.00000000000E+00 -0.00000000000E+00 -0.45593999997E+02  0.45594000000E+02  0.51100000000E-03 0. -1.
    9900012    2    1    2    0    0  0.22825727571E+02 -0.38545520448E+02  0.47267871241E+01  0.46142317607E+02  0.99999985919E+01 0.  0.
         12    1    1    2    0    0 -0.22825727571E+02  0.38545520448E+02 -0.47267871241E+01  0.45045682393E+02  0.00000000000E+00 0. -1.
         11    1    3    3    0    0  0.22565639930E+01 -0.10203345538E+02 -0.45157232614E+00  0.10459649088E+02  0.51100000000E-03 0. -1.
        -11    1    3    3    0    0  0.16113269062E+02 -0.24926283140E+02  0.46554925719E+01  0.30043812049E+02  0.51100000000E-03 0.  1.
        -12    1    3    3    0    0  0.44558945154E+01 -0.34158917704E+01  0.52286687838E+00  0.56388564703E+01  0.00000000000E+00 0.  1.
</event>
<event>
 7    1  0.2328810E-008  0.4614232E+02  0.7816164E-02  0.1320468E+00
        -11   -1    0    0    0    0  0.00000000000E+00  0.00000000000E+00  0.45593999997E+02  0.45594000000E+02  0.51100000000E-03 0. -1.
         11   -1    0    0    0    0 -0.00000000000E+00 -0.00000000000E+00 -0.45593999997E+02  0.45594000000E+02  0.51100000000E-03 0.  1.
    9900012    2    1    2    0    0 -0.54020940362E+01  0.30297814161E+02 -0.32893359920E+02  0.46142319966E+02  0.10000020107E+02 0.  0.
         12    1    1    2    0    0  0.54020940362E+01 -0.30297814161E+02  0.32893359920E+02  0.45045680034E+02  0.00000000000E+00 0. -1.
         11    1    3    3    0    0 -0.62795891470E+01  0.14738490682E+02 -0.13167554712E+02  0.20737426185E+02  0.51100000000E-03 0. -1.
        -11    1    3    3    0    0 -0.11486180909E+01  0.98660380289E+01 -0.13052866447E+02  0.16402297176E+02  0.51100000000E-03 0.  1.
         12    1    3    3    0    0  0.20261132016E+01  0.56932854502E+01 -0.66729387616E+01  0.90025966054E+01  0.00000000000E+00 0. -1.
</event>
<event>
 7    1  0.2328810E-008  0.4614232E+02  0.7816164E-02  0.1320468E+00
        -11   -1    0    0    0    0  0.00000000000E+00  0.00000000000E+00  0.45593999997E+02  0.45594000000E+02  0.51100000000E-03 0.  1.
         11   -1    0    0    0    0 -0.00000000000E+00 -0.00000000000E+00 -0.45593999997E+02  0.45594000000E+02  0.51100000000E-03 0. -1.
    9900012    2    1    2    0    0  0.12463229630E+02 -0.41249342298E+02  0.13125287385E+02  0.46142317613E+02  0.99999986486E+01 0.  0.
         12    1    1    2    0    0 -0.12463229630E+02  0.41249342298E+02 -0.13125287385E+02  0.45045682387E+02  0.00000000000E+00 0. -1.
         11    1    3    3    0    0  0.94438142231E+00 -0.31994998678E+00 -0.89046766728E+00  0.13368459868E+01  0.51100000000E-03 0. -1.
        -11    1    3    3    0    0  0.69223905889E+01 -0.24046794478E+02  0.91581361251E+01  0.26646562136E+02  0.51100000000E-03 0.  1.
        -12    1    3    3    0    0  0.45964576188E+01 -0.16882597832E+02  0.48576189269E+01  0.18158909490E+02  0.00000000000E+00 0.  1.
</event>
<event>
 7    1  0.2328810E-008  0.4614232E+02  0.7816164E-02  0.1320468E+00
        -11   -1    0    0    0    0  0.00000000000E+00  0.00000000000E+00  0.45593999997E+02  0.45594000000E+02  0.51100000000E-03 0.  1.
         11   -1    0    0    0    0 -0.00000000000E+00 -0.00000000000E+00 -0.45593999997E+02  0.45594000000E+02  0.51100000000E-03 0. -1.
    9900012    2    1    2    0    0  0.13401076687E+02 -0.17703446063E+01  0.42969645959E+02  0.46142318184E+02  0.10000003859E+02 0.  0.
         12    1    1    2    0    0 -0.13401076687E+02  0.17703446063E+01 -0.42969645959E+02  0.45045681816E+02  0.00000000000E+00 0. -1.
         11    1    3    3    0    0  0.47377847108E+01 -0.86503324467E+00  0.98877240576E+01  0.10998271400E+02  0.51100000000E-03 0. -1.
        -11    1    3    3    0    0  0.10047737822E+02 -0.97521524204E+00  0.25300301724E+02  0.27239921947E+02  0.51100000000E-03 0.  1.
        -12    1    3    3    0    0 -0.13844458464E+01  0.69903880418E-01  0.77816201779E+01  0.79041248376E+01  0.00000000000E+00 0.  1.
</event>
<event>
 7    1  0.2328810E-008  0.4614232E+02  0.7816164E-02  0.1320468E+00
        -11   -1    0    0    0    0  0.00000000000E+00  0.00000000000E+00  0.45593999997E+02  0.45594000000E+02  0.51100000000E-03 0.  1.
         11   -1    0    0    0    0 -0.00000000000E+00 -0.00000000000E+00 -0.45593999997E+02  0.45594000000E+02  0.51100000000E-03 0. -1.
    9900012    2    1    2    0    0 -0.21992186024E+01  0.44989588978E+02  0.46248144748E+00  0.46142316878E+02  0.99999919470E+01 0.  0.
         12    1    1    2    0    0  0.21992186024E+01 -0.44989588978E+02 -0.46248144748E+00  0.45045683122E+02  0.00000000000E+00 0. -1.
         11    1    3    3    0    0  0.29412210095E+01  0.64241321177E+01 -0.21383027168E+00  0.70686616935E+01  0.51100000000E-03 0. -1.
        -11    1    3    3    0    0 -0.58993705754E+00  0.14374404482E+02  0.13450943547E+01  0.14449249427E+02  0.51100000000E-03 0.  1.
         12    1    3    3    0    0 -0.45505025543E+01  0.24191052378E+02 -0.66878263549E+00  0.24624405757E+02  0.00000000000E+00 0. -1.
</event>
<event>
 7    1  0.2328810E-008  0.4614232E+02  0.7816164E-02  0.1320468E+00
        -11   -1    0    0    0    0  0.00000000000E+00  0.00000000000E+00  0.45593999997E+02  0.45594000000E+02  0.51100000000E-03 0. -1.
         11   -1    0    0    0    0 -0.00000000000E+00 -0.00000000000E+00 -0.45593999997E+02  0.45594000000E+02  0.51100000000E-03 0.  1.
    9900012    2    1    2    0    0  0.53615600297E+01 -0.44724448182E+02  0.30150705011E+00  0.46142317658E+02  0.99999990599E+01 0.  0.
         12    1    1    2    0    0 -0.53615600297E+01  0.44724448182E+02 -0.30150705011E+00  0.45045682342E+02  0.00000000000E+00 0. -1.
         11    1    3    3    0    0 -0.15653695597E+01 -0.91557053637E+01 -0.20643100330E+01  0.95151825384E+01  0.51100000000E-03 0. -1.
        -11    1    3    3    0    0  0.18612248010E+01 -0.19744346277E+02 -0.84040855573E-01  0.19832055637E+02  0.51100000000E-03 0.  1.
        -12    1    3    3    0    0  0.50657047885E+01 -0.15824396542E+02  0.24498579387E+01  0.16795079483E+02  0.00000000000E+00 0.  1.
</event>
<event>
 7    1  0.2328810E-008  0.4614232E+02  0.7816164E-02  0.1320468E+00
        -11   -1    0    0    0    0  0.00000000000E+00  0.00000000000E+00  0.45593999997E+02  0.45594000000E+02  0.51100000000E-03 0. -1.
         11   -1    0    0    0    0 -0.00000000000E+00 -0.00000000000E+00 -0.45593999997E+02  0.45594000000E+02  0.51100000000E-03 0.  1.
    9900012    2    1    2    0    0  0.24932579000E+02 -0.37492018335E+02 -0.13522231260E+01  0.46142318278E+02  0.10000004714E+02 0.  0.
         12    1    1    2    0    0 -0.24932579000E+02  0.37492018335E+02  0.13522231260E+01  0.45045681722E+02  0.00000000000E+00 0. -1.
         11    1    3    3    0    0  0.61604693507E+01 -0.15294437456E+02 -0.53088077465E+00  0.16497061386E+02  0.51100000000E-03 0. -1.
        -11    1    3    3    0    0  0.17759280119E+02 -0.22408149028E+02 -0.67290013322E+00  0.28600174266E+02  0.51100000000E-03 0.  1.
         12    1    3    3    0    0  0.10128295303E+01  0.21056814904E+00 -0.14844221812E+00  0.10450826259E+01  0.00000000000E+00 0. -1.
</event>
<event>
 7    1  0.2328810E-008  0.4614232E+02  0.7816164E-02  0.1320468E+00
        -11   -1    0    0    0    0  0.00000000000E+00  0.00000000000E+00  0.45593999997E+02  0.45594000000E+02  0.51100000000E-03 0. -1.
         11   -1    0    0    0    0 -0.00000000000E+00 -0.00000000000E+00 -0.45593999997E+02  0.45594000000E+02  0.51100000000E-03 0.  1.
    9900012    2    1    2    0    0  0.14298499484E+02  0.40108340939E+02 -0.14696511955E+02  0.46142316921E+02  0.99999923395E+01 0.  0.
         12    1    1    2    0    0 -0.14298499484E+02 -0.40108340939E+02  0.14696511955E+02  0.45045683079E+02  0.00000000000E+00 0. -1.
         11    1    3    3    0    0  0.40232798211E+00  0.72796699686E+01 -0.47653702953E+01  0.87100067146E+01  0.51100000000E-03 0. -1.
        -11    1    3    3    0    0  0.28229740708E+00  0.40569778086E+01 -0.24048405018E+01  0.47246183831E+01  0.51100000000E-03 0.  1.
        -12    1    3    3    0    0  0.13613874095E+02  0.28771693162E+02 -0.75263011583E+01  0.32707691823E+02  0.00000000000E+00 0.  1.
</event>
<event>
 7    1  0.2328810E-008  0.4614232E+02  0.7816164E-02  0.1320468E+00
        -11   -1    0    0    0    0  0.00000000000E+00  0.00000000000E+00  0.45593999997E+02  0.45594000000E+02  0.51100000000E-03 0. -1.
         11   -1    0    0    0    0 -0.00000000000E+00 -0.00000000000E+00 -0.45593999997E+02  0.45594000000E+02  0.51100000000E-03 0.  1.
    9900012    2    1    2    0    0  0.59442370976E+01 -0.35235534079E+02  0.27426933334E+02  0.46142317758E+02  0.99999999753E+01 0.  0.
         12    1    1    2    0    0 -0.59442370976E+01  0.35235534079E+02 -0.27426933334E+02  0.45045682242E+02  0.00000000000E+00 0. -1.
         11    1    3    3    0    0 -0.47262590570E+00 -0.16232340028E+02  0.13074946936E+02  0.20848656447E+02  0.51100000000E-03 0. -1.
        -11    1    3    3    0    0  0.13424308023E+01 -0.12446362787E+02  0.81165649823E+01  0.14919540692E+02  0.51100000000E-03 0.  1.
        -12    1    3    3    0    0  0.50744322010E+01 -0.65568312649E+01  0.62354214158E+01  0.10374120620E+02  0.00000000000E+00 0.  1.
</event>
<event>
 7    1  0.2328810E-008  0.4614232E+02  0.7816164E-02  0.1320468E+00
        -11   -1    0    0    0    0  0.00000000000E+00  0.00000000000E+00  0.45593999997E+02  0.45594000000E+02  0.51100000000E-03 0.  1.
         11   -1    0    0    0    0 -0.00000000000E+00 -0.00000000000E+00 -0.45593999997E+02  0.45594000000E+02  0.51100000000E-03 0. -1.
    9900012    2    1    2    0    0  0.41211199212E+02  0.15518706271E+02  0.94826312099E+01  0.46142317860E+02  0.10000000902E+02 0.  0.
         12    1    1    2    0    0 -0.41211199212E+02 -0.15518706271E+02 -0.94826312099E+01  0.45045682140E+02  0.00000000000E+00 0. -1.
         11    1    3    3    0    0  0.19795336764E+02  0.26538793043E+01  0.28908330383E+01  0.20180568596E+02  0.51100000000E-03 0. -1.
        -11    1    3    3    0    0  0.76143536350E+01  0.34571764623E+01  0.14651239514E+01  0.84898197169E+01  0.51100000000E-03 0.  1.
         12    1    3    3    0    0  0.13801508813E+02  0.94076505045E+01  0.51266742202E+01  0.17471929547E+02  0.00000000000E+00 0. -1.
</event>
<event>
 7    1  0.2328810E-008  0.4614232E+02  0.7816164E-02  0.1320468E+00
        -11   -1    0    0    0    0  0.00000000000E+00  0.00000000000E+00  0.45593999997E+02  0.45594000000E+02  0.51100000000E-03 0. -1.
         11   -1    0    0    0    0 -0.00000000000E+00 -0.00000000000E+00 -0.45593999997E+02  0.45594000000E+02  0.51100000000E-03 0.  1.
    9900012    2    1    2    0    0  0.34860716785E+02 -0.55021616630E+01 -0.27992321411E+02  0.46142318568E+02  0.10000007356E+02 0.  0.
         12    1    1    2    0    0 -0.34860716785E+02  0.55021616630E+01  0.27992321411E+02  0.45045681432E+02  0.00000000000E+00 0. -1.
         11    1    3    3    0    0  0.15220013319E+02 -0.54003412149E+01 -0.96025399976E+01  0.18788860139E+02  0.51100000000E-03 0. -1.
        -11    1    3    3    0    0  0.13017115255E+02 -0.23354800417E+01 -0.11266508175E+02  0.17373369371E+02  0.51100000000E-03 0.  1.
         12    1    3    3    0    0  0.66235882105E+01  0.22336595935E+01 -0.71232732384E+01  0.99800890573E+01  0.00000000000E+00 0. -1.
</event>
<event>
 7    1  0.2328810E-008  0.4614232E+02  0.7816164E-02  0.1320468E+00
        -11   -1    0    0    0    0  0.00000000000E+00  0.00000000000E+00  0.45593999997E+02  0.45594000000E+02  0.51100000000E-03 0.  1.
         11   -1    0    0    0    0 -0.00000000000E+00 -0.00000000000E+00 -0.45593999997E+02  0.45594000000E+02  0.51100000000E-03 0. -1.
    9900012    2    1    2    0    0 -0.34161279955E+02 -0.26778010284E+02  0.12044034734E+02  0.46142315904E+02  0.99999830685E+01 0.  0.
         12    1    1    2    0    0  0.34161279955E+02  0.26778010284E+02 -0.12044034734E+02  0.45045684096E+02  0.00000000000E+00 0. -1.
         11    1    3    3    0    0 -0.22057117130E+01 -0.13077570212E+01 -0.72700467567E+00  0.26653196144E+01  0.51100000000E-03 0. -1.
        -11    1    3    3    0    0 -0.22811897670E+02 -0.16389838837E+02  0.53110693582E+01  0.28587006671E+02  0.51100000000E-03 0.  1.
         12    1    3    3    0    0 -0.91436705718E+01 -0.90804144264E+01  0.74599700516E+01  0.14889989619E+02  0.00000000000E+00 0. -1.
</event>
<event>
 7    1  0.2328810E-008  0.4614232E+02  0.7816164E-02  0.1320468E+00
        -11   -1    0    0    0    0  0.00000000000E+00  0.00000000000E+00  0.45593999997E+02  0.45594000000E+02  0.51100000000E-03 0. -1.
         11   -1    0    0    0    0 -0.00000000000E+00 -0.00000000000E+00 -0.45593999997E+02  0.45594000000E+02  0.51100000000E-03 0.  1.
    9900012    2    1    2    0    0 -0.13788504916E+02 -0.19195642067E+02 -0.38347334834E+02  0.46142316177E+02  0.99999855582E+01 0.  0.
         12    1    1    2    0    0  0.13788504916E+02  0.19195642067E+02  0.38347334834E+02  0.45045683823E+02  0.00000000000E+00 0. -1.
         11    1    3    3    0    0 -0.14704741306E+01 -0.67466047602E+01 -0.15773613907E+02  0.17218764936E+02  0.51100000000E-03 0. -1.
        -11    1    3    3    0    0 -0.49523293413E+01 -0.32754678134E+01 -0.10521439177E+02  0.12081181147E+02  0.51100000000E-03 0.  1.
        -12    1    3    3    0    0 -0.73657014440E+01 -0.91735694937E+01 -0.12052281750E+02  0.16842370094E+02  0.00000000000E+00 0.  1.
</event>
<event>
 7    1  0.2328810E-008  0.4614232E+02  0.7816164E-02  0.1320468E+00
        -11   -1    0    0    0    0  0.00000000000E+00  0.00000000000E+00  0.45593999997E+02  0.45594000000E+02  0.51100000000E-03 0.  1.
         11   -1    0    0    0    0 -0.00000000000E+00 -0.00000000000E+00 -0.45593999997E+02  0.45594000000E+02  0.51100000000E-03 0. -1.
    9900012    2    1    2    0    0  0.31112276805E+02  0.32466162301E+02  0.26623402578E+01  0.46142317430E+02  0.99999969813E+01 0.  0.
         12    1    1    2    0    0 -0.31112276805E+02 -0.32466162301E+02 -0.26623402578E+01  0.45045682570E+02  0.00000000000E+00 0. -1.
         11    1    3    3    0    0  0.10880892157E+02  0.89825164336E+01  0.23117905901E+01  0.14297684834E+02  0.51100000000E-03 0. -1.
        -11    1    3    3    0    0  0.10976182362E+02  0.17820649945E+02  0.11783044219E+01  0.20962837243E+02  0.51100000000E-03 0.  1.
        -12    1    3    3    0    0  0.92552022870E+01  0.56629959221E+01 -0.82775475423E+00  0.10881795354E+02  0.00000000000E+00 0.  1.
</event>
<event>
 7    1  0.2328810E-008  0.4614232E+02  0.7816164E-02  0.1320468E+00
        -11   -1    0    0    0    0  0.00000000000E+00  0.00000000000E+00  0.45593999997E+02  0.45594000000E+02  0.51100000000E-03 0. -1.
         11   -1    0    0    0    0 -0.00000000000E+00 -0.00000000000E+00 -0.45593999997E+02  0.45594000000E+02  0.51100000000E-03 0.  1.
    9900012    2    1    2    0    0 -0.16753221212E+02 -0.41109321442E+02  0.76463499933E+01  0.46142318757E+02  0.10000009085E+02 0.  0.
         12    1    1    2    0    0  0.16753221212E+02  0.41109321442E+02 -0.76463499933E+01  0.45045681243E+02  0.00000000000E+00 0. -1.
         11    1    3    3    0    0 -0.25615723496E+01 -0.52582472557E+01  0.39708838484E+01  0.70695640532E+01  0.51100000000E-03 0. -1.
        -11    1    3    3    0    0 -0.99345932865E+01 -0.29803540868E+02  0.40039710301E+01  0.31669843326E+02  0.51100000000E-03 0.  1.
         12    1    3    3    0    0 -0.42570555758E+01 -0.60475333185E+01 -0.32850488523E+00  0.74029113782E+01  0.00000000000E+00 0. -1.
</event>
<event>
 7    1  0.2328810E-008  0.4614232E+02  0.7816164E-02  0.1320468E+00
        -11   -1    0    0    0    0  0.00000000000E+00  0.00000000000E+00  0.45593999997E+02  0.45594000000E+02  0.51100000000E-03 0.  1.
         11   -1    0    0    0    0 -0.00000000000E+00 -0.00000000000E+00 -0.45593999997E+02  0.45594000000E+02  0.51100000000E-03 0. -1.
    9900012    2    1    2    0    0 -0.25051390025E+02 -0.36429311185E+02  0.86282414337E+01  0.46142318677E+02  0.10000008354E+02 0.  0.
         12    1    1    2    0    0  0.25051390025E+02  0.36429311185E+02 -0.86282414337E+01  0.45045681323E+02  0.00000000000E+00 0. -1.
         11    1    3    3    0    0 -0.31238206934E+01 -0.26215085885E+01 -0.14542069021E+01  0.43295820791E+01  0.51100000000E-03 0. -1.
        -11    1    3    3    0    0 -0.11002471738E+02 -0.12675235382E+02  0.44933026327E+01  0.17375435106E+02  0.51100000000E-03 0.  1.
        -12    1    3    3    0    0 -0.10925097594E+02 -0.21132567215E+02  0.55891457032E+01  0.24437301492E+02  0.00000000000E+00 0.  1.
</event>
<event>
 7    1  0.2328810E-008  0.4614232E+02  0.7816164E-02  0.1320468E+00
        -11   -1    0    0    0    0  0.00000000000E+00  0.00000000000E+00  0.45593999997E+02  0.45594000000E+02  0.51100000000E-03 0. -1.
         11   -1    0    0    0    0 -0.00000000000E+00 -0.00000000000E+00 -0.45593999997E+02  0.45594000000E+02  0.51100000000E-03 0.  1.
    9900012    2    1    2    0    0  0.21402424234E+01 -0.30131588195E+02 -0.33415867062E+02  0.46142318561E+02  0.10000007294E+02 0.  0.
         12    1    1    2    0    0 -0.21402424234E+01  0.30131588195E+02  0.33415867062E+02  0.45045681439E+02  0.00000000000E+00 0. -1.
         11    1    3    3    0    0  0.46563301251E-02 -0.25933580515E+01 -0.34593420203E+01  0.43234910823E+01  0.51100000000E-03 0.  1.
        -11    1    3    3    0    0  0.43728571174E+00 -0.27392607333E+02 -0.27404224616E+02  0.38749679771E+02  0.51100000000E-03 0. -1.
         12    1    3    3    0    0  0.16983003815E+01 -0.14562281085E+00 -0.25523004254E+01  0.30691477075E+01  0.00000000000E+00 0. -1.
</event>
<event>
 7    1  0.2328810E-008  0.4614232E+02  0.7816164E-02  0.1320468E+00
        -11   -1    0    0    0    0  0.00000000000E+00  0.00000000000E+00  0.45593999997E+02  0.45594000000E+02  0.51100000000E-03 0.  1.
         11   -1    0    0    0    0 -0.00000000000E+00 -0.00000000000E+00 -0.45593999997E+02  0.45594000000E+02  0.51100000000E-03 0. -1.
    9900012    2    1    2    0    0 -0.39785912601E+02  0.11741863368E+02  0.17559138650E+02  0.46142317111E+02  0.99999940686E+01 0.  0.
         12    1    1    2    0    0  0.39785912601E+02 -0.11741863368E+02 -0.17559138650E+02  0.45045682889E+02  0.00000000000E+00 0. -1.
         11    1    3    3    0    0 -0.19211611084E+02  0.74377684551E+01  0.11071733750E+02  0.23387810683E+02  0.51100000000E-03 0. -1.
        -11    1    3    3    0    0 -0.26058545802E+00  0.12348632438E+01  0.27745582186E+00  0.12921973557E+01  0.51100000000E-03 0.  1.
        -12    1    3    3    0    0 -0.20313716059E+02  0.30692316692E+01  0.62099490778E+01  0.21462309072E+02  0.00000000000E+00 0.  1.
</event>
<event>
 7    1  0.2328810E-008  0.4614232E+02  0.7816164E-02  0.1320468E+00
        -11   -1    0    0    0    0  0.00000000000E+00  0.00000000000E+00  0.45593999997E+02  0.45594000000E+02  0.51100000000E-03 0.  1.
         11   -1    0    0    0    0 -0.00000000000E+00 -0.00000000000E+00 -0.45593999997E+02  0.45594000000E+02  0.51100000000E-03 0. -1.
    9900012    2    1    2    0    0  0.69512447010E+01 -0.28223187542E+01  0.44416531176E+02  0.46142317324E+02  0.99999960105E+01 0.  0.
         12    1    1    2    0    0 -0.69512447010E+01  0.28223187542E+01 -0.44416531176E+02  0.45045682676E+02  0.00000000000E+00 0. -1.
         11    1    3    3    0    0  0.48600654725E+00  0.65985205671E+00 -0.27220054166E-01  0.81996847085E+00  0.51100000000E-03 0. -1.
        -11    1    3    3    0    0 -0.70016687933E+00  0.24191830879E+00  0.55408832412E+01  0.55901829559E+01  0.51100000000E-03 0.  1.
        -12    1    3    3    0    0  0.71654050330E+01 -0.37240891197E+01  0.38902867989E+02  0.39732165897E+02  0.00000000000E+00 0.  1.
</event>
<event>
 7    1  0.2328810E-008  0.4614232E+02  0.7816164E-02  0.1320468E+00
        -11   -1    0    0    0    0  0.00000000000E+00  0.00000000000E+00  0.45593999997E+02  0.45594000000E+02  0.51100000000E-03 0.  1.
         11   -1    0    0    0    0 -0.00000000000E+00 -0.00000000000E+00 -0.45593999997E+02  0.45594000000E+02  0.51100000000E-03 0. -1.
    9900012    2    1    2    0    0 -0.30070161563E+02  0.33452050017E+02 -0.24205979396E+01  0.46142316953E+02  0.99999926327E+01 0.  0.
         12    1    1    2    0    0  0.30070161563E+02 -0.33452050017E+02  0.24205979396E+01  0.45045683047E+02  0.00000000000E+00 0. -1.
         11    1    3    3    0    0 -0.15048284325E+02  0.17836360409E+02 -0.32141118096E+01  0.23556679069E+02  0.51100000000E-03 0. -1.
        -11    1    3    3    0    0 -0.48140829473E+01  0.73783636655E+01  0.29539838339E+01  0.92920216183E+01  0.51100000000E-03 0.  1.
        -12    1    3    3    0    0 -0.10207794291E+02  0.82373259429E+01 -0.21604699638E+01  0.13293616266E+02  0.00000000000E+00 0.  1.
</event>
<event>
 7    1  0.2328810E-008  0.4614232E+02  0.7816164E-02  0.1320468E+00
        -11   -1    0    0    0    0  0.00000000000E+00  0.00000000000E+00  0.45593999997E+02  0.45594000000E+02  0.51100000000E-03 0. -1.
         11   -1    0    0    0    0 -0.00000000000E+00 -0.00000000000E+00 -0.45593999997E+02  0.45594000000E+02  0.51100000000E-03 0.  1.
    9900012    2    1    2    0    0  0.31467722891E+02 -0.19930476245E+02 -0.25331245679E+02  0.46142317910E+02  0.10000001357E+02 0.  0.
         12    1    1    2    0    0 -0.31467722891E+02  0.19930476245E+02  0.25331245679E+02  0.45045682090E+02  0.00000000000E+00 0. -1.
         11    1    3    3    0    0  0.62156073291E+01 -0.15456716785E+01 -0.31331415522E+01  0.71301789357E+01  0.51100000000E-03 0. -1.
        -11    1    3    3    0    0  0.17003182357E+02 -0.92531006547E+01 -0.10447860892E+02  0.21997406199E+02  0.51100000000E-03 0.  1.
         12    1    3    3    0    0  0.82489332054E+01 -0.91317039116E+01 -0.11750243235E+02  0.17014732776E+02  0.00000000000E+00 0. -1.
</event>
<event>
 7    1  0.2328810E-008  0.4614232E+02  0.7816164E-02  0.1320468E+00
        -11   -1    0    0    0    0  0.00000000000E+00  0.00000000000E+00  0.45593999997E+02  0.45594000000E+02  0.51100000000E-03 0. -1.
         11   -1    0    0    0    0 -0.00000000000E+00 -0.00000000000E+00 -0.45593999997E+02  0.45594000000E+02  0.51100000000E-03 0.  1.
    9900012    2    1    2    0    0 -0.75674900155E+00 -0.28832426619E+02 -0.34601039825E+02  0.46142318179E+02  0.10000003808E+02 0.  0.
         12    1    1    2    0    0  0.75674900155E+00  0.28832426619E+02  0.34601039825E+02  0.45045681821E+02  0.00000000000E+00 0. -1.
         11    1    3    3    0    0 -0.40004618797E+00 -0.45110303296E+01 -0.10146187233E+02  0.11111010180E+02  0.51100000000E-03 0. -1.
        -11    1    3    3    0    0  0.28686602783E+01 -0.12700165804E+02 -0.12458755999E+02  0.18020655497E+02  0.51100000000E-03 0.  1.
         12    1    3    3    0    0 -0.32253630919E+01 -0.11621230485E+02 -0.11996096592E+02  0.17010652501E+02  0.00000000000E+00 0. -1.
</event>
<event>
 7    1  0.2328810E-008  0.4614232E+02  0.7816164E-02  0.1320468E+00
        -11   -1    0    0    0    0  0.00000000000E+00  0.00000000000E+00  0.45593999997E+02  0.45594000000E+02  0.51100000000E-03 0.  1.
         11   -1    0    0    0    0 -0.00000000000E+00 -0.00000000000E+00 -0.45593999997E+02  0.45594000000E+02  0.51100000000E-03 0. -1.
    9900012    2    1    2    0    0  0.39356308562E+02  0.13930458372E+02  0.16915585781E+02  0.46142315008E+02  0.99999748971E+01 0.  0.
         12    1    1    2    0    0 -0.39356308562E+02 -0.13930458372E+02 -0.16915585781E+02  0.45045684992E+02  0.00000000000E+00 0. -1.
         11    1    3    3    0    0  0.10431531009E+02  0.10106405616E+01  0.65645276686E+01  0.12366537806E+02  0.51100000000E-03 0. -1.
        -11    1    3    3    0    0  0.60549230199E+01  0.52883536193E+01  0.27447541606E+01  0.84948485827E+01  0.51100000000E-03 0.  1.
        -12    1    3    3    0    0  0.22869854533E+02  0.76314641908E+01  0.76063039520E+01  0.25280928620E+02  0.00000000000E+00 0.  1.
</event>
<event>
 7    1  0.2328810E-008  0.4614232E+02  0.7816164E-02  0.1320468E+00
        -11   -1    0    0    0    0  0.00000000000E+00  0.00000000000E+00  0.45593999997E+02  0.45594000000E+02  0.51100000000E-03 0. -1.
         11   -1    0    0    0    0 -0.00000000000E+00 -0.00000000000E+00 -0.45593999997E+02  0.45594000000E+02  0.51100000000E-03 0.  1.
    9900012    2    1    2    0    0 -0.30161494463E+02  0.43775265472E+00 -0.33454533840E+02  0.46142320850E+02  0.10000028170E+02 0.  0.
         12    1    1    2    0    0  0.30161494463E+02 -0.43775265472E+00  0.33454533840E+02  0.45045679150E+02  0.00000000000E+00 0. -1.
         11    1    3    3    0    0 -0.25354094915E+01 -0.20651868221E+01 -0.18129968211E+01  0.37390180040E+01  0.51100000000E-03 0. -1.
        -11    1    3    3    0    0 -0.26628017956E+02  0.12967880896E+01 -0.30035181068E+02  0.40160242799E+02  0.51100000000E-03 0.  1.
        -12    1    3    3    0    0 -0.99806701486E+00  0.12061513872E+01 -0.16063559508E+01  0.22430600473E+01  0.00000000000E+00 0.  1.
</event>
<event>
 7    1  0.2328810E-008  0.4614232E+02  0.7816164E-02  0.1320468E+00
        -11   -1    0    0    0    0  0.00000000000E+00  0.00000000000E+00  0.45593999997E+02  0.45594000000E+02  0.51100000000E-03 0.  1.
         11   -1    0    0    0    0 -0.00000000000E+00 -0.00000000000E+00 -0.45593999997E+02  0.45594000000E+02  0.51100000000E-03 0. -1.
    9900012    2    1    2    0    0  0.16617937496E+02  0.19415530409E+02  0.37094404001E+02  0.46142317900E+02  0.10000001266E+02 0.  0.
         12    1    1    2    0    0 -0.16617937496E+02 -0.19415530409E+02 -0.37094404001E+02  0.45045682100E+02  0.00000000000E+00 0. -1.
         11    1    3    3    0    0  0.16653827265E+01 -0.30023982996E+00  0.96893533765E+00  0.19499947515E+01  0.51100000000E-03 0. -1.
        -11    1    3    3    0    0  0.26617965031E+01  0.19972933665E+01  0.86300508254E+01  0.92494388438E+01  0.51100000000E-03 0.  1.
        -12    1    3    3    0    0  0.12290758266E+02  0.17718476873E+02  0.27495417838E+02  0.34942884305E+02  0.00000000000E+00 0.  1.
</event>
<event>
 7    1  0.2328810E-008  0.4614232E+02  0.7816164E-02  0.1320468E+00
        -11   -1    0    0    0    0  0.00000000000E+00  0.00000000000E+00  0.45593999997E+02  0.45594000000E+02  0.51100000000E-03 0. -1.
         11   -1    0    0    0    0 -0.00000000000E+00 -0.00000000000E+00 -0.45593999997E+02  0.45594000000E+02  0.51100000000E-03 0.  1.
    9900012    2    1    2    0    0 -0.10089515965E+02  0.34683028038E+02 -0.26914730312E+02  0.46142317920E+02  0.10000001447E+02 0.  0.
         12    1    1    2    0    0  0.10089515965E+02 -0.34683028038E+02  0.26914730312E+02  0.45045682080E+02  0.00000000000E+00 0. -1.
         11    1    3    3    0    0 -0.94288249300E+00  0.30736166881E+01 -0.88407866179E+00  0.33343278607E+01  0.51100000000E-03 0. -1.
        -11    1    3    3    0    0 -0.67685562606E+01  0.96100234333E+01 -0.74742207432E+01  0.13929460873E+02  0.51100000000E-03 0.  1.
         12    1    3    3    0    0 -0.23780772115E+01  0.21999387917E+02 -0.18556430907E+02  0.28878529186E+02  0.00000000000E+00 0. -1.
</event>
<event>
 7    1  0.2328810E-008  0.4614232E+02  0.7816164E-02  0.1320468E+00
        -11   -1    0    0    0    0  0.00000000000E+00  0.00000000000E+00  0.45593999997E+02  0.45594000000E+02  0.51100000000E-03 0.  1.
         11   -1    0    0    0    0 -0.00000000000E+00 -0.00000000000E+00 -0.45593999997E+02  0.45594000000E+02  0.51100000000E-03 0. -1.
    9900012    2    1    2    0    0 -0.27102498156E+01 -0.28658682185E+02  0.34647481563E+02  0.46142317662E+02  0.99999990989E+01 0.  0.
         12    1    1    2    0    0  0.27102498156E+01  0.28658682185E+02 -0.34647481563E+02  0.45045682338E+02  0.00000000000E+00 0. -1.
         11    1    3    3    0    0 -0.45106034044E+00 -0.98788491647E+00  0.20417179594E+00  0.11050151231E+01  0.51100000000E-03 0. -1.
        -11    1    3    3    0    0  0.26302107293E+01 -0.61502902877E+01  0.10723444401E+02  0.12638684235E+02  0.51100000000E-03 0.  1.
        -12    1    3    3    0    0 -0.48894002045E+01 -0.21520506981E+02  0.23719865365E+02  0.32398618304E+02  0.00000000000E+00 0.  1.
</event>
<event>
 7    1  0.2328810E-008  0.4614232E+02  0.7816164E-02  0.1320468E+00
        -11   -1    0    0    0    0  0.00000000000E+00  0.00000000000E+00  0.45593999997E+02  0.45594000000E+02  0.51100000000E-03 0.  1.
         11   -1    0    0    0    0 -0.00000000000E+00 -0.00000000000E+00 -0.45593999997E+02  0.45594000000E+02  0.51100000000E-03 0. -1.
    9900012    2    1    2    0    0 -0.54467761433E+01  0.29926314694E+02  0.33224415629E+02  0.46142317905E+02  0.10000001310E+02 0.  0.
         12    1    1    2    0    0  0.54467761433E+01 -0.29926314694E+02 -0.33224415629E+02  0.45045682095E+02  0.00000000000E+00 0. -1.
         11    1    3    3    0    0 -0.69797299284E+00  0.76610698123E-02 -0.28832493668E+00  0.75521951839E+00  0.51100000000E-03 0. -1.
        -11    1    3    3    0    0 -0.13180767923E+01  0.27141628812E+01  0.20247303657E+01  0.36336675537E+01  0.51100000000E-03 0.  1.
        -12    1    3    3    0    0 -0.34307263582E+01  0.27204490743E+02  0.31488010200E+02  0.41753430833E+02  0.00000000000E+00 0.  1.
</event>
<event>
 7    1  0.2328810E-008  0.4614232E+02  0.7816164E-02  0.1320468E+00
        -11   -1    0    0    0    0  0.00000000000E+00  0.00000000000E+00  0.45593999997E+02  0.45594000000E+02  0.51100000000E-03 0. -1.
         11   -1    0    0    0    0 -0.00000000000E+00 -0.00000000000E+00 -0.45593999997E+02  0.45594000000E+02  0.51100000000E-03 0.  1.
    9900012    2    1    2    0    0 -0.11831801637E+02 -0.20593607576E+02 -0.38275647805E+02  0.46142318544E+02  0.10000007138E+02 0.  0.
         12    1    1    2    0    0  0.11831801637E+02  0.20593607576E+02  0.38275647805E+02  0.45045681456E+02  0.00000000000E+00 0. -1.
         11    1    3    3    0    0 -0.26249687333E+01 -0.87234337465E+01 -0.83575588677E+01  0.12362748386E+02  0.51100000000E-03 0. -1.
        -11    1    3    3    0    0 -0.68622748459E+01 -0.11255661750E+02 -0.26386878241E+02  0.29496577446E+02  0.51100000000E-03 0.  1.
         12    1    3    3    0    0 -0.23445580575E+01 -0.61451207911E+00 -0.35312106966E+01  0.42829927112E+01  0.00000000000E+00 0. -1.
</event>
<event>
 7    1  0.2328810E-008  0.4614230E+02  0.7816164E-02  0.1320468E+00
        -11   -1    0    0    0    0  0.00000000000E+00  0.00000000000E+00  0.45593999997E+02  0.45594000000E+02  0.51100000000E-03 0. -1.
         11   -1    0    0    0    0 -0.00000000000E+00 -0.00000000000E+00 -0.45593999997E+02  0.45594000000E+02  0.51100000000E-03 0.  1.
    9900012    2    1    2    0    0  0.99571152141E+01 -0.86138710076E+01 -0.43078669287E+02  0.46142304705E+02  0.99998809409E+01 0.  0.
         12    1    1    2    0    0 -0.99571152141E+01  0.86138710076E+01  0.43078669287E+02  0.45045695295E+02  0.00000000000E+00 0. -1.
         11    1    3    3    0    0  0.51257011693E+01 -0.26081572488E+01 -0.18768192992E+02  0.19629578833E+02  0.51100000000E-03 0. -1.
        -11    1    3    3    0    0  0.15368168292E+01 -0.10674970443E+01 -0.16967131459E+02  0.17070000179E+02  0.51100000000E-03 0.  1.
         12    1    3    3    0    0  0.32945972156E+01 -0.49382167145E+01 -0.73433448356E+01  0.94427256927E+01  0.00000000000E+00 0. -1.
</event>
<event>
 7    1  0.2328810E-008  0.4614232E+02  0.7816164E-02  0.1320468E+00
        -11   -1    0    0    0    0  0.00000000000E+00  0.00000000000E+00  0.45593999997E+02  0.45594000000E+02  0.51100000000E-03 0.  1.
         11   -1    0    0    0    0 -0.00000000000E+00 -0.00000000000E+00 -0.45593999997E+02  0.45594000000E+02  0.51100000000E-03 0. -1.
    9900012    2    1    2    0    0  0.33381507960E+02 -0.30157495274E+02  0.23052050889E+01  0.46142316906E+02  0.99999922063E+01 0.  0.
         12    1    1    2    0    0 -0.33381507960E+02  0.30157495274E+02 -0.23052050889E+01  0.45045683094E+02  0.00000000000E+00 0. -1.
         11    1    3    3    0    0  0.53914898762E+01 -0.33813837121E+01  0.16471161623E+00  0.63662429322E+01  0.51100000000E-03 0. -1.
        -11    1    3    3    0    0  0.17188945871E+02 -0.10370544165E+02  0.91268243144E+00  0.20095796474E+02  0.51100000000E-03 0.  1.
         12    1    3    3    0    0  0.10801072213E+02 -0.16405567396E+02  0.12278110413E+01  0.19680277500E+02  0.00000000000E+00 0. -1.
</event>
<event>
 7    1  0.2328810E-008  0.4614232E+02  0.7816164E-02  0.1320468E+00
        -11   -1    0    0    0    0  0.00000000000E+00  0.00000000000E+00  0.45593999997E+02  0.45594000000E+02  0.51100000000E-03 0. -1.
         11   -1    0    0    0    0 -0.00000000000E+00 -0.00000000000E+00 -0.45593999997E+02  0.45594000000E+02  0.51100000000E-03 0.  1.
    9900012    2    1    2    0    0  0.13334391880E+02  0.18687557534E+02 -0.38756710011E+02  0.46142318917E+02  0.10000010540E+02 0.  0.
         12    1    1    2    0    0 -0.13334391880E+02 -0.18687557534E+02  0.38756710011E+02  0.45045681083E+02  0.00000000000E+00 0. -1.
         11    1    3    3    0    0  0.85397922956E+01  0.13375354164E+02 -0.23488629364E+02  0.28346849227E+02  0.51100000000E-03 0. -1.
        -11    1    3    3    0    0  0.35303309053E+01  0.44361042113E+01 -0.15236382798E+02  0.16256986742E+02  0.51100000000E-03 0.  1.
         12    1    3    3    0    0  0.12642686787E+01  0.87609915836E+00 -0.31697848377E-01  0.15384829478E+01  0.00000000000E+00 0. -1.
</event>
<event>
 7    1  0.2328810E-008  0.4614232E+02  0.7816164E-02  0.1320468E+00
        -11   -1    0    0    0    0  0.00000000000E+00  0.00000000000E+00  0.45593999997E+02  0.45594000000E+02  0.51100000000E-03 0.  1.
         11   -1    0    0    0    0 -0.00000000000E+00 -0.00000000000E+00 -0.45593999997E+02  0.45594000000E+02  0.51100000000E-03 0. -1.
    9900012    2    1    2    0    0  0.18656501288E+02 -0.39749071596E+02  0.10052839714E+02  0.46142319637E+02  0.10000017102E+02 0.  0.
         12    1    1    2    0    0 -0.18656501288E+02  0.39749071596E+02 -0.10052839714E+02  0.45045680363E+02  0.00000000000E+00 0. -1.
         11    1    3    3    0    0  0.50546076001E+01 -0.49884267661E+01  0.25182145846E+01  0.75349097239E+01  0.51100000000E-03 0. -1.
        -11    1    3    3    0    0  0.80869218485E+01 -0.18510102122E+02  0.71964947185E+01  0.21443220888E+02  0.51100000000E-03 0.  1.
         12    1    3    3    0    0  0.55149718394E+01 -0.16250542708E+02  0.33813041071E+00  0.17164189025E+02  0.00000000000E+00 0. -1.
</event>
<event>
 7    1  0.2328810E-008  0.4614232E+02  0.7816164E-02  0.1320468E+00
        -11   -1    0    0    0    0  0.00000000000E+00  0.00000000000E+00  0.45593999997E+02  0.45594000000E+02  0.51100000000E-03 0.  1.
         11   -1    0    0    0    0 -0.00000000000E+00 -0.00000000000E+00 -0.45593999997E+02  0.45594000000E+02  0.51100000000E-03 0. -1.
    9900012    2    1    2    0    0  0.44350606909E+02  0.78413362281E+01 -0.80662812724E+00  0.46142317233E+02  0.99999951849E+01 0.  0.
         12    1    1    2    0    0 -0.44350606909E+02 -0.78413362281E+01  0.80662812724E+00  0.45045682767E+02  0.00000000000E+00 0. -1.
         11    1    3    3    0    0  0.13119025423E+02  0.33037001963E+01 -0.32872131192E+01  0.13922249581E+02  0.51100000000E-03 0. -1.
        -11    1    3    3    0    0  0.22039985711E+02  0.57534679628E+01  0.76765438254E+00  0.22791504058E+02  0.51100000000E-03 0.  1.
        -12    1    3    3    0    0  0.91915957749E+01 -0.12158319310E+01  0.17129306094E+01  0.94285635940E+01  0.00000000000E+00 0.  1.
</event>
<event>
 7    1  0.2328810E-008  0.4614232E+02  0.7816164E-02  0.1320468E+00
        -11   -1    0    0    0    0  0.00000000000E+00  0.00000000000E+00  0.45593999997E+02  0.45594000000E+02  0.51100000000E-03 0. -1.
         11   -1    0    0    0    0 -0.00000000000E+00 -0.00000000000E+00 -0.45593999997E+02  0.45594000000E+02  0.51100000000E-03 0.  1.
    9900012    2    1    2    0    0 -0.22176321500E+02  0.31615960807E+02 -0.23189550907E+02  0.46142317806E+02  0.10000000413E+02 0.  0.
         12    1    1    2    0    0  0.22176321500E+02 -0.31615960807E+02  0.23189550907E+02  0.45045682194E+02  0.00000000000E+00 0. -1.
         11    1    3    3    0    0 -0.78007678464E+01  0.45348968349E+01 -0.63697765576E+01  0.11044968173E+02  0.51100000000E-03 0. -1.
        -11    1    3    3    0    0 -0.49998305471E+01  0.12149741903E+02 -0.63533127149E+01  0.14593804046E+02  0.51100000000E-03 0.  1.
         12    1    3    3    0    0 -0.93757231064E+01  0.14931322069E+02 -0.10466461634E+02  0.20503545587E+02  0.00000000000E+00 0. -1.
</event>
<event>
 7    1  0.2328810E-008  0.4614232E+02  0.7816164E-02  0.1320468E+00
        -11   -1    0    0    0    0  0.00000000000E+00  0.00000000000E+00  0.45593999997E+02  0.45594000000E+02  0.51100000000E-03 0.  1.
         11   -1    0    0    0    0 -0.00000000000E+00 -0.00000000000E+00 -0.45593999997E+02  0.45594000000E+02  0.51100000000E-03 0. -1.
    9900012    2    1    2    0    0 -0.19066960328E+02 -0.19558324649E+02  0.35819493031E+02  0.46142321847E+02  0.10000037260E+02 0.  0.
         12    1    1    2    0    0  0.19066960328E+02  0.19558324649E+02 -0.35819493031E+02  0.45045678153E+02  0.00000000000E+00 0. -1.
         11    1    3    3    0    0 -0.24117380083E+00  0.86749001199E+00  0.89724163220E+00  0.12711201874E+01  0.51100000000E-03 0. -1.
        -11    1    3    3    0    0 -0.73028953704E+01 -0.99213672544E+01  0.12409042442E+02  0.17485712556E+02  0.51100000000E-03 0.  1.
         12    1    3    3    0    0 -0.11522891157E+02 -0.10504447407E+02  0.22513208957E+02  0.27385489104E+02  0.00000000000E+00 0. -1.
</event>
<event>
 7    1  0.2328810E-008  0.4614232E+02  0.7816164E-02  0.1320468E+00
        -11   -1    0    0    0    0  0.00000000000E+00  0.00000000000E+00  0.45593999997E+02  0.45594000000E+02  0.51100000000E-03 0.  1.
         11   -1    0    0    0    0 -0.00000000000E+00 -0.00000000000E+00 -0.45593999997E+02  0.45594000000E+02  0.51100000000E-03 0. -1.
    9900012    2    1    2    0    0  0.29096961265E+02  0.69093252133E+01  0.33685924564E+02  0.46142318260E+02  0.10000004545E+02 0.  0.
         12    1    1    2    0    0 -0.29096961265E+02 -0.69093252133E+01 -0.33685924564E+02  0.45045681740E+02  0.00000000000E+00 0. -1.
         11    1    3    3    0    0  0.32788458497E+01  0.15400617009E+00  0.98709322550E+00  0.34276670351E+01  0.51100000000E-03 0. -1.
        -11    1    3    3    0    0  0.26091448368E+02  0.66256175582E+01  0.31301497027E+02  0.41284939171E+02  0.51100000000E-03 0.  1.
         12    1    3    3    0    0 -0.27333295289E+00  0.12970148507E+00  0.13973343113E+01  0.14297120535E+01  0.00000000000E+00 0. -1.
</event>
<event>
 7    1  0.2328810E-008  0.4614232E+02  0.7816164E-02  0.1320468E+00
        -11   -1    0    0    0    0  0.00000000000E+00  0.00000000000E+00  0.45593999997E+02  0.45594000000E+02  0.51100000000E-03 0. -1.
         11   -1    0    0    0    0 -0.00000000000E+00 -0.00000000000E+00 -0.45593999997E+02  0.45594000000E+02  0.51100000000E-03 0.  1.
    9900012    2    1    2    0    0 -0.18921557669E+01 -0.42302498486E+02  0.15363325459E+02  0.46142318734E+02  0.10000008869E+02 0.  0.
         12    1    1    2    0    0  0.18921557669E+01  0.42302498486E+02 -0.15363325459E+02  0.45045681266E+02  0.00000000000E+00 0. -1.
         11    1    3    3    0    0 -0.58587351725E+00 -0.14594048434E+02  0.80326259491E+01  0.16668910503E+02  0.51100000000E-03 0. -1.
        -11    1    3    3    0    0 -0.30111581123E+01 -0.13882895125E+02  0.61924129190E+01  0.15496703786E+02  0.51100000000E-03 0.  1.
         12    1    3    3    0    0  0.17048758627E+01 -0.13825554927E+02  0.11382865908E+01  0.13976704444E+02  0.00000000000E+00 0. -1.
</event>
<event>
 7    1  0.2328810E-008  0.4614232E+02  0.7816164E-02  0.1320468E+00
        -11   -1    0    0    0    0  0.00000000000E+00  0.00000000000E+00  0.45593999997E+02  0.45594000000E+02  0.51100000000E-03 0.  1.
         11   -1    0    0    0    0 -0.00000000000E+00 -0.00000000000E+00 -0.45593999997E+02  0.45594000000E+02  0.51100000000E-03 0. -1.
    9900012    2    1    2    0    0  0.11281220166E+02 -0.23878293503E+02  0.36492117329E+02  0.46142318118E+02  0.10000003255E+02 0.  0.
         12    1    1    2    0    0 -0.11281220166E+02  0.23878293503E+02 -0.36492117329E+02  0.45045681882E+02  0.00000000000E+00 0. -1.
         11    1    3    3    0    0  0.70932981925E+01 -0.19429857954E+02  0.31330038851E+02  0.37542051010E+02  0.51100000000E-03 0. -1.
        -11    1    3    3    0    0  0.42511049695E+01 -0.46741082288E+01  0.53662124399E+01  0.82894763048E+01  0.51100000000E-03 0.  1.
         12    1    3    3    0    0 -0.63182995908E-01  0.22567267967E+00 -0.20413396161E+00  0.31079080360E+00  0.00000000000E+00 0. -1.
</event>
<event>
 7    1  0.2328810E-008  0.4614232E+02  0.7816164E-02  0.1320468E+00
        -11   -1    0    0    0    0  0.00000000000E+00  0.00000000000E+00  0.45593999997E+02  0.45594000000E+02  0.51100000000E-03 0.  1.
         11   -1    0    0    0    0 -0.00000000000E+00 -0.00000000000E+00 -0.45593999997E+02  0.45594000000E+02  0.51100000000E-03 0. -1.
    9900012    2    1    2    0    0  0.40376258160E+00 -0.43576434878E+01  0.44832593481E+02  0.46142317419E+02  0.99999968813E+01 0.  0.
         12    1    1    2    0    0 -0.40376258160E+00  0.43576434878E+01 -0.44832593481E+02  0.45045682581E+02  0.00000000000E+00 0. -1.
         11    1    3    3    0    0 -0.17527095315E+01 -0.66526321967E+01  0.24503162203E+02  0.25450627970E+02  0.51100000000E-03 0.  1.
        -11    1    3    3    0    0  0.25473778492E+01  0.15117062143E+01  0.14818465962E+02  0.15111628744E+02  0.51100000000E-03 0. -1.
         12    1    3    3    0    0 -0.39090573611E+00  0.78328249453E+00  0.55109653153E+01  0.55800607047E+01  0.00000000000E+00 0. -1.
</event>
<event>
 7    1  0.2328810E-008  0.4614232E+02  0.7816164E-02  0.1320468E+00
        -11   -1    0    0    0    0  0.00000000000E+00  0.00000000000E+00  0.45593999997E+02  0.45594000000E+02  0.51100000000E-03 0. -1.
         11   -1    0    0    0    0 -0.00000000000E+00 -0.00000000000E+00 -0.45593999997E+02  0.45594000000E+02  0.51100000000E-03 0.  1.
    9900012    2    1    2    0    0 -0.24673868455E+02  0.15778467436E+02 -0.34225044617E+02  0.46142317651E+02  0.99999989999E+01 0.  0.
         12    1    1    2    0    0  0.24673868455E+02 -0.15778467436E+02  0.34225044617E+02  0.45045682349E+02  0.00000000000E+00 0. -1.
         11    1    3    3    0    0 -0.58188665656E+01  0.24668217638E+01 -0.89955400377E+01  0.10993823655E+02  0.51100000000E-03 0.  1.
        -11    1    3    3    0    0 -0.20797747759E+01  0.44292711224E+01 -0.86851150558E+01  0.99687075184E+01  0.51100000000E-03 0. -1.
         12    1    3    3    0    0 -0.16775227114E+02  0.88823745502E+01 -0.16544389524E+02  0.25179786478E+02  0.00000000000E+00 0. -1.
</event>
<event>
 7    1  0.2328810E-008  0.4614232E+02  0.7816164E-02  0.1320468E+00
        -11   -1    0    0    0    0  0.00000000000E+00  0.00000000000E+00  0.45593999997E+02  0.45594000000E+02  0.51100000000E-03 0. -1.
         11   -1    0    0    0    0 -0.00000000000E+00 -0.00000000000E+00 -0.45593999997E+02  0.45594000000E+02  0.51100000000E-03 0.  1.
    9900012    2    1    2    0    0 -0.27505692422E+02  0.14848797506E+02 -0.32435530741E+02  0.46142316994E+02  0.99999930093E+01 0.  0.
         12    1    1    2    0    0  0.27505692422E+02 -0.14848797506E+02  0.32435530741E+02  0.45045683006E+02  0.00000000000E+00 0. -1.
         11    1    3    3    0    0 -0.17963970340E+02  0.10335751750E+02 -0.15426998576E+02  0.25836491246E+02  0.51100000000E-03 0.  1.
        -11    1    3    3    0    0 -0.24711227150E+01  0.16962401759E+01 -0.24239973416E+01  0.38547946223E+01  0.51100000000E-03 0. -1.
         12    1    3    3    0    0 -0.70705993674E+01  0.28168055805E+01 -0.14584534824E+02  0.16451031126E+02  0.00000000000E+00 0. -1.
</event>
<event>
 7    1  0.2328810E-008  0.4614232E+02  0.7816164E-02  0.1320468E+00
        -11   -1    0    0    0    0  0.00000000000E+00  0.00000000000E+00  0.45593999997E+02  0.45594000000E+02  0.51100000000E-03 0. -1.
         11   -1    0    0    0    0 -0.00000000000E+00 -0.00000000000E+00 -0.45593999997E+02  0.45594000000E+02  0.51100000000E-03 0.  1.
    9900012    2    1    2    0    0 -0.24171685194E+01  0.42669354675E+02 -0.14233655650E+02  0.46142317796E+02  0.10000000321E+02 0.  0.
         12    1    1    2    0    0  0.24171685194E+01 -0.42669354675E+02  0.14233655650E+02  0.45045682204E+02  0.00000000000E+00 0. -1.
         11    1    3    3    0    0 -0.17756415891E+01  0.67356322590E+01 -0.45987666739E+01  0.83468736760E+01  0.51100000000E-03 0. -1.
        -11    1    3    3    0    0 -0.13777851371E+01  0.59792949266E+01  0.51991657739E+00  0.61579682698E+01  0.51100000000E-03 0.  1.
        -12    1    3    3    0    0  0.73625820681E+00  0.29954427489E+02 -0.10154805554E+02  0.31637475851E+02  0.00000000000E+00 0.  1.
</event>
<event>
 7    1  0.2328810E-008  0.4614232E+02  0.7816164E-02  0.1320468E+00
        -11   -1    0    0    0    0  0.00000000000E+00  0.00000000000E+00  0.45593999997E+02  0.45594000000E+02  0.51100000000E-03 0.  1.
         11   -1    0    0    0    0 -0.00000000000E+00 -0.00000000000E+00 -0.45593999997E+02  0.45594000000E+02  0.51100000000E-03 0. -1.
    9900012    2    1    2    0    0 -0.32630443994E+02  0.20866840915E+02  0.22998751176E+02  0.46142317846E+02  0.10000000777E+02 0.  0.
         12    1    1    2    0    0  0.32630443994E+02 -0.20866840915E+02 -0.22998751176E+02  0.45045682154E+02  0.00000000000E+00 0. -1.
         11    1    3    3    0    0 -0.91426216800E+01  0.79187610293E+01  0.87691402005E+01  0.14939616044E+02  0.51100000000E-03 0. -1.
        -11    1    3    3    0    0 -0.19182894038E+02  0.96802940218E+01  0.14277058427E+02  0.25797788929E+02  0.51100000000E-03 0.  1.
         12    1    3    3    0    0 -0.43049282756E+01  0.32677858642E+01 -0.47447450722E-01  0.54049128738E+01  0.00000000000E+00 0. -1.
</event>
<event>
 7    1  0.2328810E-008  0.4614232E+02  0.7816164E-02  0.1320468E+00
        -11   -1    0    0    0    0  0.00000000000E+00  0.00000000000E+00  0.45593999997E+02  0.45594000000E+02  0.51100000000E-03 0.  1.
         11   -1    0    0    0    0 -0.00000000000E+00 -0.00000000000E+00 -0.45593999997E+02  0.45594000000E+02  0.51100000000E-03 0. -1.
    9900012    2    1    2    0    0  0.29084802399E+02 -0.32165704006E+02  0.12188318481E+02  0.46142319273E+02  0.10000013786E+02 0.  0.
         12    1    1    2    0    0 -0.29084802399E+02  0.32165704006E+02 -0.12188318481E+02  0.45045680727E+02  0.00000000000E+00 0. -1.
         11    1    3    3    0    0  0.51749277183E+00 -0.77632639639E+00  0.12747089273E+01  0.15796722929E+01  0.51100000000E-03 0. -1.
        -11    1    3    3    0    0  0.24320647592E+02 -0.27122912533E+02  0.12178000106E+02  0.38411586408E+02  0.51100000000E-03 0.  1.
        -12    1    3    3    0    0  0.42466620354E+01 -0.42664650759E+01 -0.12643905520E+01  0.61510605715E+01  0.00000000000E+00 0.  1.
</event>
<event>
 7    1  0.2328810E-008  0.4614232E+02  0.7816164E-02  0.1320468E+00
        -11   -1    0    0    0    0  0.00000000000E+00  0.00000000000E+00  0.45593999997E+02  0.45594000000E+02  0.51100000000E-03 0. -1.
         11   -1    0    0    0    0 -0.00000000000E+00 -0.00000000000E+00 -0.45593999997E+02  0.45594000000E+02  0.51100000000E-03 0.  1.
    9900012    2    1    2    0    0 -0.11903503858E+02 -0.11572443214E+01 -0.43429032499E+02  0.46142317828E+02  0.10000000608E+02 0.  0.
         12    1    1    2    0    0  0.11903503858E+02  0.11572443214E+01  0.43429032499E+02  0.45045682172E+02  0.00000000000E+00 0. -1.
         11    1    3    3    0    0 -0.36970857235E+01 -0.12800541659E+01 -0.48633000208E+01  0.62416879823E+01  0.51100000000E-03 0. -1.
        -11    1    3    3    0    0 -0.35683042531E+01 -0.94100401217E+00 -0.28819008288E+02  0.29054320208E+02  0.51100000000E-03 0.  1.
         12    1    3    3    0    0 -0.46381138817E+01  0.10638138567E+01 -0.97467241903E+01  0.10846309637E+02  0.00000000000E+00 0. -1.
</event>
<event>
 7    1  0.2328810E-008  0.4614232E+02  0.7816164E-02  0.1320468E+00
        -11   -1    0    0    0    0  0.00000000000E+00  0.00000000000E+00  0.45593999997E+02  0.45594000000E+02  0.51100000000E-03 0.  1.
         11   -1    0    0    0    0 -0.00000000000E+00 -0.00000000000E+00 -0.45593999997E+02  0.45594000000E+02  0.51100000000E-03 0. -1.
    9900012    2    1    2    0    0  0.17869670599E+02  0.25509940791E+02  0.32542759696E+02  0.46142318574E+02  0.10000007412E+02 0.  0.
         12    1    1    2    0    0 -0.17869670599E+02 -0.25509940791E+02 -0.32542759696E+02  0.45045681426E+02  0.00000000000E+00 0. -1.
         11    1    3    3    0    0  0.73955860876E+00  0.53482428700E+01  0.27865679487E+01  0.60758217491E+01  0.51100000000E-03 0. -1.
        -11    1    3    3    0    0  0.82520040702E+01  0.74500842520E+01  0.10006301336E+02  0.14957452765E+02  0.51100000000E-03 0.  1.
        -12    1    3    3    0    0  0.88781079204E+01  0.12711613669E+02  0.19749890412E+02  0.25109044060E+02  0.00000000000E+00 0.  1.
</event>
<event>
 7    1  0.2328810E-008  0.4614232E+02  0.7816164E-02  0.1320468E+00
        -11   -1    0    0    0    0  0.00000000000E+00  0.00000000000E+00  0.45593999997E+02  0.45594000000E+02  0.51100000000E-03 0.  1.
         11   -1    0    0    0    0 -0.00000000000E+00 -0.00000000000E+00 -0.45593999997E+02  0.45594000000E+02  0.51100000000E-03 0. -1.
    9900012    2    1    2    0    0  0.35948869266E+02 -0.68542432303E+01  0.26264266903E+02  0.46142316880E+02  0.99999919642E+01 0.  0.
         12    1    1    2    0    0 -0.35948869266E+02  0.68542432303E+01 -0.26264266903E+02  0.45045683120E+02  0.00000000000E+00 0. -1.
         11    1    3    3    0    0  0.84732729654E+01 -0.43996639331E+01  0.68990431279E+01  0.11779227216E+02  0.51100000000E-03 0. -1.
        -11    1    3    3    0    0  0.25564114921E+02 -0.29941065660E+01  0.19615330177E+02  0.32361239532E+02  0.51100000000E-03 0.  1.
         12    1    3    3    0    0  0.19114813799E+01  0.53952726883E+00 -0.25010640101E+00  0.20018501321E+01  0.00000000000E+00 0. -1.
</event>
<event>
 7    1  0.2328810E-008  0.4614232E+02  0.7816164E-02  0.1320468E+00
        -11   -1    0    0    0    0  0.00000000000E+00  0.00000000000E+00  0.45593999997E+02  0.45594000000E+02  0.51100000000E-03 0.  1.
         11   -1    0    0    0    0 -0.00000000000E+00 -0.00000000000E+00 -0.45593999997E+02  0.45594000000E+02  0.51100000000E-03 0. -1.
    9900012    2    1    2    0    0 -0.14748444234E+02  0.36423256587E+02  0.22021425485E+02  0.46142318652E+02  0.10000008123E+02 0.  0.
         12    1    1    2    0    0  0.14748444234E+02 -0.36423256587E+02 -0.22021425485E+02  0.45045681348E+02  0.00000000000E+00 0. -1.
         11    1    3    3    0    0 -0.18426275991E+01  0.10280011787E+02  0.52367772597E+01  0.11683225374E+02  0.51100000000E-03 0. -1.
        -11    1    3    3    0    0 -0.10878269301E+02  0.24174985227E+02  0.12457225662E+02  0.29290768600E+02  0.51100000000E-03 0.  1.
        -12    1    3    3    0    0 -0.20275473341E+01  0.19682595729E+01  0.43274225630E+01  0.51683246779E+01  0.00000000000E+00 0.  1.
</event>
<event>
 7    1  0.2328810E-008  0.4614231E+02  0.7816164E-02  0.1320468E+00
        -11   -1    0    0    0    0  0.00000000000E+00  0.00000000000E+00  0.45593999997E+02  0.45594000000E+02  0.51100000000E-03 0.  1.
         11   -1    0    0    0    0 -0.00000000000E+00 -0.00000000000E+00 -0.45593999997E+02  0.45594000000E+02  0.51100000000E-03 0. -1.
    9900012    2    1    2    0    0  0.20968666752E+01  0.15928385481E+02  0.42083297545E+02  0.46142309350E+02  0.99999232979E+01 0.  0.
         12    1    1    2    0    0 -0.20968666752E+01 -0.15928385481E+02 -0.42083297545E+02  0.45045690650E+02  0.00000000000E+00 0. -1.
         11    1    3    3    0    0 -0.12086049456E+01  0.20143562555E+00  0.25210909641E+01  0.28030701269E+01  0.51100000000E-03 0.  1.
        -11    1    3    3    0    0  0.45940605848E+01  0.70301040281E+01  0.14212987793E+02  0.16508687942E+02  0.51100000000E-03 0. -1.
        -12    1    3    3    0    0 -0.12885889641E+01  0.86968458277E+01  0.25349218788E+02  0.26830551281E+02  0.00000000000E+00 0.  1.
</event>
<event>
 7    1  0.2328810E-008  0.4614232E+02  0.7816164E-02  0.1320468E+00
        -11   -1    0    0    0    0  0.00000000000E+00  0.00000000000E+00  0.45593999997E+02  0.45594000000E+02  0.51100000000E-03 0. -1.
         11   -1    0    0    0    0 -0.00000000000E+00 -0.00000000000E+00 -0.45593999997E+02  0.45594000000E+02  0.51100000000E-03 0.  1.
    9900012    2    1    2    0    0 -0.25415447530E+02 -0.34771832780E+02 -0.13194253414E+02  0.46142315954E+02  0.99999835240E+01 0.  0.
         12    1    1    2    0    0  0.25415447530E+02  0.34771832780E+02  0.13194253414E+02  0.45045684046E+02  0.00000000000E+00 0. -1.
         11    1    3    3    0    0  0.33788824140E-01 -0.15954560469E+00 -0.43176767462E+00  0.46154097389E+00  0.51100000000E-03 0. -1.
        -11    1    3    3    0    0 -0.11016916484E+02 -0.85036419720E+01 -0.25476746987E+01  0.14148322241E+02  0.51100000000E-03 0.  1.
         12    1    3    3    0    0 -0.14432319869E+02 -0.26108645203E+02 -0.10214811041E+02  0.31532452739E+02  0.00000000000E+00 0. -1.
</event>
<event>
 7    1  0.2328810E-008  0.4614232E+02  0.7816164E-02  0.1320468E+00
        -11   -1    0    0    0    0  0.00000000000E+00  0.00000000000E+00  0.45593999997E+02  0.45594000000E+02  0.51100000000E-03 0.  1.
         11   -1    0    0    0    0 -0.00000000000E+00 -0.00000000000E+00 -0.45593999997E+02  0.45594000000E+02  0.51100000000E-03 0. -1.
    9900012    2    1    2    0    0 -0.37460867897E+02 -0.24527431189E+02  0.49195337655E+01  0.46142319666E+02  0.10000017367E+02 0.  0.
         12    1    1    2    0    0  0.37460867897E+02  0.24527431189E+02 -0.49195337655E+01  0.45045680334E+02  0.00000000000E+00 0. -1.
         11    1    3    3    0    0 -0.15223168629E+01 -0.51258210483E+00  0.59967032109E+00  0.17145826899E+01  0.51100000000E-03 0. -1.
        -11    1    3    3    0    0 -0.26932663612E+01 -0.22615856442E+01  0.30859273567E+01  0.46788247703E+01  0.51100000000E-03 0.  1.
        -12    1    3    3    0    0 -0.33245284673E+02 -0.21753263440E+02  0.12339360877E+01  0.39748912206E+02  0.00000000000E+00 0.  1.
</event>
<event>
 7    1  0.2328810E-008  0.4614232E+02  0.7816164E-02  0.1320468E+00
        -11   -1    0    0    0    0  0.00000000000E+00  0.00000000000E+00  0.45593999997E+02  0.45594000000E+02  0.51100000000E-03 0. -1.
         11   -1    0    0    0    0 -0.00000000000E+00 -0.00000000000E+00 -0.45593999997E+02  0.45594000000E+02  0.51100000000E-03 0.  1.
    9900012    2    1    2    0    0  0.14496405060E+02  0.28609759474E+02 -0.31629880831E+02  0.46142318096E+02  0.10000003051E+02 0.  0.
         12    1    1    2    0    0 -0.14496405060E+02 -0.28609759474E+02  0.31629880831E+02  0.45045681904E+02  0.00000000000E+00 0. -1.
         11    1    3    3    0    0  0.15232576930E+01  0.97433094273E+01 -0.12697017153E+02  0.16076897631E+02  0.51100000000E-03 0. -1.
        -11    1    3    3    0    0  0.11621069954E+02  0.17876855252E+02 -0.18724990907E+02  0.28377041871E+02  0.51100000000E-03 0.  1.
        -12    1    3    3    0    0  0.13520774130E+01  0.98959479449E+00 -0.20787277116E+00  0.16883785941E+01  0.00000000000E+00 0.  1.
</event>
<event>
 7    1  0.2328810E-008  0.4614232E+02  0.7816164E-02  0.1320468E+00
        -11   -1    0    0    0    0  0.00000000000E+00  0.00000000000E+00  0.45593999997E+02  0.45594000000E+02  0.51100000000E-03 0. -1.
         11   -1    0    0    0    0 -0.00000000000E+00 -0.00000000000E+00 -0.45593999997E+02  0.45594000000E+02  0.51100000000E-03 0.  1.
    9900012    2    1    2    0    0  0.14301911834E+02  0.81077244596E+01 -0.41938449980E+02  0.46142318024E+02  0.10000002395E+02 0.  0.
         12    1    1    2    0    0 -0.14301911834E+02 -0.81077244596E+01  0.41938449980E+02  0.45045681976E+02  0.00000000000E+00 0. -1.
         11    1    3    3    0    0  0.11518877469E+00  0.12795320943E+01 -0.21032710380E+01  0.24645933041E+01  0.51100000000E-03 0. -1.
        -11    1    3    3    0    0  0.10431245094E+02  0.81949415738E+01 -0.24852108766E+02  0.28170822707E+02  0.51100000000E-03 0.  1.
         12    1    3    3    0    0  0.37554779653E+01 -0.13667492085E+01 -0.14983070176E+02  0.15506902013E+02  0.00000000000E+00 0. -1.
</event>
<event>
 7    1  0.2328810E-008  0.4614233E+02  0.7816164E-02  0.1320468E+00
        -11   -1    0    0    0    0  0.00000000000E+00  0.00000000000E+00  0.45593999997E+02  0.45594000000E+02  0.51100000000E-03 0.  1.
         11   -1    0    0    0    0 -0.00000000000E+00 -0.00000000000E+00 -0.45593999997E+02  0.45594000000E+02  0.51100000000E-03 0. -1.
    9900012    2    1    2    0    0 -0.28774955793E+02 -0.12741934588E+02  0.32229762827E+02  0.46142327735E+02  0.10000090947E+02 0.  0.
         12    1    1    2    0    0  0.28774955793E+02  0.12741934588E+02 -0.32229762827E+02  0.45045672265E+02  0.00000000000E+00 0. -1.
         11    1    3    3    0    0 -0.42498751685E+01 -0.43076535221E+01  0.51898493827E+01  0.79719417139E+01  0.51100000000E-03 0. -1.
        -11    1    3    3    0    0 -0.23502319309E+02 -0.67630406798E+01  0.22525057782E+02  0.33248698628E+02  0.51100000000E-03 0.  1.
        -12    1    3    3    0    0 -0.10227613157E+01 -0.16712403857E+01  0.45148556626E+01  0.49216873926E+01  0.00000000000E+00 0.  1.
</event>
<event>
 7    1  0.2328810E-008  0.4614232E+02  0.7816164E-02  0.1320468E+00
        -11   -1    0    0    0    0  0.00000000000E+00  0.00000000000E+00  0.45593999997E+02  0.45594000000E+02  0.51100000000E-03 0.  1.
         11   -1    0    0    0    0 -0.00000000000E+00 -0.00000000000E+00 -0.45593999997E+02  0.45594000000E+02  0.51100000000E-03 0. -1.
    9900012    2    1    2    0    0  0.17140246289E+02  0.36794605654E+02  0.19531575915E+02  0.46142317568E+02  0.99999982349E+01 0.  0.
         12    1    1    2    0    0 -0.17140246289E+02 -0.36794605654E+02 -0.19531575915E+02  0.45045682432E+02  0.00000000000E+00 0. -1.
         11    1    3    3    0    0  0.32478357082E+01  0.22427600374E+01  0.27806281208E+01  0.48280743967E+01  0.51100000000E-03 0. -1.
        -11    1    3    3    0    0  0.11685915653E+00  0.57587379577E+01  0.15750062682E+01  0.59713787297E+01  0.51100000000E-03 0.  1.
        -12    1    3    3    0    0  0.13775551425E+02  0.28793107659E+02  0.15175941526E+02  0.35342864441E+02  0.00000000000E+00 0.  1.
</event>
<event>
 7    1  0.2328810E-008  0.4614232E+02  0.7816164E-02  0.1320468E+00
        -11   -1    0    0    0    0  0.00000000000E+00  0.00000000000E+00  0.45593999997E+02  0.45594000000E+02  0.51100000000E-03 0.  1.
         11   -1    0    0    0    0 -0.00000000000E+00 -0.00000000000E+00 -0.45593999997E+02  0.45594000000E+02  0.51100000000E-03 0. -1.
    9900012    2    1    2    0    0 -0.82570984249E+01 -0.44013495073E+02  0.48729936079E+01  0.46142317747E+02  0.99999998678E+01 0.  0.
         12    1    1    2    0    0  0.82570984249E+01  0.44013495073E+02 -0.48729936079E+01  0.45045682253E+02  0.00000000000E+00 0. -1.
         11    1    3    3    0    0 -0.18486642551E+01 -0.49449963106E+01 -0.20629827490E+01  0.56680195945E+01  0.51100000000E-03 0. -1.
        -11    1    3    3    0    0  0.56101720251E-02 -0.95720126797E+01  0.30108178438E+01  0.10034365080E+02  0.51100000000E-03 0.  1.
         12    1    3    3    0    0 -0.64140443419E+01 -0.29496486083E+02  0.39251585131E+01  0.30439933072E+02  0.00000000000E+00 0. -1.
</event>
<event>
 7    1  0.2328810E-008  0.4614232E+02  0.7816164E-02  0.1320468E+00
        -11   -1    0    0    0    0  0.00000000000E+00  0.00000000000E+00  0.45593999997E+02  0.45594000000E+02  0.51100000000E-03 0.  1.
         11   -1    0    0    0    0 -0.00000000000E+00 -0.00000000000E+00 -0.45593999997E+02  0.45594000000E+02  0.51100000000E-03 0. -1.
    9900012    2    1    2    0    0  0.11160578033E+02 -0.11435149896E+01  0.43626222791E+02  0.46142318258E+02  0.10000004534E+02 0.  0.
         12    1    1    2    0    0 -0.11160578033E+02  0.11435149896E+01 -0.43626222791E+02  0.45045681742E+02  0.00000000000E+00 0. -1.
         11    1    3    3    0    0  0.25715987246E+01 -0.27752013224E+01  0.89711694534E+01  0.97363619490E+01  0.51100000000E-03 0. -1.
        -11    1    3    3    0    0  0.68280351981E+01  0.23523000458E+01  0.14883821591E+02  0.16543383136E+02  0.51100000000E-03 0.  1.
        -12    1    3    3    0    0  0.17609441108E+01 -0.72061371294E+00  0.19771231747E+02  0.19862573173E+02  0.00000000000E+00 0.  1.
</event>
<event>
 7    1  0.2328810E-008  0.4614232E+02  0.7816164E-02  0.1320468E+00
        -11   -1    0    0    0    0  0.00000000000E+00  0.00000000000E+00  0.45593999997E+02  0.45594000000E+02  0.51100000000E-03 0. -1.
         11   -1    0    0    0    0 -0.00000000000E+00 -0.00000000000E+00 -0.45593999997E+02  0.45594000000E+02  0.51100000000E-03 0.  1.
    9900012    2    1    2    0    0  0.33636327719E+02  0.20495017064E+02 -0.21855553304E+02  0.46142317887E+02  0.10000001144E+02 0.  0.
         12    1    1    2    0    0 -0.33636327719E+02 -0.20495017064E+02  0.21855553304E+02  0.45045682113E+02  0.00000000000E+00 0. -1.
         11    1    3    3    0    0  0.48463712342E+01  0.21814052436E+01 -0.56581566755E+01  0.77627688489E+01  0.51100000000E-03 0. -1.
        -11    1    3    3    0    0  0.23792702400E+02  0.16009258256E+02 -0.16074537443E+02  0.32875215462E+02  0.51100000000E-03 0.  1.
         12    1    3    3    0    0  0.49972540847E+01  0.23043535639E+01 -0.12285918584E+00  0.55043335759E+01  0.00000000000E+00 0. -1.
</event>
<event>
 7    1  0.2328810E-008  0.4614233E+02  0.7816164E-02  0.1320468E+00
        -11   -1    0    0    0    0  0.00000000000E+00  0.00000000000E+00  0.45593999997E+02  0.45594000000E+02  0.51100000000E-03 0.  1.
         11   -1    0    0    0    0 -0.00000000000E+00 -0.00000000000E+00 -0.45593999997E+02  0.45594000000E+02  0.51100000000E-03 0. -1.
    9900012    2    1    2    0    0 -0.36627747941E+02  0.61363848742E+01  0.25492454695E+02  0.46142330009E+02  0.10000111685E+02 0.  0.
         12    1    1    2    0    0  0.36627747941E+02 -0.61363848742E+01 -0.25492454695E+02  0.45045669991E+02  0.00000000000E+00 0. -1.
         11    1    3    3    0    0 -0.81411454681E+00  0.10848715075E+01  0.19765327141E+01  0.23971671853E+01  0.51100000000E-03 0. -1.
        -11    1    3    3    0    0 -0.44945694621E+01  0.31901929478E+01  0.34071303494E+01  0.64797394371E+01  0.51100000000E-03 0.  1.
        -12    1    3    3    0    0 -0.31319063932E+02  0.18613204189E+01  0.20108791632E+02  0.37265423387E+02  0.00000000000E+00 0.  1.
</event>
<event>
 7    1  0.2328810E-008  0.4614232E+02  0.7816164E-02  0.1320468E+00
        -11   -1    0    0    0    0  0.00000000000E+00  0.00000000000E+00  0.45593999997E+02  0.45594000000E+02  0.51100000000E-03 0.  1.
         11   -1    0    0    0    0 -0.00000000000E+00 -0.00000000000E+00 -0.45593999997E+02  0.45594000000E+02  0.51100000000E-03 0. -1.
    9900012    2    1    2    0    0 -0.13915271357E+02  0.37784072999E+02 -0.20195109493E+02  0.46142318778E+02  0.10000009274E+02 0.  0.
         12    1    1    2    0    0  0.13915271357E+02 -0.37784072999E+02  0.20195109493E+02  0.45045681222E+02  0.00000000000E+00 0. -1.
         11    1    3    3    0    0 -0.90237928748E+01  0.11985420911E+02 -0.84700478712E+01  0.17228489877E+02  0.51100000000E-03 0. -1.
        -11    1    3    3    0    0 -0.23254654777E+01  0.73348906190E+01 -0.23351276748E+01  0.80412207780E+01  0.51100000000E-03 0.  1.
         12    1    3    3    0    0 -0.25660130043E+01  0.18463761469E+02 -0.93899339470E+01  0.20872608123E+02  0.00000000000E+00 0. -1.
</event>
<event>
 7    1  0.2328810E-008  0.4614232E+02  0.7816164E-02  0.1320468E+00
        -11   -1    0    0    0    0  0.00000000000E+00  0.00000000000E+00  0.45593999997E+02  0.45594000000E+02  0.51100000000E-03 0.  1.
         11   -1    0    0    0    0 -0.00000000000E+00 -0.00000000000E+00 -0.45593999997E+02  0.45594000000E+02  0.51100000000E-03 0. -1.
    9900012    2    1    2    0    0 -0.25477460780E+02  0.23640992520E+02  0.28655121113E+02  0.46142317620E+02  0.99999987107E+01 0.  0.
         12    1    1    2    0    0  0.25477460780E+02 -0.23640992520E+02 -0.28655121113E+02  0.45045682380E+02  0.00000000000E+00 0. -1.
         11    1    3    3    0    0 -0.93707155690E+01  0.59906647905E+01  0.93465867519E+01  0.14527802968E+02  0.51100000000E-03 0. -1.
        -11    1    3    3    0    0 -0.90057790772E+01  0.63390560793E+01  0.51725602305E+01  0.12167295031E+02  0.51100000000E-03 0.  1.
         12    1    3    3    0    0 -0.71009661339E+01  0.11311271650E+02  0.14135974130E+02  0.19447219621E+02  0.00000000000E+00 0. -1.
</event>
<event>
 7    1  0.2328810E-008  0.4614233E+02  0.7816164E-02  0.1320468E+00
        -11   -1    0    0    0    0  0.00000000000E+00  0.00000000000E+00  0.45593999997E+02  0.45594000000E+02  0.51100000000E-03 0.  1.
         11   -1    0    0    0    0 -0.00000000000E+00 -0.00000000000E+00 -0.45593999997E+02  0.45594000000E+02  0.51100000000E-03 0. -1.
    9900012    2    1    2    0    0  0.34904212735E+02  0.28469899512E+02  0.52298735954E+00  0.46142325839E+02  0.10000073656E+02 0.  0.
         12    1    1    2    0    0 -0.34904212735E+02 -0.28469899512E+02 -0.52298735954E+00  0.45045674161E+02  0.00000000000E+00 0. -1.
         11    1    3    3    0    0  0.27548050443E+01  0.27027967168E+00 -0.20268742000E+00  0.27754430969E+01  0.51100000000E-03 0. -1.
        -11    1    3    3    0    0  0.26388455486E+02  0.25164472628E+02  0.26973830429E+01  0.36563330553E+02  0.51100000000E-03 0.  1.
         12    1    3    3    0    0  0.57609522048E+01  0.30351472123E+01 -0.19717082633E+01  0.68035521885E+01  0.00000000000E+00 0. -1.
</event>
<event>
 7    1  0.2328810E-008  0.4614232E+02  0.7816164E-02  0.1320468E+00
        -11   -1    0    0    0    0  0.00000000000E+00  0.00000000000E+00  0.45593999997E+02  0.45594000000E+02  0.51100000000E-03 0.  1.
         11   -1    0    0    0    0 -0.00000000000E+00 -0.00000000000E+00 -0.45593999997E+02  0.45594000000E+02  0.51100000000E-03 0. -1.
    9900012    2    1    2    0    0 -0.24941127231E+02 -0.31799870779E+02 -0.19895271994E+02  0.46142318111E+02  0.10000003192E+02 0.  0.
         12    1    1    2    0    0  0.24941127231E+02  0.31799870779E+02  0.19895271994E+02  0.45045681889E+02  0.00000000000E+00 0. -1.
         11    1    3    3    0    0 -0.43088411163E+01 -0.31933817859E+01 -0.32747613593E+01  0.62839367611E+01  0.51100000000E-03 0. -1.
        -11    1    3    3    0    0 -0.12958711202E+02 -0.12554209249E+02 -0.54396611137E+01  0.18844794485E+02  0.51100000000E-03 0.  1.
        -12    1    3    3    0    0 -0.76735749127E+01 -0.16052279744E+02 -0.11180849521E+02  0.21013586865E+02  0.00000000000E+00 0.  1.
</event>
<event>
 7    1  0.2328810E-008  0.4614232E+02  0.7816164E-02  0.1320468E+00
        -11   -1    0    0    0    0  0.00000000000E+00  0.00000000000E+00  0.45593999997E+02  0.45594000000E+02  0.51100000000E-03 0.  1.
         11   -1    0    0    0    0 -0.00000000000E+00 -0.00000000000E+00 -0.45593999997E+02  0.45594000000E+02  0.51100000000E-03 0. -1.
    9900012    2    1    2    0    0 -0.42620954153E+02  0.92380874167E+01  0.11279434585E+02  0.46142316116E+02  0.99999849974E+01 0.  0.
         12    1    1    2    0    0  0.42620954153E+02 -0.92380874167E+01 -0.11279434585E+02  0.45045683884E+02  0.00000000000E+00 0. -1.
         11    1    3    3    0    0 -0.62653122726E+01  0.22674541086E+01  0.76191730701E+00  0.67064151566E+01  0.51100000000E-03 0. -1.
        -11    1    3    3    0    0 -0.19354310834E+02  0.26697348995E+01  0.11925737364E+01  0.19573938405E+02  0.51100000000E-03 0.  1.
        -12    1    3    3    0    0 -0.17001331046E+02  0.43008984086E+01  0.93249435412E+01  0.19861962554E+02  0.00000000000E+00 0.  1.
</event>
<event>
 7    1  0.2328810E-008  0.4614231E+02  0.7816164E-02  0.1320468E+00
        -11   -1    0    0    0    0  0.00000000000E+00  0.00000000000E+00  0.45593999997E+02  0.45594000000E+02  0.51100000000E-03 0.  1.
         11   -1    0    0    0    0 -0.00000000000E+00 -0.00000000000E+00 -0.45593999997E+02  0.45594000000E+02  0.51100000000E-03 0. -1.
    9900012    2    1    2    0    0 -0.22646189671E+01  0.40421155936E+02  0.19751344377E+02  0.46142312627E+02  0.99999531814E+01 0.  0.
         12    1    1    2    0    0  0.22646189671E+01 -0.40421155936E+02 -0.19751344377E+02  0.45045687373E+02  0.00000000000E+00 0. -1.
         11    1    3    3    0    0 -0.20055532134E+01  0.25019359283E+02  0.87033098329E+01  0.26565733284E+02  0.51100000000E-03 0. -1.
        -11    1    3    3    0    0  0.18866056795E+01  0.11254790480E+02  0.87020441639E+01  0.14351138026E+02  0.51100000000E-03 0.  1.
         12    1    3    3    0    0 -0.21456714332E+01  0.41470061726E+01  0.23459903798E+01  0.52254413169E+01  0.00000000000E+00 0. -1.
</event>
<event>
 7    1  0.2328810E-008  0.4614232E+02  0.7816164E-02  0.1320468E+00
        -11   -1    0    0    0    0  0.00000000000E+00  0.00000000000E+00  0.45593999997E+02  0.45594000000E+02  0.51100000000E-03 0. -1.
         11   -1    0    0    0    0 -0.00000000000E+00 -0.00000000000E+00 -0.45593999997E+02  0.45594000000E+02  0.51100000000E-03 0.  1.
    9900012    2    1    2    0    0  0.34306581366E+01 -0.41919494080E+02  0.16127612589E+02  0.46142319996E+02  0.10000020381E+02 0.  0.
         12    1    1    2    0    0 -0.34306581366E+01  0.41919494080E+02 -0.16127612589E+02  0.45045680004E+02  0.00000000000E+00 0. -1.
         11    1    3    3    0    0  0.12321306793E+01 -0.13033475732E+02  0.35089657553E+01  0.13553688671E+02  0.51100000000E-03 0. -1.
        -11    1    3    3    0    0  0.48840254943E+01 -0.17476487548E+02  0.59154517880E+01  0.19085960603E+02  0.51100000000E-03 0.  1.
         12    1    3    3    0    0 -0.26854980370E+01 -0.11409530801E+02  0.67031950459E+01  0.13502670722E+02  0.00000000000E+00 0. -1.
</event>
<event>
 7    1  0.2328810E-008  0.4614232E+02  0.7816164E-02  0.1320468E+00
        -11   -1    0    0    0    0  0.00000000000E+00  0.00000000000E+00  0.45593999997E+02  0.45594000000E+02  0.51100000000E-03 0. -1.
         11   -1    0    0    0    0 -0.00000000000E+00 -0.00000000000E+00 -0.45593999997E+02  0.45594000000E+02  0.51100000000E-03 0.  1.
    9900012    2    1    2    0    0 -0.21099127191E+02 -0.23374045682E+02 -0.32211710482E+02  0.46142317943E+02  0.10000001662E+02 0.  0.
         12    1    1    2    0    0  0.21099127191E+02  0.23374045682E+02  0.32211710482E+02  0.45045682057E+02  0.00000000000E+00 0. -1.
         11    1    3    3    0    0  0.10085097568E+01 -0.42849584939E+00 -0.66216602518E+00  0.12802986872E+01  0.51100000000E-03 0. -1.
        -11    1    3    3    0    0 -0.46893980008E+01 -0.46427789949E+01 -0.73223784327E+01  0.98571332840E+01  0.51100000000E-03 0.  1.
         12    1    3    3    0    0 -0.17418238947E+02 -0.18302770838E+02 -0.24227166024E+02  0.35004885972E+02  0.00000000000E+00 0. -1.
</event>
<event>
 7    1  0.2328810E-008  0.4614232E+02  0.7816164E-02  0.1320468E+00
        -11   -1    0    0    0    0  0.00000000000E+00  0.00000000000E+00  0.45593999997E+02  0.45594000000E+02  0.51100000000E-03 0.  1.
         11   -1    0    0    0    0 -0.00000000000E+00 -0.00000000000E+00 -0.45593999997E+02  0.45594000000E+02  0.51100000000E-03 0. -1.
    9900012    2    1    2    0    0  0.30472904798E+02  0.13004201669E+02  0.30518950671E+02  0.46142317211E+02  0.99999949811E+01 0.  0.
         12    1    1    2    0    0 -0.30472904798E+02 -0.13004201669E+02 -0.30518950671E+02  0.45045682789E+02  0.00000000000E+00 0. -1.
         11    1    3    3    0    0  0.43018501849E+01  0.26102454078E+00  0.76612862403E+01  0.87902989677E+01  0.51100000000E-03 0. -1.
        -11    1    3    3    0    0  0.21291399205E+02  0.83110249116E+01  0.16461834386E+02  0.28167158302E+02  0.51100000000E-03 0.  1.
         12    1    3    3    0    0  0.48796554076E+01  0.44321522168E+01  0.63958300450E+01  0.91848599409E+01  0.00000000000E+00 0. -1.
</event>
<event>
 7    1  0.2328810E-008  0.4614232E+02  0.7816164E-02  0.1320468E+00
        -11   -1    0    0    0    0  0.00000000000E+00  0.00000000000E+00  0.45593999997E+02  0.45594000000E+02  0.51100000000E-03 0.  1.
         11   -1    0    0    0    0 -0.00000000000E+00 -0.00000000000E+00 -0.45593999997E+02  0.45594000000E+02  0.51100000000E-03 0. -1.
    9900012    2    1    2    0    0  0.24062281084E+02  0.11688704930E+02  0.36242162374E+02  0.46142317327E+02  0.99999960399E+01 0.  0.
         12    1    1    2    0    0 -0.24062281084E+02 -0.11688704930E+02 -0.36242162374E+02  0.45045682673E+02  0.00000000000E+00 0. -1.
         11    1    3    3    0    0  0.16962115094E+02  0.94760077313E+01  0.23287224343E+02  0.30328252321E+02  0.51100000000E-03 0.  1.
        -11    1    3    3    0    0  0.76132547293E+01  0.28020207753E+01  0.10700766850E+02  0.13428305159E+02  0.51100000000E-03 0. -1.
         12    1    3    3    0    0 -0.51308873934E+00 -0.58932357656E+00  0.22541711807E+01  0.23857598463E+01  0.00000000000E+00 0. -1.
</event>
<event>
 7    1  0.2328810E-008  0.4614232E+02  0.7816164E-02  0.1320468E+00
        -11   -1    0    0    0    0  0.00000000000E+00  0.00000000000E+00  0.45593999997E+02  0.45594000000E+02  0.51100000000E-03 0.  1.
         11   -1    0    0    0    0 -0.00000000000E+00 -0.00000000000E+00 -0.45593999997E+02  0.45594000000E+02  0.51100000000E-03 0. -1.
    9900012    2    1    2    0    0 -0.93877800054E+01  0.82622608247E+01  0.43274912849E+02  0.46142318194E+02  0.10000003943E+02 0.  0.
         12    1    1    2    0    0  0.93877800054E+01 -0.82622608247E+01 -0.43274912849E+02  0.45045681806E+02  0.00000000000E+00 0. -1.
         11    1    3    3    0    0 -0.58067977098E+01  0.61174257788E+01  0.17813778653E+02  0.19709705933E+02  0.51100000000E-03 0. -1.
        -11    1    3    3    0    0 -0.44335582442E+01 -0.36172121696E-01  0.12533517033E+02  0.13294615324E+02  0.51100000000E-03 0.  1.
        -12    1    3    3    0    0  0.85257594866E+00  0.21810071675E+01  0.12927617162E+02  0.13137996937E+02  0.00000000000E+00 0.  1.
</event>
<event>
 7    1  0.2328810E-008  0.4614232E+02  0.7816164E-02  0.1320468E+00
        -11   -1    0    0    0    0  0.00000000000E+00  0.00000000000E+00  0.45593999997E+02  0.45594000000E+02  0.51100000000E-03 0.  1.
         11   -1    0    0    0    0 -0.00000000000E+00 -0.00000000000E+00 -0.45593999997E+02  0.45594000000E+02  0.51100000000E-03 0. -1.
    9900012    2    1    2    0    0 -0.54374372488E+01  0.11251238913E+02  0.43277678100E+02  0.46142317381E+02  0.99999965336E+01 0.  0.
         12    1    1    2    0    0  0.54374372488E+01 -0.11251238913E+02 -0.43277678100E+02  0.45045682619E+02  0.00000000000E+00 0. -1.
         11    1    3    3    0    0 -0.52334210415E+00  0.33676191983E+01  0.36205545590E+01  0.49722390931E+01  0.51100000000E-03 0. -1.
        -11    1    3    3    0    0 -0.41653182251E+01  0.88415396473E+01  0.33623706779E+02  0.35015373154E+02  0.51100000000E-03 0.  1.
        -12    1    3    3    0    0 -0.74877691955E+00 -0.95791993252E+00  0.60334167615E+01  0.61547051343E+01  0.00000000000E+00 0.  1.
</event>
<event>
 7    1  0.2328810E-008  0.4614231E+02  0.7816164E-02  0.1320468E+00
        -11   -1    0    0    0    0  0.00000000000E+00  0.00000000000E+00  0.45593999997E+02  0.45594000000E+02  0.51100000000E-03 0.  1.
         11   -1    0    0    0    0 -0.00000000000E+00 -0.00000000000E+00 -0.45593999997E+02  0.45594000000E+02  0.51100000000E-03 0. -1.
    9900012    2    1    2    0    0  0.19213999231E+02 -0.29943682661E+02  0.27628104628E+02  0.46142311381E+02  0.99999418242E+01 0.  0.
         12    1    1    2    0    0 -0.19213999231E+02  0.29943682661E+02 -0.27628104628E+02  0.45045688619E+02  0.00000000000E+00 0. -1.
         11    1    3    3    0    0  0.35513633933E+01 -0.83679997050E+01  0.39565673718E+01  0.99141326723E+01  0.51100000000E-03 0. -1.
        -11    1    3    3    0    0  0.14038766312E+01 -0.58719166890E+01  0.36206099098E+01  0.70398218429E+01  0.51100000000E-03 0.  1.
        -12    1    3    3    0    0  0.14258759207E+02 -0.15703766267E+02  0.20050927347E+02  0.29188356866E+02  0.00000000000E+00 0.  1.
</event>
<event>
 7    1  0.2328810E-008  0.4614232E+02  0.7816164E-02  0.1320468E+00
        -11   -1    0    0    0    0  0.00000000000E+00  0.00000000000E+00  0.45593999997E+02  0.45594000000E+02  0.51100000000E-03 0.  1.
         11   -1    0    0    0    0 -0.00000000000E+00 -0.00000000000E+00 -0.45593999997E+02  0.45594000000E+02  0.51100000000E-03 0. -1.
    9900012    2    1    2    0    0 -0.57512625318E+01 -0.12633426699E+02  0.42853622154E+02  0.46142318491E+02  0.10000006660E+02 0.  0.
         12    1    1    2    0    0  0.57512625318E+01  0.12633426699E+02 -0.42853622154E+02  0.45045681509E+02  0.00000000000E+00 0. -1.
         11    1    3    3    0    0  0.56866134471E+00 -0.19109220942E+01  0.61328545786E+01  0.64487909346E+01  0.51100000000E-03 0. -1.
        -11    1    3    3    0    0 -0.19899312761E+01 -0.80576169179E+01  0.30754444396E+02  0.31854683600E+02  0.51100000000E-03 0.  1.
         12    1    3    3    0    0 -0.43299926003E+01 -0.26648876866E+01  0.59663231793E+01  0.78388439569E+01  0.00000000000E+00 0. -1.
</event>
<event>
 7    1  0.2328810E-008  0.4614232E+02  0.7816164E-02  0.1320468E+00
        -11   -1    0    0    0    0  0.00000000000E+00  0.00000000000E+00  0.45593999997E+02  0.45594000000E+02  0.51100000000E-03 0. -1.
         11   -1    0    0    0    0 -0.00000000000E+00 -0.00000000000E+00 -0.45593999997E+02  0.45594000000E+02  0.51100000000E-03 0.  1.
    9900012    2    1    2    0    0  0.27492329801E+02 -0.33739095356E+02 -0.11617169399E+02  0.46142318984E+02  0.10000011156E+02 0.  0.
         12    1    1    2    0    0 -0.27492329801E+02  0.33739095356E+02  0.11617169399E+02  0.45045681016E+02  0.00000000000E+00 0. -1.
         11    1    3    3    0    0  0.73733986017E+01 -0.66948137193E+01 -0.34395969193E+01  0.10536525277E+02  0.51100000000E-03 0.  1.
        -11    1    3    3    0    0  0.13679686796E+02 -0.19259677408E+02 -0.18736465317E+01  0.23697669849E+02  0.51100000000E-03 0. -1.
         12    1    3    3    0    0  0.64392444033E+01 -0.77846042290E+01 -0.63039259477E+01  0.11908123859E+02  0.00000000000E+00 0. -1.
</event>
<event>
 7    1  0.2328810E-008  0.4614232E+02  0.7816164E-02  0.1320468E+00
        -11   -1    0    0    0    0  0.00000000000E+00  0.00000000000E+00  0.45593999997E+02  0.45594000000E+02  0.51100000000E-03 0.  1.
         11   -1    0    0    0    0 -0.00000000000E+00 -0.00000000000E+00 -0.45593999997E+02  0.45594000000E+02  0.51100000000E-03 0. -1.
    9900012    2    1    2    0    0 -0.35352775440E+02 -0.23689302263E+01  0.27815156511E+02  0.46142317705E+02  0.99999994852E+01 0.  0.
         12    1    1    2    0    0  0.35352775440E+02  0.23689302263E+01 -0.27815156511E+02  0.45045682295E+02  0.00000000000E+00 0. -1.
         11    1    3    3    0    0 -0.38747399855E+01 -0.94094851825E+00  0.47309136239E+00  0.40153218760E+01  0.51100000000E-03 0. -1.
        -11    1    3    3    0    0 -0.18862960100E+02 -0.25884336479E+01  0.19360160881E+02  0.27153767365E+02  0.51100000000E-03 0.  1.
        -12    1    3    3    0    0 -0.12615075354E+02  0.11604519399E+01  0.79819042669E+01  0.14973228464E+02  0.00000000000E+00 0.  1.
</event>
<event>
 7    1  0.2328810E-008  0.4614232E+02  0.7816164E-02  0.1320468E+00
        -11   -1    0    0    0    0  0.00000000000E+00  0.00000000000E+00  0.45593999997E+02  0.45594000000E+02  0.51100000000E-03 0.  1.
         11   -1    0    0    0    0 -0.00000000000E+00 -0.00000000000E+00 -0.45593999997E+02  0.45594000000E+02  0.51100000000E-03 0. -1.
    9900012    2    1    2    0    0  0.31813544314E+02  0.21076169352E+02  0.23933383235E+02  0.46142319303E+02  0.10000014062E+02 0.  0.
         12    1    1    2    0    0 -0.31813544314E+02 -0.21076169352E+02 -0.23933383235E+02  0.45045680697E+02  0.00000000000E+00 0. -1.
         11    1    3    3    0    0  0.34772804580E+01  0.20981689689E+01 -0.12884716263E+00  0.40632984456E+01  0.51100000000E-03 0. -1.
        -11    1    3    3    0    0  0.14163921889E+02  0.63208044401E+01  0.11277932612E+02  0.19177096139E+02  0.51100000000E-03 0.  1.
        -12    1    3    3    0    0  0.14172341967E+02  0.12657195943E+02  0.12784297785E+02  0.22901924719E+02  0.00000000000E+00 0.  1.
</event>
<event>
 7    1  0.2328810E-008  0.4614232E+02  0.7816164E-02  0.1320468E+00
        -11   -1    0    0    0    0  0.00000000000E+00  0.00000000000E+00  0.45593999997E+02  0.45594000000E+02  0.51100000000E-03 0. -1.
         11   -1    0    0    0    0 -0.00000000000E+00 -0.00000000000E+00 -0.45593999997E+02  0.45594000000E+02  0.51100000000E-03 0.  1.
    9900012    2    1    2    0    0 -0.32857030199E+01  0.26914624591E+02 -0.35971108887E+02  0.46142317235E+02  0.99999952012E+01 0.  0.
         12    1    1    2    0    0  0.32857030199E+01 -0.26914624591E+02  0.35971108887E+02  0.45045682765E+02  0.00000000000E+00 0. -1.
         11    1    3    3    0    0 -0.12644204914E+01 -0.89428819429E-01 -0.19629744878E+01  0.23366698085E+01  0.51100000000E-03 0. -1.
        -11    1    3    3    0    0  0.17850203190E+01  0.83830390427E+01 -0.11595080949E+02  0.14418999397E+02  0.51100000000E-03 0.  1.
        -12    1    3    3    0    0 -0.38063028475E+01  0.18621014367E+02 -0.22413053450E+02  0.29386648029E+02  0.00000000000E+00 0.  1.
</event>
<event>
 7    1  0.2328810E-008  0.4614232E+02  0.7816164E-02  0.1320468E+00
        -11   -1    0    0    0    0  0.00000000000E+00  0.00000000000E+00  0.45593999997E+02  0.45594000000E+02  0.51100000000E-03 0. -1.
         11   -1    0    0    0    0 -0.00000000000E+00 -0.00000000000E+00 -0.45593999997E+02  0.45594000000E+02  0.51100000000E-03 0.  1.
    9900012    2    1    2    0    0 -0.41668391595E+02 -0.14358845360E+02  0.93103277625E+01  0.46142317618E+02  0.99999986959E+01 0.  0.
         12    1    1    2    0    0  0.41668391595E+02  0.14358845360E+02 -0.93103277625E+01  0.45045682382E+02  0.00000000000E+00 0. -1.
         11    1    3    3    0    0 -0.61197780284E-01 -0.13920638964E+01  0.49158658253E+00  0.14775806879E+01  0.51100000000E-03 0. -1.
        -11    1    3    3    0    0 -0.18959010719E+02 -0.48858877136E+01  0.20613223385E+01  0.19686671538E+02  0.51100000000E-03 0.  1.
         12    1    3    3    0    0 -0.22648183095E+02 -0.80808937505E+01  0.67574188415E+01  0.24978065392E+02  0.00000000000E+00 0. -1.
</event>
<event>
 7    1  0.2328810E-008  0.4614232E+02  0.7816164E-02  0.1320468E+00
        -11   -1    0    0    0    0  0.00000000000E+00  0.00000000000E+00  0.45593999997E+02  0.45594000000E+02  0.51100000000E-03 0.  1.
         11   -1    0    0    0    0 -0.00000000000E+00 -0.00000000000E+00 -0.45593999997E+02  0.45594000000E+02  0.51100000000E-03 0. -1.
    9900012    2    1    2    0    0  0.23689761118E+02 -0.15885636253E+02  0.34864814276E+02  0.46142317682E+02  0.99999992753E+01 0.  0.
         12    1    1    2    0    0 -0.23689761118E+02  0.15885636253E+02 -0.34864814276E+02  0.45045682318E+02  0.00000000000E+00 0. -1.
         11    1    3    3    0    0  0.12797342928E+02 -0.67238458847E+01  0.10985213311E+02  0.18156458940E+02  0.51100000000E-03 0. -1.
        -11    1    3    3    0    0  0.66411521011E+01 -0.36722427432E+01  0.11183322137E+02  0.13515064272E+02  0.51100000000E-03 0.  1.
         12    1    3    3    0    0  0.42512660888E+01 -0.54895476251E+01  0.12696278828E+02  0.14470794469E+02  0.00000000000E+00 0. -1.
</event>
<event>
 7    1  0.2328810E-008  0.4614232E+02  0.7816164E-02  0.1320468E+00
        -11   -1    0    0    0    0  0.00000000000E+00  0.00000000000E+00  0.45593999997E+02  0.45594000000E+02  0.51100000000E-03 0. -1.
         11   -1    0    0    0    0 -0.00000000000E+00 -0.00000000000E+00 -0.45593999997E+02  0.45594000000E+02  0.51100000000E-03 0.  1.
    9900012    2    1    2    0    0 -0.41808468067E+02  0.38702462767E+01 -0.16315229426E+02  0.46142317415E+02  0.99999968424E+01 0.  0.
         12    1    1    2    0    0  0.41808468067E+02 -0.38702462767E+01  0.16315229426E+02  0.45045682585E+02  0.00000000000E+00 0. -1.
         11    1    3    3    0    0 -0.17641914183E+02  0.39535841585E+01 -0.56247051692E+01  0.18934235454E+02  0.51100000000E-03 0. -1.
        -11    1    3    3    0    0 -0.22636422897E+02  0.14103510062E+01 -0.87156198474E+01  0.24297299461E+02  0.51100000000E-03 0.  1.
        -12    1    3    3    0    0 -0.15301309874E+01 -0.14936888880E+01 -0.19749044098E+01  0.29107824997E+01  0.00000000000E+00 0.  1.
</event>
<event>
 7    1  0.2328810E-008  0.4614232E+02  0.7816164E-02  0.1320468E+00
        -11   -1    0    0    0    0  0.00000000000E+00  0.00000000000E+00  0.45593999997E+02  0.45594000000E+02  0.51100000000E-03 0.  1.
         11   -1    0    0    0    0 -0.00000000000E+00 -0.00000000000E+00 -0.45593999997E+02  0.45594000000E+02  0.51100000000E-03 0. -1.
    9900012    2    1    2    0    0 -0.13399548267E+02 -0.45480685526E+01  0.42765414335E+02  0.46142317803E+02  0.10000000383E+02 0.  0.
         12    1    1    2    0    0  0.13399548267E+02  0.45480685526E+01 -0.42765414335E+02  0.45045682197E+02  0.00000000000E+00 0. -1.
         11    1    3    3    0    0 -0.25960119937E+01 -0.20975844040E+01  0.13329748570E+02  0.13741227594E+02  0.51100000000E-03 0. -1.
        -11    1    3    3    0    0 -0.13517521562E+01  0.11350631845E+01  0.12899680911E+02  0.13019883647E+02  0.51100000000E-03 0.  1.
         12    1    3    3    0    0 -0.94517841166E+01 -0.35855473330E+01  0.16535984855E+02  0.19381206562E+02  0.00000000000E+00 0. -1.
</event>
<event>
 7    1  0.2328810E-008  0.4614231E+02  0.7816164E-02  0.1320468E+00
        -11   -1    0    0    0    0  0.00000000000E+00  0.00000000000E+00  0.45593999997E+02  0.45594000000E+02  0.51100000000E-03 0.  1.
         11   -1    0    0    0    0 -0.00000000000E+00 -0.00000000000E+00 -0.45593999997E+02  0.45594000000E+02  0.51100000000E-03 0. -1.
    9900012    2    1    2    0    0  0.23770361220E+02  0.38260807967E+02  0.44085693747E+00  0.46142313706E+02  0.99999630263E+01 0.  0.
         12    1    1    2    0    0 -0.23770361220E+02 -0.38260807967E+02 -0.44085693747E+00  0.45045686294E+02  0.00000000000E+00 0. -1.
         11    1    3    3    0    0  0.16273320612E+02  0.19265428479E+02  0.13161047334E+01  0.25252917261E+02  0.51100000000E-03 0. -1.
        -11    1    3    3    0    0  0.41981637598E+01  0.85087683269E+01 -0.24104054720E+01  0.97894725187E+01  0.51100000000E-03 0.  1.
        -12    1    3    3    0    0  0.32988768478E+01  0.10486611161E+02  0.15351576761E+01  0.11099923927E+02  0.00000000000E+00 0.  1.
</event>
<event>
 7    1  0.2328810E-008  0.4614232E+02  0.7816164E-02  0.1320468E+00
        -11   -1    0    0    0    0  0.00000000000E+00  0.00000000000E+00  0.45593999997E+02  0.45594000000E+02  0.51100000000E-03 0.  1.
         11   -1    0    0    0    0 -0.00000000000E+00 -0.00000000000E+00 -0.45593999997E+02  0.45594000000E+02  0.51100000000E-03 0. -1.
    9900012    2    1    2    0    0 -0.16701824995E+01 -0.19454974599E+02  0.40593446591E+02  0.46142318161E+02  0.10000003649E+02 0.  0.
         12    1    1    2    0    0  0.16701824995E+01  0.19454974599E+02 -0.40593446591E+02  0.45045681839E+02  0.00000000000E+00 0. -1.
         11    1    3    3    0    0 -0.11338251229E+01  0.15792708503E+00  0.42415875540E+00  0.12208240186E+01  0.51100000000E-03 0. -1.
        -11    1    3    3    0    0 -0.17108259260E+01 -0.10834277282E+02  0.18426149433E+02  0.21443681418E+02  0.51100000000E-03 0.  1.
         12    1    3    3    0    0  0.11744685494E+01 -0.87786244019E+01  0.21743138402E+02  0.23477812724E+02  0.00000000000E+00 0. -1.
</event>
<event>
 7    1  0.2328810E-008  0.4614232E+02  0.7816164E-02  0.1320468E+00
        -11   -1    0    0    0    0  0.00000000000E+00  0.00000000000E+00  0.45593999997E+02  0.45594000000E+02  0.51100000000E-03 0.  1.
         11   -1    0    0    0    0 -0.00000000000E+00 -0.00000000000E+00 -0.45593999997E+02  0.45594000000E+02  0.51100000000E-03 0. -1.
    9900012    2    1    2    0    0 -0.21569709522E+01  0.16373602077E+02  0.41909022367E+02  0.46142317361E+02  0.99999963481E+01 0.  0.
         12    1    1    2    0    0  0.21569709522E+01 -0.16373602077E+02 -0.41909022367E+02  0.45045682639E+02  0.00000000000E+00 0. -1.
         11    1    3    3    0    0 -0.23813548203E+01  0.38155552777E+01  0.12115055310E+02  0.12922998038E+02  0.51100000000E-03 0.  1.
        -11    1    3    3    0    0 -0.28776905624E+01  0.10306844913E+02  0.23931963370E+02  0.26215473027E+02  0.51100000000E-03 0. -1.
         12    1    3    3    0    0  0.31020744305E+01  0.22512018869E+01  0.58620036874E+01  0.70038462960E+01  0.00000000000E+00 0. -1.
</event>
<event>
 7    1  0.2328810E-008  0.4614232E+02  0.7816164E-02  0.1320468E+00
        -11   -1    0    0    0    0  0.00000000000E+00  0.00000000000E+00  0.45593999997E+02  0.45594000000E+02  0.51100000000E-03 0.  1.
         11   -1    0    0    0    0 -0.00000000000E+00 -0.00000000000E+00 -0.45593999997E+02  0.45594000000E+02  0.51100000000E-03 0. -1.
    9900012    2    1    2    0    0  0.22276209823E+02 -0.30806100229E+02  0.24163357664E+02  0.46142321084E+02  0.10000030301E+02 0.  0.
         12    1    1    2    0    0 -0.22276209823E+02  0.30806100229E+02 -0.24163357664E+02  0.45045678916E+02  0.00000000000E+00 0. -1.
         11    1    3    3    0    0  0.57973954832E+01 -0.14070612467E+02  0.71578261740E+01  0.16817443485E+02  0.51100000000E-03 0. -1.
        -11    1    3    3    0    0  0.52276694302E+01 -0.29099277428E+01  0.53599950363E+01  0.80327924280E+01  0.51100000000E-03 0.  1.
        -12    1    3    3    0    0  0.11251144910E+02 -0.13825560019E+02  0.11645536454E+02  0.21292085171E+02  0.00000000000E+00 0.  1.
</event>
<event>
 7    1  0.2328810E-008  0.4614232E+02  0.7816164E-02  0.1320468E+00
        -11   -1    0    0    0    0  0.00000000000E+00  0.00000000000E+00  0.45593999997E+02  0.45594000000E+02  0.51100000000E-03 0.  1.
         11   -1    0    0    0    0 -0.00000000000E+00 -0.00000000000E+00 -0.45593999997E+02  0.45594000000E+02  0.51100000000E-03 0. -1.
    9900012    2    1    2    0    0 -0.24660533974E+02  0.58989290972E+00  0.37691159488E+02  0.46142318596E+02  0.10000007616E+02 0.  0.
         12    1    1    2    0    0  0.24660533974E+02 -0.58989290972E+00 -0.37691159488E+02  0.45045681404E+02  0.00000000000E+00 0. -1.
         11    1    3    3    0    0 -0.98330815644E+01  0.19536179440E+01  0.11280845613E+02  0.15091838660E+02  0.51100000000E-03 0. -1.
        -11    1    3    3    0    0 -0.13653921301E+02  0.12252444316E+00  0.18971417727E+02  0.23374329294E+02  0.51100000000E-03 0.  1.
         12    1    3    3    0    0 -0.11735311086E+01 -0.14862494775E+01  0.74388961484E+01  0.76761506420E+01  0.00000000000E+00 0. -1.
</event>
<event>
 7    1  0.2328810E-008  0.4614232E+02  0.7816164E-02  0.1320468E+00
        -11   -1    0    0    0    0  0.00000000000E+00  0.00000000000E+00  0.45593999997E+02  0.45594000000E+02  0.51100000000E-03 0.  1.
         11   -1    0    0    0    0 -0.00000000000E+00 -0.00000000000E+00 -0.45593999997E+02  0.45594000000E+02  0.51100000000E-03 0. -1.
    9900012    2    1    2    0    0 -0.17248255228E+02  0.10705802735E+02  0.40211901609E+02  0.46142317059E+02  0.99999936003E+01 0.  0.
         12    1    1    2    0    0  0.17248255228E+02 -0.10705802735E+02 -0.40211901609E+02  0.45045682941E+02  0.00000000000E+00 0. -1.
         11    1    3    3    0    0 -0.49891694689E+01  0.11516346908E+01  0.18737687243E+02  0.19424700716E+02  0.51100000000E-03 0. -1.
        -11    1    3    3    0    0 -0.80926589417E+01  0.43988507026E+01  0.13588759237E+02  0.16416314876E+02  0.51100000000E-03 0.  1.
        -12    1    3    3    0    0 -0.41664268173E+01  0.51553173419E+01  0.78854551283E+01  0.10301301466E+02  0.00000000000E+00 0.  1.
</event>
<event>
 7    1  0.2328810E-008  0.4614232E+02  0.7816164E-02  0.1320468E+00
        -11   -1    0    0    0    0  0.00000000000E+00  0.00000000000E+00  0.45593999997E+02  0.45594000000E+02  0.51100000000E-03 0.  1.
         11   -1    0    0    0    0 -0.00000000000E+00 -0.00000000000E+00 -0.45593999997E+02  0.45594000000E+02  0.51100000000E-03 0. -1.
    9900012    2    1    2    0    0  0.38729842383E+02  0.22910712915E+02 -0.20523585291E+01  0.46142316158E+02  0.99999853795E+01 0.  0.
         12    1    1    2    0    0 -0.38729842383E+02 -0.22910712915E+02  0.20523585291E+01  0.45045683842E+02  0.00000000000E+00 0. -1.
         11    1    3    3    0    0  0.24966007732E+02  0.12023629686E+02  0.28734364208E+01  0.27859035339E+02  0.51100000000E-03 0. -1.
        -11    1    3    3    0    0  0.30494467646E+01  0.21650461368E+01 -0.48335940956E+00  0.37709663117E+01  0.51100000000E-03 0.  1.
         12    1    3    3    0    0  0.10714387887E+02  0.87220370924E+01 -0.44424355403E+01  0.14512314507E+02  0.00000000000E+00 0. -1.
</event>
<event>
 7    1  0.2328810E-008  0.4614232E+02  0.7816164E-02  0.1320468E+00
        -11   -1    0    0    0    0  0.00000000000E+00  0.00000000000E+00  0.45593999997E+02  0.45594000000E+02  0.51100000000E-03 0. -1.
         11   -1    0    0    0    0 -0.00000000000E+00 -0.00000000000E+00 -0.45593999997E+02  0.45594000000E+02  0.51100000000E-03 0.  1.
    9900012    2    1    2    0    0 -0.43286481904E+02  0.45303471894E+01 -0.11613351038E+02  0.46142317814E+02  0.10000000480E+02 0.  0.
         12    1    1    2    0    0  0.43286481904E+02 -0.45303471894E+01  0.11613351038E+02  0.45045682186E+02  0.00000000000E+00 0. -1.
         11    1    3    3    0    0 -0.57904136707E+01  0.85739588259E+00 -0.42306261564E+01  0.72223414564E+01  0.51100000000E-03 0. -1.
        -11    1    3    3    0    0 -0.22977258009E+02  0.41347360398E+01 -0.20123431374E+01  0.23432881874E+02  0.51100000000E-03 0.  1.
        -12    1    3    3    0    0 -0.14518810224E+02 -0.46178473299E+00 -0.53703817443E+01  0.15487094484E+02  0.00000000000E+00 0.  1.
</event>
<event>
 7    1  0.2328810E-008  0.4614232E+02  0.7816164E-02  0.1320468E+00
        -11   -1    0    0    0    0  0.00000000000E+00  0.00000000000E+00  0.45593999997E+02  0.45594000000E+02  0.51100000000E-03 0.  1.
         11   -1    0    0    0    0 -0.00000000000E+00 -0.00000000000E+00 -0.45593999997E+02  0.45594000000E+02  0.51100000000E-03 0. -1.
    9900012    2    1    2    0    0  0.32377226166E+02  0.30708998120E+02  0.61470391020E+01  0.46142318415E+02  0.10000005964E+02 0.  0.
         12    1    1    2    0    0 -0.32377226166E+02 -0.30708998120E+02 -0.61470391020E+01  0.45045681585E+02  0.00000000000E+00 0. -1.
         11    1    3    3    0    0  0.65912936357E+01  0.90661808288E+01 -0.34858734156E-01  0.11209014319E+02  0.51100000000E-03 0. -1.
        -11    1    3    3    0    0  0.23982053287E+02  0.19131066258E+02  0.74845226499E+01  0.31577755708E+02  0.51100000000E-03 0.  1.
        -12    1    3    3    0    0  0.18038792437E+01  0.25117510332E+01 -0.13026248138E+01  0.33555483880E+01  0.00000000000E+00 0.  1.
</event>
<event>
 7    1  0.2328810E-008  0.4614232E+02  0.7816164E-02  0.1320468E+00
        -11   -1    0    0    0    0  0.00000000000E+00  0.00000000000E+00  0.45593999997E+02  0.45594000000E+02  0.51100000000E-03 0.  1.
         11   -1    0    0    0    0 -0.00000000000E+00 -0.00000000000E+00 -0.45593999997E+02  0.45594000000E+02  0.51100000000E-03 0. -1.
    9900012    2    1    2    0    0 -0.18849462987E+02 -0.17478769446E+02  0.36990593624E+02  0.46142315935E+02  0.99999833463E+01 0.  0.
         12    1    1    2    0    0  0.18849462987E+02  0.17478769446E+02 -0.36990593624E+02  0.45045684065E+02  0.00000000000E+00 0. -1.
         11    1    3    3    0    0 -0.54798828836E+01 -0.18180678224E+01  0.69535559629E+01  0.90380544264E+01  0.51100000000E-03 0. -1.
        -11    1    3    3    0    0 -0.12153999738E+02 -0.94680326614E+01  0.19963153022E+02  0.25216875916E+02  0.51100000000E-03 0.  1.
        -12    1    3    3    0    0 -0.12155803648E+01 -0.61926689626E+01  0.10073884639E+02  0.11887385593E+02  0.00000000000E+00 0.  1.
</event>
<event>
 7    1  0.2328810E-008  0.4614232E+02  0.7816164E-02  0.1320468E+00
        -11   -1    0    0    0    0  0.00000000000E+00  0.00000000000E+00  0.45593999997E+02  0.45594000000E+02  0.51100000000E-03 0. -1.
         11   -1    0    0    0    0 -0.00000000000E+00 -0.00000000000E+00 -0.45593999997E+02  0.45594000000E+02  0.51100000000E-03 0.  1.
    9900012    2    1    2    0    0  0.13271492633E+02 -0.22966419765E+02 -0.36407752896E+02  0.46142318470E+02  0.10000006463E+02 0.  0.
         12    1    1    2    0    0 -0.13271492633E+02  0.22966419765E+02  0.36407752896E+02  0.45045681530E+02  0.00000000000E+00 0. -1.
         11    1    3    3    0    0  0.29584953108E+01 -0.13892139434E+02 -0.20616606830E+02  0.25035748640E+02  0.51100000000E-03 0. -1.
        -11    1    3    3    0    0  0.45339921715E+01 -0.57766105864E+01 -0.79417386648E+01  0.10816539565E+02  0.51100000000E-03 0.  1.
         12    1    3    3    0    0  0.57790051512E+01 -0.32976697449E+01 -0.78494074019E+01  0.10290030265E+02  0.00000000000E+00 0. -1.
</event>
<event>
 7    1  0.2328810E-008  0.4614232E+02  0.7816164E-02  0.1320468E+00
        -11   -1    0    0    0    0  0.00000000000E+00  0.00000000000E+00  0.45593999997E+02  0.45594000000E+02  0.51100000000E-03 0.  1.
         11   -1    0    0    0    0 -0.00000000000E+00 -0.00000000000E+00 -0.45593999997E+02  0.45594000000E+02  0.51100000000E-03 0. -1.
    9900012    2    1    2    0    0 -0.39248223176E+02  0.18562033503E+02 -0.12005888201E+02  0.46142318057E+02  0.10000002695E+02 0.  0.
         12    1    1    2    0    0  0.39248223176E+02 -0.18562033503E+02  0.12005888201E+02  0.45045681943E+02  0.00000000000E+00 0. -1.
         11    1    3    3    0    0 -0.70979114105E+00  0.24636971428E+00 -0.20466455173E+01  0.21801971550E+01  0.51100000000E-03 0. -1.
        -11    1    3    3    0    0 -0.21245220066E+02  0.84608021070E+01 -0.63519939970E+01  0.23733781324E+02  0.51100000000E-03 0.  1.
        -12    1    3    3    0    0 -0.17293211969E+02  0.98548616815E+01 -0.36072486863E+01  0.20228339577E+02  0.00000000000E+00 0.  1.
</event>
<event>
 7    1  0.2328810E-008  0.4614232E+02  0.7816164E-02  0.1320468E+00
        -11   -1    0    0    0    0  0.00000000000E+00  0.00000000000E+00  0.45593999997E+02  0.45594000000E+02  0.51100000000E-03 0.  1.
         11   -1    0    0    0    0 -0.00000000000E+00 -0.00000000000E+00 -0.45593999997E+02  0.45594000000E+02  0.51100000000E-03 0. -1.
    9900012    2    1    2    0    0 -0.16370922038E+01 -0.29663176350E+02  0.33860435257E+02  0.46142321207E+02  0.10000031426E+02 0.  0.
         12    1    1    2    0    0  0.16370922038E+01  0.29663176350E+02 -0.33860435257E+02  0.45045678793E+02  0.00000000000E+00 0. -1.
         11    1    3    3    0    0 -0.29975947428E+01 -0.32300922612E+01  0.37705411063E+01  0.57996595377E+01  0.51100000000E-03 0. -1.
        -11    1    3    3    0    0 -0.81438056633E+00 -0.12744662542E+01  0.26517385749E+01  0.30527360959E+01  0.51100000000E-03 0.  1.
        -12    1    3    3    0    0  0.21748831054E+01 -0.25158617835E+02  0.27438155576E+02  0.37289925574E+02  0.00000000000E+00 0.  1.
</event>
<event>
 7    1  0.2328810E-008  0.4614232E+02  0.7816164E-02  0.1320468E+00
        -11   -1    0    0    0    0  0.00000000000E+00  0.00000000000E+00  0.45593999997E+02  0.45594000000E+02  0.51100000000E-03 0.  1.
         11   -1    0    0    0    0 -0.00000000000E+00 -0.00000000000E+00 -0.45593999997E+02  0.45594000000E+02  0.51100000000E-03 0. -1.
    9900012    2    1    2    0    0 -0.33534754544E+02  0.24755025659E+02  0.17079883887E+02  0.46142317728E+02  0.99999997008E+01 0.  0.
         12    1    1    2    0    0  0.33534754544E+02 -0.24755025659E+02 -0.17079883887E+02  0.45045682272E+02  0.00000000000E+00 0. -1.
         11    1    3    3    0    0 -0.88497775607E+01  0.79935397495E+01  0.74120165280E+01  0.14041126375E+02  0.51100000000E-03 0. -1.
        -11    1    3    3    0    0 -0.24034619122E+02  0.16743720749E+02  0.10435215444E+02  0.31095157540E+02  0.51100000000E-03 0.  1.
         12    1    3    3    0    0 -0.65035786192E+00  0.17765160721E-01 -0.76734808498E+00  0.10060338131E+01  0.00000000000E+00 0. -1.
</event>
<event>
 7    1  0.2328810E-008  0.4614232E+02  0.7816164E-02  0.1320468E+00
        -11   -1    0    0    0    0  0.00000000000E+00  0.00000000000E+00  0.45593999997E+02  0.45594000000E+02  0.51100000000E-03 0. -1.
         11   -1    0    0    0    0 -0.00000000000E+00 -0.00000000000E+00 -0.45593999997E+02  0.45594000000E+02  0.51100000000E-03 0.  1.
    9900012    2    1    2    0    0 -0.25417457822E+02  0.26898240523E+02 -0.25681724686E+02  0.46142317763E+02  0.10000000015E+02 0.  0.
         12    1    1    2    0    0  0.25417457822E+02 -0.26898240523E+02  0.25681724686E+02  0.45045682237E+02  0.00000000000E+00 0. -1.
         11    1    3    3    0    0 -0.48920621907E+01  0.20041707711E+01 -0.13768702085E+01  0.54630343940E+01  0.51100000000E-03 0. -1.
        -11    1    3    3    0    0 -0.42316253394E+01  0.66322337548E+01 -0.37342321217E+01  0.87084824964E+01  0.51100000000E-03 0.  1.
        -12    1    3    3    0    0 -0.16293770292E+02  0.18261835997E+02 -0.20570622355E+02  0.31970800872E+02  0.00000000000E+00 0.  1.
</event>
<event>
 7    1  0.2328810E-008  0.4614232E+02  0.7816164E-02  0.1320468E+00
        -11   -1    0    0    0    0  0.00000000000E+00  0.00000000000E+00  0.45593999997E+02  0.45594000000E+02  0.51100000000E-03 0.  1.
         11   -1    0    0    0    0 -0.00000000000E+00 -0.00000000000E+00 -0.45593999997E+02  0.45594000000E+02  0.51100000000E-03 0. -1.
    9900012    2    1    2    0    0  0.27888127462E+02  0.43276530931E+01  0.35108934571E+02  0.46142317395E+02  0.99999966604E+01 0.  0.
         12    1    1    2    0    0 -0.27888127462E+02 -0.43276530931E+01 -0.35108934571E+02  0.45045682605E+02  0.00000000000E+00 0. -1.
         11    1    3    3    0    0  0.65478623273E+01  0.41389701370E+01  0.77059441404E+01  0.10926442706E+02  0.51100000000E-03 0. -1.
        -11    1    3    3    0    0  0.18151655535E+02  0.17346610818E+01  0.20360263641E+02  0.27331885839E+02  0.51100000000E-03 0.  1.
         12    1    3    3    0    0  0.31886095995E+01 -0.15459781257E+01  0.70427267897E+01  0.78839888494E+01  0.00000000000E+00 0. -1.
</event>
<event>
 7    1  0.2328810E-008  0.4614232E+02  0.7816164E-02  0.1320468E+00
        -11   -1    0    0    0    0  0.00000000000E+00  0.00000000000E+00  0.45593999997E+02  0.45594000000E+02  0.51100000000E-03 0.  1.
         11   -1    0    0    0    0 -0.00000000000E+00 -0.00000000000E+00 -0.45593999997E+02  0.45594000000E+02  0.51100000000E-03 0. -1.
    9900012    2    1    2    0    0  0.62112732516E+01 -0.25973443572E+02  0.36275525617E+02  0.46142318240E+02  0.10000004368E+02 0.  0.
         12    1    1    2    0    0 -0.62112732516E+01  0.25973443572E+02 -0.36275525617E+02  0.45045681760E+02  0.00000000000E+00 0. -1.
         11    1    3    3    0    0  0.17382695237E+01 -0.69185711393E+01  0.77121299609E+01  0.10505482204E+02  0.51100000000E-03 0. -1.
        -11    1    3    3    0    0  0.68053371011E+01 -0.14590410010E+02  0.23575015338E+02  0.28547749925E+02  0.51100000000E-03 0.  1.
         12    1    3    3    0    0 -0.23323333732E+01 -0.44644624234E+01  0.49883803182E+01  0.70890861112E+01  0.00000000000E+00 0. -1.
</event>
<event>
 7    1  0.2328810E-008  0.4614232E+02  0.7816164E-02  0.1320468E+00
        -11   -1    0    0    0    0  0.00000000000E+00  0.00000000000E+00  0.45593999997E+02  0.45594000000E+02  0.51100000000E-03 0.  1.
         11   -1    0    0    0    0 -0.00000000000E+00 -0.00000000000E+00 -0.45593999997E+02  0.45594000000E+02  0.51100000000E-03 0. -1.
    9900012    2    1    2    0    0  0.15991170174E+02  0.41976078223E+02 -0.33771019947E+01  0.46142317805E+02  0.10000000402E+02 0.  0.
         12    1    1    2    0    0 -0.15991170174E+02 -0.41976078223E+02  0.33771019947E+01  0.45045682195E+02  0.00000000000E+00 0. -1.
         11    1    3    3    0    0  0.28810012181E-01  0.11462315119E+01 -0.71995729733E+00  0.13538890157E+01  0.51100000000E-03 0. -1.
        -11    1    3    3    0    0  0.10241985835E+02  0.27176850378E+02 -0.58963674205E+01  0.29635225987E+02  0.51100000000E-03 0.  1.
        -12    1    3    3    0    0  0.57203743268E+01  0.13652996333E+02  0.32392227231E+01  0.15153202802E+02  0.00000000000E+00 0.  1.
</event>
<event>
 7    1  0.2328810E-008  0.4614232E+02  0.7816164E-02  0.1320468E+00
        -11   -1    0    0    0    0  0.00000000000E+00  0.00000000000E+00  0.45593999997E+02  0.45594000000E+02  0.51100000000E-03 0.  1.
         11   -1    0    0    0    0 -0.00000000000E+00 -0.00000000000E+00 -0.45593999997E+02  0.45594000000E+02  0.51100000000E-03 0. -1.
    9900012    2    1    2    0    0 -0.33214652355E+02 -0.29706067076E+02 -0.65916509989E+01  0.46142318575E+02  0.10000007419E+02 0.  0.
         12    1    1    2    0    0  0.33214652355E+02  0.29706067076E+02  0.65916509989E+01  0.45045681425E+02  0.00000000000E+00 0. -1.
         11    1    3    3    0    0 -0.13936298696E+02 -0.13477396172E+02 -0.16070772310E+01  0.19453619879E+02  0.51100000000E-03 0. -1.
        -11    1    3    3    0    0 -0.81387618123E+01 -0.84243888628E+01  0.11459175069E+01  0.11769575130E+02  0.51100000000E-03 0.  1.
        -12    1    3    3    0    0 -0.11139591847E+02 -0.78042820406E+01 -0.61304912748E+01  0.14919123566E+02  0.00000000000E+00 0.  1.
</event>
<event>
 7    1  0.2328810E-008  0.4614232E+02  0.7816164E-02  0.1320468E+00
        -11   -1    0    0    0    0  0.00000000000E+00  0.00000000000E+00  0.45593999997E+02  0.45594000000E+02  0.51100000000E-03 0.  1.
         11   -1    0    0    0    0 -0.00000000000E+00 -0.00000000000E+00 -0.45593999997E+02  0.45594000000E+02  0.51100000000E-03 0. -1.
    9900012    2    1    2    0    0  0.34124791396E+02  0.21543328592E+02  0.20012426405E+02  0.46142316463E+02  0.99999881649E+01 0.  0.
         12    1    1    2    0    0 -0.34124791396E+02 -0.21543328592E+02 -0.20012426405E+02  0.45045683537E+02  0.00000000000E+00 0. -1.
         11    1    3    3    0    0  0.15174568020E+02  0.11185660499E+02  0.12716147112E+02  0.22739545136E+02  0.51100000000E-03 0. -1.
        -11    1    3    3    0    0  0.63800444016E+01  0.62539358494E+01  0.39152738359E+01  0.97542836562E+01  0.51100000000E-03 0.  1.
         12    1    3    3    0    0  0.12570178975E+02  0.41037322441E+01  0.33810054576E+01  0.13648487671E+02  0.00000000000E+00 0. -1.
</event>
<event>
 7    1  0.2328810E-008  0.4614231E+02  0.7816164E-02  0.1320468E+00
        -11   -1    0    0    0    0  0.00000000000E+00  0.00000000000E+00  0.45593999997E+02  0.45594000000E+02  0.51100000000E-03 0. -1.
         11   -1    0    0    0    0 -0.00000000000E+00 -0.00000000000E+00 -0.45593999997E+02  0.45594000000E+02  0.51100000000E-03 0.  1.
    9900012    2    1    2    0    0  0.34766640756E+02  0.19411120099E+02 -0.21061884451E+02  0.46142313529E+02  0.99999614101E+01 0.  0.
         12    1    1    2    0    0 -0.34766640756E+02 -0.19411120099E+02  0.21061884451E+02  0.45045686471E+02  0.00000000000E+00 0. -1.
         11    1    3    3    0    0  0.81783775666E+01  0.12796863735E+01 -0.39300161801E+01  0.91634319048E+01  0.51100000000E-03 0. -1.
        -11    1    3    3    0    0  0.26714136191E+02  0.17582923496E+02 -0.16103974334E+02  0.35807014127E+02  0.51100000000E-03 0.  1.
        -12    1    3    3    0    0 -0.12587300142E+00  0.54851022985E+00 -0.10278939372E+01  0.11718674971E+01  0.00000000000E+00 0.  1.
</event>
<event>
 7    1  0.2328810E-008  0.4614232E+02  0.7816164E-02  0.1320468E+00
        -11   -1    0    0    0    0  0.00000000000E+00  0.00000000000E+00  0.45593999997E+02  0.45594000000E+02  0.51100000000E-03 0.  1.
         11   -1    0    0    0    0 -0.00000000000E+00 -0.00000000000E+00 -0.45593999997E+02  0.45594000000E+02  0.51100000000E-03 0. -1.
    9900012    2    1    2    0    0 -0.20237614272E+02  0.68958616077E+01  0.39648449458E+02  0.46142317819E+02  0.10000000527E+02 0.  0.
         12    1    1    2    0    0  0.20237614272E+02 -0.68958616077E+01 -0.39648449458E+02  0.45045682181E+02  0.00000000000E+00 0. -1.
         11    1    3    3    0    0 -0.28255711095E+01 -0.29466681950E+00  0.12916957655E+02  0.13225674877E+02  0.51100000000E-03 0. -1.
        -11    1    3    3    0    0 -0.10638668247E+02  0.24030744196E+01  0.15605379462E+02  0.19039009878E+02  0.51100000000E-03 0.  1.
         12    1    3    3    0    0 -0.67733749151E+01  0.47874540076E+01  0.11126112342E+02  0.13877633064E+02  0.00000000000E+00 0. -1.
</event>
<event>
 7    1  0.2328810E-008  0.4614232E+02  0.7816164E-02  0.1320468E+00
        -11   -1    0    0    0    0  0.00000000000E+00  0.00000000000E+00  0.45593999997E+02  0.45594000000E+02  0.51100000000E-03 0.  1.
         11   -1    0    0    0    0 -0.00000000000E+00 -0.00000000000E+00 -0.45593999997E+02  0.45594000000E+02  0.51100000000E-03 0. -1.
    9900012    2    1    2    0    0 -0.61528812688E+01  0.40696352258E+02  0.18304710668E+02  0.46142317991E+02  0.10000002095E+02 0.  0.
         12    1    1    2    0    0  0.61528812688E+01 -0.40696352258E+02 -0.18304710668E+02  0.45045682009E+02  0.00000000000E+00 0. -1.
         11    1    3    3    0    0 -0.18795947686E+01  0.69981538144E+01  0.24519432950E+01  0.76497751266E+01  0.51100000000E-03 0. -1.
        -11    1    3    3    0    0 -0.52711702173E+01  0.24473972323E+02  0.78418716772E+01  0.26234624228E+02  0.51100000000E-03 0.  1.
         12    1    3    3    0    0  0.99788371705E+00  0.92242261206E+01  0.80108956960E+01  0.12257918636E+02  0.00000000000E+00 0. -1.
</event>
<event>
 7    1  0.2328810E-008  0.4614232E+02  0.7816164E-02  0.1320468E+00
        -11   -1    0    0    0    0  0.00000000000E+00  0.00000000000E+00  0.45593999997E+02  0.45594000000E+02  0.51100000000E-03 0.  1.
         11   -1    0    0    0    0 -0.00000000000E+00 -0.00000000000E+00 -0.45593999997E+02  0.45594000000E+02  0.51100000000E-03 0. -1.
    9900012    2    1    2    0    0  0.20586058930E+02 -0.88733429086E+01  0.39071619459E+02  0.46142317812E+02  0.10000000460E+02 0.  0.
         12    1    1    2    0    0 -0.20586058930E+02  0.88733429086E+01 -0.39071619459E+02  0.45045682188E+02  0.00000000000E+00 0. -1.
         11    1    3    3    0    0 -0.87921265634E-01 -0.31079578411E+00  0.52103281055E+01  0.52203298168E+01  0.51100000000E-03 0. -1.
        -11    1    3    3    0    0  0.19590752436E+02 -0.87102788459E+01  0.29767588224E+02  0.36684817671E+02  0.51100000000E-03 0.  1.
        -12    1    3    3    0    0  0.10832277599E+01  0.14773172148E+00  0.40937031297E+01  0.42371703241E+01  0.00000000000E+00 0.  1.
</event>
<event>
 7    1  0.2328810E-008  0.4614232E+02  0.7816164E-02  0.1320468E+00
        -11   -1    0    0    0    0  0.00000000000E+00  0.00000000000E+00  0.45593999997E+02  0.45594000000E+02  0.51100000000E-03 0. -1.
         11   -1    0    0    0    0 -0.00000000000E+00 -0.00000000000E+00 -0.45593999997E+02  0.45594000000E+02  0.51100000000E-03 0.  1.
    9900012    2    1    2    0    0  0.34892417921E+02 -0.22210132222E+01 -0.28402460949E+02  0.46142317454E+02  0.99999971955E+01 0.  0.
         12    1    1    2    0    0 -0.34892417921E+02  0.22210132222E+01  0.28402460949E+02  0.45045682546E+02  0.00000000000E+00 0. -1.
         11    1    3    3    0    0  0.29094887631E+01 -0.27666097774E+01 -0.39503809032E+01  0.56324740625E+01  0.51100000000E-03 0. -1.
        -11    1    3    3    0    0  0.10903774939E+02  0.54927819629E+00 -0.57966835647E+01  0.12361049917E+02  0.51100000000E-03 0.  1.
         12    1    3    3    0    0  0.21079154220E+02 -0.36816410749E-02 -0.18655396481E+02  0.28148793474E+02  0.00000000000E+00 0. -1.
</event>
<event>
 7    1  0.2328810E-008  0.4614232E+02  0.7816164E-02  0.1320468E+00
        -11   -1    0    0    0    0  0.00000000000E+00  0.00000000000E+00  0.45593999997E+02  0.45594000000E+02  0.51100000000E-03 0.  1.
         11   -1    0    0    0    0 -0.00000000000E+00 -0.00000000000E+00 -0.45593999997E+02  0.45594000000E+02  0.51100000000E-03 0. -1.
    9900012    2    1    2    0    0  0.35060932740E+02 -0.12494140267E+02  0.25372051096E+02  0.46142317384E+02  0.99999965570E+01 0.  0.
         12    1    1    2    0    0 -0.35060932740E+02  0.12494140267E+02 -0.25372051096E+02  0.45045682616E+02  0.00000000000E+00 0. -1.
         11    1    3    3    0    0  0.38336131331E+01 -0.35040338791E+01  0.56383593067E+01  0.76658945344E+01  0.51100000000E-03 0. -1.
        -11    1    3    3    0    0  0.53770641104E+01  0.56875798694E+00  0.23841837497E+01  0.59093685372E+01  0.51100000000E-03 0.  1.
         12    1    3    3    0    0  0.25850255496E+02 -0.95588643752E+01  0.17349508039E+02  0.32567054312E+02  0.00000000000E+00 0. -1.
</event>
<event>
 7    1  0.2328810E-008  0.4614232E+02  0.7816164E-02  0.1320468E+00
        -11   -1    0    0    0    0  0.00000000000E+00  0.00000000000E+00  0.45593999997E+02  0.45594000000E+02  0.51100000000E-03 0.  1.
         11   -1    0    0    0    0 -0.00000000000E+00 -0.00000000000E+00 -0.45593999997E+02  0.45594000000E+02  0.51100000000E-03 0. -1.
    9900012    2    1    2    0    0  0.35873836860E+02  0.16734607226E+00  0.27242491711E+02  0.46142317295E+02  0.99999957471E+01 0.  0.
         12    1    1    2    0    0 -0.35873836860E+02 -0.16734607226E+00 -0.27242491711E+02  0.45045682705E+02  0.00000000000E+00 0. -1.
         11    1    3    3    0    0  0.37670746868E+01  0.28140548157E+01  0.17393977776E+01  0.50135078629E+01  0.51100000000E-03 0. -1.
        -11    1    3    3    0    0  0.92290376515E+01 -0.83759631561E+00  0.63056500685E+01  0.11208832527E+02  0.51100000000E-03 0.  1.
         12    1    3    3    0    0  0.22877724521E+02 -0.18091124278E+01  0.19197443865E+02  0.29919976905E+02  0.00000000000E+00 0. -1.
</event>
<event>
 7    1  0.2328810E-008  0.4614232E+02  0.7816164E-02  0.1320468E+00
        -11   -1    0    0    0    0  0.00000000000E+00  0.00000000000E+00  0.45593999997E+02  0.45594000000E+02  0.51100000000E-03 0.  1.
         11   -1    0    0    0    0 -0.00000000000E+00 -0.00000000000E+00 -0.45593999997E+02  0.45594000000E+02  0.51100000000E-03 0. -1.
    9900012    2    1    2    0    0  0.14241173581E+02 -0.13321422912E+02  0.40605937700E+02  0.46142317522E+02  0.99999978214E+01 0.  0.
         12    1    1    2    0    0 -0.14241173581E+02  0.13321422912E+02 -0.40605937700E+02  0.45045682478E+02  0.00000000000E+00 0. -1.
         11    1    3    3    0    0 -0.64754134025E+00 -0.16337487458E+01  0.16215557894E+01  0.23912106121E+01  0.51100000000E-03 0. -1.
        -11    1    3    3    0    0  0.55238884744E+01 -0.71674907760E+01  0.22613190981E+02  0.24356573538E+02  0.51100000000E-03 0.  1.
         12    1    3    3    0    0  0.93648264472E+01 -0.45201833903E+01  0.16371190929E+02  0.19394533372E+02  0.00000000000E+00 0. -1.
</event>
<event>
 7    1  0.2328810E-008  0.4614231E+02  0.7816164E-02  0.1320468E+00
        -11   -1    0    0    0    0  0.00000000000E+00  0.00000000000E+00  0.45593999997E+02  0.45594000000E+02  0.51100000000E-03 0.  1.
         11   -1    0    0    0    0 -0.00000000000E+00 -0.00000000000E+00 -0.45593999997E+02  0.45594000000E+02  0.51100000000E-03 0. -1.
    9900012    2    1    2    0    0  0.25874732778E+02  0.35817407413E+02  0.87592976827E+01  0.46142314679E+02  0.99999718974E+01 0.  0.
         12    1    1    2    0    0 -0.25874732778E+02 -0.35817407413E+02 -0.87592976827E+01  0.45045685321E+02  0.00000000000E+00 0. -1.
         11    1    3    3    0    0  0.15463854434E+02  0.17822115798E+02  0.58805892209E+01  0.24317482092E+02  0.51100000000E-03 0. -1.
        -11    1    3    3    0    0  0.10333989699E+02  0.14139222881E+02  0.36555080547E+01  0.17890547956E+02  0.51100000000E-03 0.  1.
         12    1    3    3    0    0  0.76888645002E-01  0.38560687347E+01 -0.77679959287E+00  0.39342846311E+01  0.00000000000E+00 0. -1.
</event>
<event>
 7    1  0.2328810E-008  0.4614232E+02  0.7816164E-02  0.1320468E+00
        -11   -1    0    0    0    0  0.00000000000E+00  0.00000000000E+00  0.45593999997E+02  0.45594000000E+02  0.51100000000E-03 0.  1.
         11   -1    0    0    0    0 -0.00000000000E+00 -0.00000000000E+00 -0.45593999997E+02  0.45594000000E+02  0.51100000000E-03 0. -1.
    9900012    2    1    2    0    0 -0.18777494315E+01  0.28860441029E+02  0.34534946395E+02  0.46142317390E+02  0.99999966123E+01 0.  0.
         12    1    1    2    0    0  0.18777494315E+01 -0.28860441029E+02 -0.34534946395E+02  0.45045682610E+02  0.00000000000E+00 0. -1.
         11    1    3    3    0    0 -0.39827307400E+00 -0.13100584825E+00 -0.31742974142E+00  0.52587629307E+00  0.51100000000E-03 0. -1.
        -11    1    3    3    0    0  0.14106893970E+01  0.50662777563E+01  0.50677179054E+01  0.73033540177E+01  0.51100000000E-03 0.  1.
         12    1    3    3    0    0 -0.28901657545E+01  0.23925169121E+02  0.29784658231E+02  0.38313087079E+02  0.00000000000E+00 0. -1.
</event>
<event>
 7    1  0.2328810E-008  0.4614232E+02  0.7816164E-02  0.1320468E+00
        -11   -1    0    0    0    0  0.00000000000E+00  0.00000000000E+00  0.45593999997E+02  0.45594000000E+02  0.51100000000E-03 0. -1.
         11   -1    0    0    0    0 -0.00000000000E+00 -0.00000000000E+00 -0.45593999997E+02  0.45594000000E+02  0.51100000000E-03 0.  1.
    9900012    2    1    2    0    0 -0.40693614534E+02 -0.15155557201E+02 -0.11977159291E+02  0.46142317382E+02  0.99999965386E+01 0.  0.
         12    1    1    2    0    0  0.40693614534E+02  0.15155557201E+02  0.11977159291E+02  0.45045682618E+02  0.00000000000E+00 0. -1.
         11    1    3    3    0    0 -0.89893664846E+01 -0.11035129406E+01 -0.27862467306E+01  0.94757385838E+01  0.51100000000E-03 0. -1.
        -11    1    3    3    0    0 -0.15317469627E+02 -0.39877923640E+01 -0.70161826411E+01  0.17313410491E+02  0.51100000000E-03 0.  1.
        -12    1    3    3    0    0 -0.16386778422E+02 -0.10064251896E+02 -0.21747299189E+01  0.19353168307E+02  0.00000000000E+00 0.  1.
</event>
<event>
 7    1  0.2328810E-008  0.4614232E+02  0.7816164E-02  0.1320468E+00
        -11   -1    0    0    0    0  0.00000000000E+00  0.00000000000E+00  0.45593999997E+02  0.45594000000E+02  0.51100000000E-03 0.  1.
         11   -1    0    0    0    0 -0.00000000000E+00 -0.00000000000E+00 -0.45593999997E+02  0.45594000000E+02  0.51100000000E-03 0. -1.
    9900012    2    1    2    0    0 -0.11315492302E+02  0.20558572032E+02  0.38450199608E+02  0.46142322073E+02  0.10000039317E+02 0.  0.
         12    1    1    2    0    0  0.11315492302E+02 -0.20558572032E+02 -0.38450199608E+02  0.45045677927E+02  0.00000000000E+00 0. -1.
         11    1    3    3    0    0 -0.90637977808E+01  0.86121242476E+01  0.13691436750E+02  0.18541212334E+02  0.51100000000E-03 0. -1.
        -11    1    3    3    0    0 -0.96487695252E+00  0.61156583837E+01  0.13675704953E+02  0.15011900986E+02  0.51100000000E-03 0.  1.
         12    1    3    3    0    0 -0.12868175684E+01  0.58307894007E+01  0.11083057906E+02  0.12589208753E+02  0.00000000000E+00 0. -1.
</event>
<event>
 7    1  0.2328810E-008  0.4614232E+02  0.7816164E-02  0.1320468E+00
        -11   -1    0    0    0    0  0.00000000000E+00  0.00000000000E+00  0.45593999997E+02  0.45594000000E+02  0.51100000000E-03 0.  1.
         11   -1    0    0    0    0 -0.00000000000E+00 -0.00000000000E+00 -0.45593999997E+02  0.45594000000E+02  0.51100000000E-03 0. -1.
    9900012    2    1    2    0    0  0.37091132383E+02  0.13552547427E+02  0.21672325062E+02  0.46142319666E+02  0.10000017368E+02 0.  0.
         12    1    1    2    0    0 -0.37091132383E+02 -0.13552547427E+02 -0.21672325062E+02  0.45045680334E+02  0.00000000000E+00 0. -1.
         11    1    3    3    0    0  0.11701226211E+02  0.53618185097E+01  0.52737093771E+01  0.13909701773E+02  0.51100000000E-03 0. -1.
        -11    1    3    3    0    0  0.13119070618E+02  0.79686210171E+01  0.75738634287E+01  0.17116434859E+02  0.51100000000E-03 0.  1.
         12    1    3    3    0    0  0.12270835554E+02  0.22210790004E+00  0.88247522560E+01  0.15116183033E+02  0.00000000000E+00 0. -1.
</event>
<event>
 7    1  0.2328810E-008  0.4614232E+02  0.7816164E-02  0.1320468E+00
        -11   -1    0    0    0    0  0.00000000000E+00  0.00000000000E+00  0.45593999997E+02  0.45594000000E+02  0.51100000000E-03 0. -1.
         11   -1    0    0    0    0 -0.00000000000E+00 -0.00000000000E+00 -0.45593999997E+02  0.45594000000E+02  0.51100000000E-03 0.  1.
    9900012    2    1    2    0    0  0.90697157519E+01 -0.63638748989E+01 -0.43661823609E+02  0.46142317761E+02  0.99999999982E+01 0.  0.
         12    1    1    2    0    0 -0.90697157519E+01  0.63638748989E+01  0.43661823609E+02  0.45045682239E+02  0.00000000000E+00 0. -1.
         11    1    3    3    0    0  0.22892006124E+01  0.11858226476E+01 -0.36801747456E+01  0.44933619056E+01  0.51100000000E-03 0. -1.
        -11    1    3    3    0    0  0.38248130157E+01 -0.35881622532E+00 -0.11465527986E+02  0.12091992224E+02  0.51100000000E-03 0.  1.
         12    1    3    3    0    0  0.29557021238E+01 -0.71908813212E+01 -0.28516120877E+02  0.29556963632E+02  0.00000000000E+00 0. -1.
</event>
<event>
 7    1  0.2328810E-008  0.4614232E+02  0.7816164E-02  0.1320468E+00
        -11   -1    0    0    0    0  0.00000000000E+00  0.00000000000E+00  0.45593999997E+02  0.45594000000E+02  0.51100000000E-03 0.  1.
         11   -1    0    0    0    0 -0.00000000000E+00 -0.00000000000E+00 -0.45593999997E+02  0.45594000000E+02  0.51100000000E-03 0. -1.
    9900012    2    1    2    0    0 -0.30713022895E+02  0.25023274491E+01  0.32856690555E+02  0.46142317274E+02  0.99999955591E+01 0.  0.
         12    1    1    2    0    0  0.30713022895E+02 -0.25023274491E+01 -0.32856690555E+02  0.45045682726E+02  0.00000000000E+00 0. -1.
         11    1    3    3    0    0 -0.23963789905E+01  0.25719406542E+01  0.39744035903E+01  0.53059773044E+01  0.51100000000E-03 0. -1.
        -11    1    3    3    0    0 -0.75813264176E+01  0.19838266236E+01  0.10101225558E+02  0.12784632821E+02  0.51100000000E-03 0.  1.
         12    1    3    3    0    0 -0.20735317487E+02 -0.20534398287E+01  0.18781061406E+02  0.28051707149E+02  0.00000000000E+00 0. -1.
</event>
<event>
 7    1  0.2328810E-008  0.4614232E+02  0.7816164E-02  0.1320468E+00
        -11   -1    0    0    0    0  0.00000000000E+00  0.00000000000E+00  0.45593999997E+02  0.45594000000E+02  0.51100000000E-03 0. -1.
         11   -1    0    0    0    0 -0.00000000000E+00 -0.00000000000E+00 -0.45593999997E+02  0.45594000000E+02  0.51100000000E-03 0.  1.
    9900012    2    1    2    0    0 -0.26349560159E+02  0.35722882373E+02 -0.76609287262E+01  0.46142317915E+02  0.10000001399E+02 0.  0.
         12    1    1    2    0    0  0.26349560159E+02 -0.35722882373E+02  0.76609287262E+01  0.45045682085E+02  0.00000000000E+00 0. -1.
         11    1    3    3    0    0 -0.62273821378E+01  0.60373330992E+01 -0.35238441715E+01  0.93620060483E+01  0.51100000000E-03 0. -1.
        -11    1    3    3    0    0 -0.17387371635E+02  0.27890520918E+02 -0.53349719669E+01  0.33296603064E+02  0.51100000000E-03 0.  1.
        -12    1    3    3    0    0 -0.27348063857E+01  0.17950283558E+01  0.11978874122E+01  0.34837088020E+01  0.00000000000E+00 0.  1.
</event>
<event>
 7    1  0.2328810E-008  0.4614232E+02  0.7816164E-02  0.1320468E+00
        -11   -1    0    0    0    0  0.00000000000E+00  0.00000000000E+00  0.45593999997E+02  0.45594000000E+02  0.51100000000E-03 0. -1.
         11   -1    0    0    0    0 -0.00000000000E+00 -0.00000000000E+00 -0.45593999997E+02  0.45594000000E+02  0.51100000000E-03 0.  1.
    9900012    2    1    2    0    0 -0.24909773525E+02  0.12511185364E+02 -0.35384840415E+02  0.46142317549E+02  0.99999980669E+01 0.  0.
         12    1    1    2    0    0  0.24909773525E+02 -0.12511185364E+02  0.35384840415E+02  0.45045682451E+02  0.00000000000E+00 0. -1.
         11    1    3    3    0    0 -0.17132338774E+02  0.66116743199E+01 -0.17477256643E+02  0.25351247882E+02  0.51100000000E-03 0. -1.
        -11    1    3    3    0    0 -0.17332691889E+01 -0.18088706054E+00 -0.15934467164E+01  0.23613586998E+01  0.51100000000E-03 0.  1.
         12    1    3    3    0    0 -0.60441655625E+01  0.60803981044E+01 -0.16314137056E+02  0.18429710967E+02  0.00000000000E+00 0. -1.
</event>
<event>
 7    1  0.2328810E-008  0.4614232E+02  0.7816164E-02  0.1320468E+00
        -11   -1    0    0    0    0  0.00000000000E+00  0.00000000000E+00  0.45593999997E+02  0.45594000000E+02  0.51100000000E-03 0.  1.
         11   -1    0    0    0    0 -0.00000000000E+00 -0.00000000000E+00 -0.45593999997E+02  0.45594000000E+02  0.51100000000E-03 0. -1.
    9900012    2    1    2    0    0  0.38554889581E+02  0.22544100590E+02  0.58649304748E+01  0.46142318836E+02  0.10000009802E+02 0.  0.
         12    1    1    2    0    0 -0.38554889581E+02 -0.22544100590E+02 -0.58649304748E+01  0.45045681164E+02  0.00000000000E+00 0. -1.
         11    1    3    3    0    0  0.76255840734E+01  0.54306875046E+01  0.32808662799E+01  0.99199789839E+01  0.51100000000E-03 0. -1.
        -11    1    3    3    0    0  0.14267449385E+02  0.11304526506E+02  0.35681572105E+01  0.18549506129E+02  0.51100000000E-03 0.  1.
         12    1    3    3    0    0  0.16661856122E+02  0.58088865798E+01 -0.98409301559E+00  0.17672833723E+02  0.00000000000E+00 0. -1.
</event>
<event>
 7    1  0.2328810E-008  0.4614232E+02  0.7816164E-02  0.1320468E+00
        -11   -1    0    0    0    0  0.00000000000E+00  0.00000000000E+00  0.45593999997E+02  0.45594000000E+02  0.51100000000E-03 0.  1.
         11   -1    0    0    0    0 -0.00000000000E+00 -0.00000000000E+00 -0.45593999997E+02  0.45594000000E+02  0.51100000000E-03 0. -1.
    9900012    2    1    2    0    0  0.21881751830E+02 -0.32460599707E+01  0.39239845767E+02  0.46142318029E+02  0.10000002439E+02 0.  0.
         12    1    1    2    0    0 -0.21881751830E+02  0.32460599707E+01 -0.39239845767E+02  0.45045681971E+02  0.00000000000E+00 0. -1.
         11    1    3    3    0    0  0.74362935678E+01 -0.17975611237E+01  0.16506688874E+02  0.18193418201E+02  0.51100000000E-03 0. -1.
        -11    1    3    3    0    0 -0.21293548253E+00 -0.15720319102E+01  0.18980233067E+01  0.24736852226E+01  0.51100000000E-03 0.  1.
        -12    1    3    3    0    0  0.14658393745E+02  0.12353306317E+00  0.20835133586E+02  0.25475214605E+02  0.00000000000E+00 0.  1.
</event>
<event>
 7    1  0.2328810E-008  0.4614232E+02  0.7816164E-02  0.1320468E+00
        -11   -1    0    0    0    0  0.00000000000E+00  0.00000000000E+00  0.45593999997E+02  0.45594000000E+02  0.51100000000E-03 0.  1.
         11   -1    0    0    0    0 -0.00000000000E+00 -0.00000000000E+00 -0.45593999997E+02  0.45594000000E+02  0.51100000000E-03 0. -1.
    9900012    2    1    2    0    0 -0.25710004934E+02  0.32938147171E+02  0.16828166839E+02  0.46142322162E+02  0.10000040128E+02 0.  0.
         12    1    1    2    0    0  0.25710004934E+02 -0.32938147171E+02 -0.16828166839E+02  0.45045677838E+02  0.00000000000E+00 0. -1.
         11    1    3    3    0    0 -0.77418240595E+01  0.10956854550E+02  0.21107075633E+01  0.13581000997E+02  0.51100000000E-03 0. -1.
        -11    1    3    3    0    0 -0.17094247388E+02  0.22270332418E+02  0.13886197350E+02  0.31321038885E+02  0.51100000000E-03 0.  1.
         12    1    3    3    0    0 -0.87393348640E+00 -0.28903979716E+00  0.83126192579E+00  0.12402822793E+01  0.00000000000E+00 0. -1.
</event>
<event>
 7    1  0.2328810E-008  0.4614232E+02  0.7816164E-02  0.1320468E+00
        -11   -1    0    0    0    0  0.00000000000E+00  0.00000000000E+00  0.45593999997E+02  0.45594000000E+02  0.51100000000E-03 0.  1.
         11   -1    0    0    0    0 -0.00000000000E+00 -0.00000000000E+00 -0.45593999997E+02  0.45594000000E+02  0.51100000000E-03 0. -1.
    9900012    2    1    2    0    0  0.16473773404E+01 -0.31075126874E+02  0.32568943904E+02  0.46142317972E+02  0.10000001926E+02 0.  0.
         12    1    1    2    0    0 -0.16473773404E+01  0.31075126874E+02 -0.32568943904E+02  0.45045682028E+02  0.00000000000E+00 0. -1.
         11    1    3    3    0    0  0.32944668450E+01 -0.14876360797E+02  0.16386382625E+02  0.22375726986E+02  0.51100000000E-03 0. -1.
        -11    1    3    3    0    0  0.37221413689E+00 -0.10914468215E+02  0.13874471465E+02  0.17656871707E+02  0.51100000000E-03 0.  1.
         12    1    3    3    0    0 -0.20193036416E+01 -0.52842978614E+01  0.23080898146E+01  0.61097192797E+01  0.00000000000E+00 0. -1.
</event>
<event>
 7    1  0.2328810E-008  0.4614233E+02  0.7816164E-02  0.1320468E+00
        -11   -1    0    0    0    0  0.00000000000E+00  0.00000000000E+00  0.45593999997E+02  0.45594000000E+02  0.51100000000E-03 0.  1.
         11   -1    0    0    0    0 -0.00000000000E+00 -0.00000000000E+00 -0.45593999997E+02  0.45594000000E+02  0.51100000000E-03 0. -1.
    9900012    2    1    2    0    0  0.12559553062E+01 -0.10277245749E+02  0.43839634338E+02  0.46142326036E+02  0.10000075461E+02 0.  0.
         12    1    1    2    0    0 -0.12559553062E+01  0.10277245749E+02 -0.43839634338E+02  0.45045673964E+02  0.00000000000E+00 0. -1.
         11    1    3    3    0    0  0.18243611075E+01 -0.68972136143E+01  0.18716643965E+02  0.20030292326E+02  0.51100000000E-03 0. -1.
        -11    1    3    3    0    0  0.16368454020E+01 -0.16620760754E+01  0.29373530594E+01  0.37509736079E+01  0.51100000000E-03 0.  1.
         12    1    3    3    0    0 -0.22052512034E+01 -0.17179560597E+01  0.22185637314E+02  0.22361060103E+02  0.00000000000E+00 0. -1.
</event>
<event>
 7    1  0.2328810E-008  0.4614232E+02  0.7816164E-02  0.1320468E+00
        -11   -1    0    0    0    0  0.00000000000E+00  0.00000000000E+00  0.45593999997E+02  0.45594000000E+02  0.51100000000E-03 0.  1.
         11   -1    0    0    0    0 -0.00000000000E+00 -0.00000000000E+00 -0.45593999997E+02  0.45594000000E+02  0.51100000000E-03 0. -1.
    9900012    2    1    2    0    0  0.37714387059E+02 -0.99757627899E+01  0.22521605360E+02  0.46142317161E+02  0.99999945241E+01 0.  0.
         12    1    1    2    0    0 -0.37714387059E+02  0.99757627899E+01 -0.22521605360E+02  0.45045682839E+02  0.00000000000E+00 0. -1.
         11    1    3    3    0    0  0.67178828556E+00  0.59322631554E+00  0.16690065112E+01  0.18944128266E+01  0.51100000000E-03 0. -1.
        -11    1    3    3    0    0  0.92742602833E+01 -0.24041394089E+00  0.64971543909E+01  0.11326196100E+02  0.51100000000E-03 0.  1.
        -12    1    3    3    0    0  0.27768338490E+02 -0.10328575165E+02  0.14355444458E+02  0.32921708234E+02  0.00000000000E+00 0.  1.
</event>
<event>
 7    1  0.2328810E-008  0.4614232E+02  0.7816164E-02  0.1320468E+00
        -11   -1    0    0    0    0  0.00000000000E+00  0.00000000000E+00  0.45593999997E+02  0.45594000000E+02  0.51100000000E-03 0.  1.
         11   -1    0    0    0    0 -0.00000000000E+00 -0.00000000000E+00 -0.45593999997E+02  0.45594000000E+02  0.51100000000E-03 0. -1.
    9900012    2    1    2    0    0 -0.12122194906E+02  0.31993985826E+02  0.29301038875E+02  0.46142316327E+02  0.99999869236E+01 0.  0.
         12    1    1    2    0    0  0.12122194906E+02 -0.31993985826E+02 -0.29301038875E+02  0.45045683673E+02  0.00000000000E+00 0. -1.
         11    1    3    3    0    0 -0.32772435008E+01  0.27594606493E+01  0.10444332987E+01  0.44097379985E+01  0.51100000000E-03 0. -1.
        -11    1    3    3    0    0 -0.94655216039E+00  0.78922227953E+01  0.76594110968E+01  0.11038556077E+02  0.51100000000E-03 0.  1.
        -12    1    3    3    0    0 -0.78983992453E+01  0.21342302381E+02  0.20597194480E+02  0.30694022252E+02  0.00000000000E+00 0.  1.
</event>
<event>
 7    1  0.2328810E-008  0.4614232E+02  0.7816164E-02  0.1320468E+00
        -11   -1    0    0    0    0  0.00000000000E+00  0.00000000000E+00  0.45593999997E+02  0.45594000000E+02  0.51100000000E-03 0.  1.
         11   -1    0    0    0    0 -0.00000000000E+00 -0.00000000000E+00 -0.45593999997E+02  0.45594000000E+02  0.51100000000E-03 0. -1.
    9900012    2    1    2    0    0  0.36476287543E+02  0.26361588941E+02  0.19132227545E+01  0.46142319344E+02  0.10000014435E+02 0.  0.
         12    1    1    2    0    0 -0.36476287543E+02 -0.26361588941E+02 -0.19132227545E+01  0.45045680656E+02  0.00000000000E+00 0. -1.
         11    1    3    3    0    0  0.97318574174E+01  0.34053004793E+01 -0.14992465769E+01  0.10418870414E+02  0.51100000000E-03 0. -1.
        -11    1    3    3    0    0  0.11899414825E+02  0.12751340394E+02  0.30964386976E+00  0.17443870975E+02  0.51100000000E-03 0.  1.
        -12    1    3    3    0    0  0.14845015301E+02  0.10204948068E+02  0.31028254617E+01  0.18279577955E+02  0.00000000000E+00 0.  1.
</event>
<event>
 7    1  0.2328810E-008  0.4614232E+02  0.7816164E-02  0.1320468E+00
        -11   -1    0    0    0    0  0.00000000000E+00  0.00000000000E+00  0.45593999997E+02  0.45594000000E+02  0.51100000000E-03 0.  1.
         11   -1    0    0    0    0 -0.00000000000E+00 -0.00000000000E+00 -0.45593999997E+02  0.45594000000E+02  0.51100000000E-03 0. -1.
    9900012    2    1    2    0    0 -0.17096969688E+02 -0.39160188350E+02  0.14257857044E+02  0.46142320833E+02  0.10000028015E+02 0.  0.
         12    1    1    2    0    0  0.17096969688E+02  0.39160188350E+02 -0.14257857044E+02  0.45045679167E+02  0.00000000000E+00 0. -1.
         11    1    3    3    0    0 -0.38900026027E+01 -0.86422064733E+01  0.44449192201E+00  0.94877513831E+01  0.51100000000E-03 0. -1.
        -11    1    3    3    0    0 -0.38568403121E+00 -0.18370917557E+01 -0.75699623142E+00  0.20240310883E+01  0.51100000000E-03 0.  1.
        -12    1    3    3    0    0 -0.12821283054E+02 -0.28680890121E+02  0.14570361353E+02  0.34630538362E+02  0.00000000000E+00 0.  1.
</event>
<event>
 7    1  0.2328810E-008  0.4614232E+02  0.7816164E-02  0.1320468E+00
        -11   -1    0    0    0    0  0.00000000000E+00  0.00000000000E+00  0.45593999997E+02  0.45594000000E+02  0.51100000000E-03 0. -1.
         11   -1    0    0    0    0 -0.00000000000E+00 -0.00000000000E+00 -0.45593999997E+02  0.45594000000E+02  0.51100000000E-03 0.  1.
    9900012    2    1    2    0    0  0.42672145561E+02  0.13148673328E+02 -0.59425419815E+01  0.46142318495E+02  0.10000006689E+02 0.  0.
         12    1    1    2    0    0 -0.42672145561E+02 -0.13148673328E+02  0.59425419815E+01  0.45045681505E+02  0.00000000000E+00 0. -1.
         11    1    3    3    0    0  0.17063871164E+00  0.46726576084E+00  0.58372445687E+00  0.76693504538E+00  0.51100000000E-03 0. -1.
        -11    1    3    3    0    0  0.41725337106E+02  0.11430319596E+02 -0.55698550590E+01  0.43619711695E+02  0.51100000000E-03 0.  1.
        -12    1    3    3    0    0  0.77616974305E+00  0.12510879714E+01 -0.95641137944E+00  0.17556717543E+01  0.00000000000E+00 0.  1.
</event>
<event>
 7    1  0.2328810E-008  0.4614232E+02  0.7816164E-02  0.1320468E+00
        -11   -1    0    0    0    0  0.00000000000E+00  0.00000000000E+00  0.45593999997E+02  0.45594000000E+02  0.51100000000E-03 0.  1.
         11   -1    0    0    0    0 -0.00000000000E+00 -0.00000000000E+00 -0.45593999997E+02  0.45594000000E+02  0.51100000000E-03 0. -1.
    9900012    2    1    2    0    0  0.32518833839E+02  0.19397510789E+02  0.24400317195E+02  0.46142318095E+02  0.10000003047E+02 0.  0.
         12    1    1    2    0    0 -0.32518833839E+02 -0.19397510789E+02 -0.24400317195E+02  0.45045681905E+02  0.00000000000E+00 0. -1.
         11    1    3    3    0    0  0.25919268658E+01  0.22964950990E+01  0.35101209563E+01  0.49308137266E+01  0.51100000000E-03 0. -1.
        -11    1    3    3    0    0  0.25567595385E+01 -0.74444710624E+00  0.27993513049E+01  0.38636237940E+01  0.51100000000E-03 0.  1.
        -12    1    3    3    0    0  0.27370147435E+02  0.17845462796E+02  0.18090844933E+02  0.37347880575E+02  0.00000000000E+00 0.  1.
</event>
<event>
 7    1  0.2328810E-008  0.4614232E+02  0.7816164E-02  0.1320468E+00
        -11   -1    0    0    0    0  0.00000000000E+00  0.00000000000E+00  0.45593999997E+02  0.45594000000E+02  0.51100000000E-03 0. -1.
         11   -1    0    0    0    0 -0.00000000000E+00 -0.00000000000E+00 -0.45593999997E+02  0.45594000000E+02  0.51100000000E-03 0.  1.
    9900012    2    1    2    0    0  0.39102771878E+02 -0.90803911737E+01 -0.20436075985E+02  0.46142317920E+02  0.10000001446E+02 0.  0.
         12    1    1    2    0    0 -0.39102771878E+02  0.90803911737E+01  0.20436075985E+02  0.45045682080E+02  0.00000000000E+00 0. -1.
         11    1    3    3    0    0  0.32377688038E+01 -0.15438318812E+01 -0.88616858096E+00  0.36948421778E+01  0.51100000000E-03 0. -1.
        -11    1    3    3    0    0  0.26205554084E+01 -0.21608791968E+01 -0.42988458964E+01  0.54787576926E+01  0.51100000000E-03 0.  1.
         12    1    3    3    0    0  0.33244447666E+02 -0.53756800957E+01 -0.15251061508E+02  0.36968718049E+02  0.00000000000E+00 0. -1.
</event>
<event>
 7    1  0.2328810E-008  0.4614232E+02  0.7816164E-02  0.1320468E+00
        -11   -1    0    0    0    0  0.00000000000E+00  0.00000000000E+00  0.45593999997E+02  0.45594000000E+02  0.51100000000E-03 0.  1.
         11   -1    0    0    0    0 -0.00000000000E+00 -0.00000000000E+00 -0.45593999997E+02  0.45594000000E+02  0.51100000000E-03 0. -1.
    9900012    2    1    2    0    0  0.26441107030E+02 -0.33609134074E+02  0.14156534814E+02  0.46142317498E+02  0.99999975967E+01 0.  0.
         12    1    1    2    0    0 -0.26441107030E+02  0.33609134074E+02 -0.14156534814E+02  0.45045682502E+02  0.00000000000E+00 0. -1.
         11    1    3    3    0    0  0.23710916114E+01 -0.16515356338E+01 -0.14262635119E+00  0.28930931399E+01  0.51100000000E-03 0. -1.
        -11    1    3    3    0    0  0.24304755950E+02 -0.29308783352E+02  0.12657174083E+02  0.40123933000E+02  0.51100000000E-03 0.  1.
        -12    1    3    3    0    0 -0.23474053217E+00 -0.26488150885E+01  0.16419870821E+01  0.31252913573E+01  0.00000000000E+00 0.  1.
</event>
<event>
 7    1  0.2328810E-008  0.4614232E+02  0.7816164E-02  0.1320468E+00
        -11   -1    0    0    0    0  0.00000000000E+00  0.00000000000E+00  0.45593999997E+02  0.45594000000E+02  0.51100000000E-03 0.  1.
         11   -1    0    0    0    0 -0.00000000000E+00 -0.00000000000E+00 -0.45593999997E+02  0.45594000000E+02  0.51100000000E-03 0. -1.
    9900012    2    1    2    0    0  0.21531424623E+02 -0.28435604846E+02  0.27512317193E+02  0.46142318003E+02  0.10000002204E+02 0.  0.
         12    1    1    2    0    0 -0.21531424623E+02  0.28435604846E+02 -0.27512317193E+02  0.45045681997E+02  0.00000000000E+00 0. -1.
         11    1    3    3    0    0  0.16500425452E+01 -0.37003824779E+01  0.23134574948E+01  0.46655714253E+01  0.51100000000E-03 0. -1.
        -11    1    3    3    0    0  0.89692105216E+01 -0.17764664197E+02  0.16792417762E+02  0.26038727426E+02  0.51100000000E-03 0.  1.
         12    1    3    3    0    0  0.10912171556E+02 -0.69705581711E+01  0.84064419372E+01  0.15438019152E+02  0.00000000000E+00 0. -1.
</event>
<event>
 7    1  0.2328810E-008  0.4614232E+02  0.7816164E-02  0.1320468E+00
        -11   -1    0    0    0    0  0.00000000000E+00  0.00000000000E+00  0.45593999997E+02  0.45594000000E+02  0.51100000000E-03 0.  1.
         11   -1    0    0    0    0 -0.00000000000E+00 -0.00000000000E+00 -0.45593999997E+02  0.45594000000E+02  0.51100000000E-03 0. -1.
    9900012    2    1    2    0    0  0.14244043680E+02 -0.38331623957E+02  0.18891991673E+02  0.46142317356E+02  0.99999963059E+01 0.  0.
         12    1    1    2    0    0 -0.14244043680E+02  0.38331623957E+02 -0.18891991673E+02  0.45045682644E+02  0.00000000000E+00 0. -1.
         11    1    3    3    0    0  0.23942930616E+01 -0.13768184776E+02  0.38253416046E+01  0.14488919558E+02  0.51100000000E-03 0. -1.
        -11    1    3    3    0    0  0.13688112784E+01 -0.86828474348E+01  0.53243409531E+01  0.10276871642E+02  0.51100000000E-03 0.  1.
         12    1    3    3    0    0  0.10480939340E+02 -0.15880591745E+02  0.97423091149E+01  0.21376526157E+02  0.00000000000E+00 0. -1.
</event>
<event>
 7    1  0.2328810E-008  0.4614232E+02  0.7816164E-02  0.1320468E+00
        -11   -1    0    0    0    0  0.00000000000E+00  0.00000000000E+00  0.45593999997E+02  0.45594000000E+02  0.51100000000E-03 0.  1.
         11   -1    0    0    0    0 -0.00000000000E+00 -0.00000000000E+00 -0.45593999997E+02  0.45594000000E+02  0.51100000000E-03 0. -1.
    9900012    2    1    2    0    0  0.23883362692E+02 -0.28973364784E+02  0.24884584660E+02  0.46142318364E+02  0.10000005498E+02 0.  0.
         12    1    1    2    0    0 -0.23883362692E+02  0.28973364784E+02 -0.24884584660E+02  0.45045681636E+02  0.00000000000E+00 0. -1.
         11    1    3    3    0    0  0.70808859789E+01 -0.11399813273E+02  0.44034044295E+01  0.14123903842E+02  0.51100000000E-03 0. -1.
        -11    1    3    3    0    0  0.98198172837E+01 -0.91575530726E+01  0.90105813881E+01  0.16170348388E+02  0.51100000000E-03 0.  1.
        -12    1    3    3    0    0  0.69826594296E+01 -0.84159984383E+01  0.11470598842E+02  0.15848066135E+02  0.00000000000E+00 0.  1.
</event>
<event>
 7    1  0.2328810E-008  0.4614232E+02  0.7816164E-02  0.1320468E+00
        -11   -1    0    0    0    0  0.00000000000E+00  0.00000000000E+00  0.45593999997E+02  0.45594000000E+02  0.51100000000E-03 0.  1.
         11   -1    0    0    0    0 -0.00000000000E+00 -0.00000000000E+00 -0.45593999997E+02  0.45594000000E+02  0.51100000000E-03 0. -1.
    9900012    2    1    2    0    0 -0.25570439871E+02  0.31944133384E+02  0.18837155277E+02  0.46142317945E+02  0.10000001676E+02 0.  0.
         12    1    1    2    0    0  0.25570439871E+02 -0.31944133384E+02 -0.18837155277E+02  0.45045682055E+02  0.00000000000E+00 0. -1.
         11    1    3    3    0    0 -0.77398599162E+01  0.10410071528E+02  0.17071370118E+01  0.13083934339E+02  0.51100000000E-03 0. -1.
        -11    1    3    3    0    0 -0.15563691054E+02  0.20146440400E+02  0.16465685124E+02  0.30318745470E+02  0.51100000000E-03 0.  1.
         12    1    3    3    0    0 -0.22668889008E+01  0.13876214563E+01  0.66433314164E+00  0.27396381363E+01  0.00000000000E+00 0. -1.
</event>
<event>
 7    1  0.2328810E-008  0.4614232E+02  0.7816164E-02  0.1320468E+00
        -11   -1    0    0    0    0  0.00000000000E+00  0.00000000000E+00  0.45593999997E+02  0.45594000000E+02  0.51100000000E-03 0.  1.
         11   -1    0    0    0    0 -0.00000000000E+00 -0.00000000000E+00 -0.45593999997E+02  0.45594000000E+02  0.51100000000E-03 0. -1.
    9900012    2    1    2    0    0 -0.18445741358E+02  0.12075629252E+02  0.39281641086E+02  0.46142317382E+02  0.99999965462E+01 0.  0.
         12    1    1    2    0    0  0.18445741358E+02 -0.12075629252E+02 -0.39281641086E+02  0.45045682618E+02  0.00000000000E+00 0. -1.
         11    1    3    3    0    0 -0.83650553275E+01  0.35303853968E+01  0.10850125120E+02  0.14147896913E+02  0.51100000000E-03 0. -1.
        -11    1    3    3    0    0 -0.99059221352E+01  0.73473719537E+01  0.20149686222E+02  0.23624585141E+02  0.51100000000E-03 0.  1.
        -12    1    3    3    0    0 -0.17476389498E+00  0.11978719020E+01  0.82818297447E+01  0.83698353289E+01  0.00000000000E+00 0.  1.
</event>
<event>
 7    1  0.2328810E-008  0.4614232E+02  0.7816164E-02  0.1320468E+00
        -11   -1    0    0    0    0  0.00000000000E+00  0.00000000000E+00  0.45593999997E+02  0.45594000000E+02  0.51100000000E-03 0.  1.
         11   -1    0    0    0    0 -0.00000000000E+00 -0.00000000000E+00 -0.45593999997E+02  0.45594000000E+02  0.51100000000E-03 0. -1.
    9900012    2    1    2    0    0 -0.29477315661E+02  0.32721685136E+02  0.94600576261E+01  0.46142317554E+02  0.99999981127E+01 0.  0.
         12    1    1    2    0    0  0.29477315661E+02 -0.32721685136E+02 -0.94600576261E+01  0.45045682446E+02  0.00000000000E+00 0. -1.
         11    1    3    3    0    0 -0.11429264827E+02  0.15466781550E+02  0.18564099504E+01  0.19320861372E+02  0.51100000000E-03 0. -1.
        -11    1    3    3    0    0 -0.51309465408E+01  0.29487825849E+01 -0.44300546204E+00  0.59344911524E+01  0.51100000000E-03 0.  1.
        -12    1    3    3    0    0 -0.12917104294E+02  0.14306121001E+02  0.80466531377E+01  0.20886965030E+02  0.00000000000E+00 0.  1.
</event>
<event>
 7    1  0.2328810E-008  0.4614232E+02  0.7816164E-02  0.1320468E+00
        -11   -1    0    0    0    0  0.00000000000E+00  0.00000000000E+00  0.45593999997E+02  0.45594000000E+02  0.51100000000E-03 0. -1.
         11   -1    0    0    0    0 -0.00000000000E+00 -0.00000000000E+00 -0.45593999997E+02  0.45594000000E+02  0.51100000000E-03 0.  1.
    9900012    2    1    2    0    0 -0.33688697566E+02 -0.47128665680E+01 -0.29529209763E+02  0.46142315587E+02  0.99999801779E+01 0.  0.
         12    1    1    2    0    0  0.33688697566E+02  0.47128665680E+01  0.29529209763E+02  0.45045684413E+02  0.00000000000E+00 0. -1.
         11    1    3    3    0    0 -0.20243262320E+02 -0.55089316481E+01 -0.19169381064E+02  0.28418359697E+02  0.51100000000E-03 0. -1.
        -11    1    3    3    0    0 -0.12266684515E+02  0.21668835689E+01 -0.82279922851E+01  0.14928723680E+02  0.51100000000E-03 0.  1.
        -12    1    3    3    0    0 -0.11787507312E+01 -0.13708184888E+01 -0.21318364136E+01  0.27952322103E+01  0.00000000000E+00 0.  1.
</event>
<event>
 7    1  0.2328810E-008  0.4614232E+02  0.7816164E-02  0.1320468E+00
        -11   -1    0    0    0    0  0.00000000000E+00  0.00000000000E+00  0.45593999997E+02  0.45594000000E+02  0.51100000000E-03 0.  1.
         11   -1    0    0    0    0 -0.00000000000E+00 -0.00000000000E+00 -0.45593999997E+02  0.45594000000E+02  0.51100000000E-03 0. -1.
    9900012    2    1    2    0    0  0.30022294693E+01 -0.69174545966E+01  0.44410007765E+02  0.46142319301E+02  0.10000014046E+02 0.  0.
         12    1    1    2    0    0 -0.30022294693E+01  0.69174545966E+01 -0.44410007765E+02  0.45045680699E+02  0.00000000000E+00 0. -1.
         11    1    3    3    0    0 -0.21369026747E+01  0.76636644288E+00  0.10844980169E+02  0.11080039066E+02  0.51100000000E-03 0. -1.
        -11    1    3    3    0    0  0.86269392904E-01  0.36901091323E+00  0.37301916951E+01  0.37493921915E+01  0.51100000000E-03 0.  1.
        -12    1    3    3    0    0  0.50528627511E+01 -0.80528319527E+01  0.29834835901E+02  0.31312888044E+02  0.00000000000E+00 0.  1.
</event>
<event>
 7    1  0.2328810E-008  0.4614232E+02  0.7816164E-02  0.1320468E+00
        -11   -1    0    0    0    0  0.00000000000E+00  0.00000000000E+00  0.45593999997E+02  0.45594000000E+02  0.51100000000E-03 0.  1.
         11   -1    0    0    0    0 -0.00000000000E+00 -0.00000000000E+00 -0.45593999997E+02  0.45594000000E+02  0.51100000000E-03 0. -1.
    9900012    2    1    2    0    0 -0.93502766092E+01 -0.31117523919E+02  0.31199128475E+02  0.46142316687E+02  0.99999902051E+01 0.  0.
         12    1    1    2    0    0  0.93502766092E+01  0.31117523919E+02 -0.31199128475E+02  0.45045683313E+02  0.00000000000E+00 0. -1.
         11    1    3    3    0    0 -0.46051059097E+00 -0.10622814406E+02  0.10948414833E+02  0.15261849282E+02  0.51100000000E-03 0. -1.
        -11    1    3    3    0    0 -0.47333510615E+01 -0.17657417776E+02  0.15889949205E+02  0.24221467768E+02  0.51100000000E-03 0.  1.
         12    1    3    3    0    0 -0.41564149567E+01 -0.28372917372E+01  0.43607644364E+01  0.66589996369E+01  0.00000000000E+00 0. -1.
</event>
<event>
 7    1  0.2328810E-008  0.4614232E+02  0.7816164E-02  0.1320468E+00
        -11   -1    0    0    0    0  0.00000000000E+00  0.00000000000E+00  0.45593999997E+02  0.45594000000E+02  0.51100000000E-03 0.  1.
         11   -1    0    0    0    0 -0.00000000000E+00 -0.00000000000E+00 -0.45593999997E+02  0.45594000000E+02  0.51100000000E-03 0. -1.
    9900012    2    1    2    0    0  0.13675176022E+02 -0.36683320606E+02  0.22280866964E+02  0.46142317826E+02  0.10000000588E+02 0.  0.
         12    1    1    2    0    0 -0.13675176022E+02  0.36683320606E+02 -0.22280866964E+02  0.45045682174E+02  0.00000000000E+00 0. -1.
         11    1    3    3    0    0  0.15966826249E+00  0.14551447930E+00  0.32707987969E+00  0.39198204876E+00  0.51100000000E-03 0. -1.
        -11    1    3    3    0    0 -0.89133812564E+00 -0.12758551017E+01  0.19246601469E+01  0.24751983429E+01  0.51100000000E-03 0.  1.
        -12    1    3    3    0    0  0.14406845885E+02 -0.35552979983E+02  0.20029126937E+02  0.43275137434E+02  0.00000000000E+00 0.  1.
</event>
<event>
 7    1  0.2328810E-008  0.4614232E+02  0.7816164E-02  0.1320468E+00
        -11   -1    0    0    0    0  0.00000000000E+00  0.00000000000E+00  0.45593999997E+02  0.45594000000E+02  0.51100000000E-03 0.  1.
         11   -1    0    0    0    0 -0.00000000000E+00 -0.00000000000E+00 -0.45593999997E+02  0.45594000000E+02  0.51100000000E-03 0. -1.
    9900012    2    1    2    0    0 -0.30047278281E+02 -0.98687855643E+01  0.32076182973E+02  0.46142319023E+02  0.10000011506E+02 0.  0.
         12    1    1    2    0    0  0.30047278281E+02  0.98687855643E+01 -0.32076182973E+02  0.45045680977E+02  0.00000000000E+00 0. -1.
         11    1    3    3    0    0 -0.72864464886E+01 -0.26985653210E+01  0.38362428896E+01  0.86655246230E+01  0.51100000000E-03 0. -1.
        -11    1    3    3    0    0 -0.78398551321E+01 -0.43753086911E+01  0.70755818458E+01  0.11431120389E+02  0.51100000000E-03 0.  1.
        -12    1    3    3    0    0 -0.14920976660E+02 -0.27949115522E+01  0.21164358237E+02  0.26045674011E+02  0.00000000000E+00 0.  1.
</event>
<event>
 7    1  0.2328810E-008  0.4614232E+02  0.7816164E-02  0.1320468E+00
        -11   -1    0    0    0    0  0.00000000000E+00  0.00000000000E+00  0.45593999997E+02  0.45594000000E+02  0.51100000000E-03 0. -1.
         11   -1    0    0    0    0 -0.00000000000E+00 -0.00000000000E+00 -0.45593999997E+02  0.45594000000E+02  0.51100000000E-03 0.  1.
    9900012    2    1    2    0    0  0.44487278164E+02 -0.27650356600E+01 -0.65076988716E+01  0.46142317796E+02  0.10000000319E+02 0.  0.
         12    1    1    2    0    0 -0.44487278164E+02  0.27650356600E+01  0.65076988716E+01  0.45045682204E+02  0.00000000000E+00 0. -1.
         11    1    3    3    0    0  0.10789091180E+02  0.11129544077E+01 -0.39628899395E+01  0.11547625424E+02  0.51100000000E-03 0. -1.
        -11    1    3    3    0    0  0.19716587480E+02  0.17429514639E+00  0.49554090899E+00  0.19723583896E+02  0.51100000000E-03 0.  1.
         12    1    3    3    0    0  0.13981599504E+02 -0.40522852141E+01 -0.30403498411E+01  0.14871108476E+02  0.00000000000E+00 0. -1.
</event>
<event>
 7    1  0.2328810E-008  0.4614232E+02  0.7816164E-02  0.1320468E+00
        -11   -1    0    0    0    0  0.00000000000E+00  0.00000000000E+00  0.45593999997E+02  0.45594000000E+02  0.51100000000E-03 0.  1.
         11   -1    0    0    0    0 -0.00000000000E+00 -0.00000000000E+00 -0.45593999997E+02  0.45594000000E+02  0.51100000000E-03 0. -1.
    9900012    2    1    2    0    0  0.25118750428E+02 -0.34641694269E+02  0.14075328241E+02  0.46142317965E+02  0.10000001862E+02 0.  0.
         12    1    1    2    0    0 -0.25118750428E+02  0.34641694269E+02 -0.14075328241E+02  0.45045682035E+02  0.00000000000E+00 0. -1.
         11    1    3    3    0    0  0.46637442024E+01 -0.92743264033E+01  0.33083962650E+01  0.10895371785E+02  0.51100000000E-03 0. -1.
        -11    1    3    3    0    0  0.12875861986E+02 -0.17957343493E+02  0.34428487348E+01  0.22363077045E+02  0.51100000000E-03 0.  1.
         12    1    3    3    0    0  0.75791442391E+01 -0.74100243724E+01  0.73240832408E+01  0.12883869136E+02  0.00000000000E+00 0. -1.
</event>
<event>
 7    1  0.2328810E-008  0.4614232E+02  0.7816164E-02  0.1320468E+00
        -11   -1    0    0    0    0  0.00000000000E+00  0.00000000000E+00  0.45593999997E+02  0.45594000000E+02  0.51100000000E-03 0. -1.
         11   -1    0    0    0    0 -0.00000000000E+00 -0.00000000000E+00 -0.45593999997E+02  0.45594000000E+02  0.51100000000E-03 0.  1.
    9900012    2    1    2    0    0 -0.40480767097E+02 -0.10172670762E+02 -0.16939237775E+02  0.46142317504E+02  0.99999976521E+01 0.  0.
         12    1    1    2    0    0  0.40480767097E+02  0.10172670762E+02  0.16939237775E+02  0.45045682496E+02  0.00000000000E+00 0. -1.
         11    1    3    3    0    0 -0.68570015316E+01 -0.10641816934E+01 -0.13935947497E+01  0.70776450369E+01  0.51100000000E-03 0. -1.
        -11    1    3    3    0    0 -0.26827420757E+02 -0.96694977831E+01 -0.98199467537E+01  0.30160256072E+02  0.51100000000E-03 0.  1.
         12    1    3    3    0    0 -0.67963448083E+01  0.56100871469E+00 -0.57256962715E+01  0.89044163944E+01  0.00000000000E+00 0. -1.
</event>
<event>
 7    1  0.2328810E-008  0.4614232E+02  0.7816164E-02  0.1320468E+00
        -11   -1    0    0    0    0  0.00000000000E+00  0.00000000000E+00  0.45593999997E+02  0.45594000000E+02  0.51100000000E-03 0. -1.
         11   -1    0    0    0    0 -0.00000000000E+00 -0.00000000000E+00 -0.45593999997E+02  0.45594000000E+02  0.51100000000E-03 0.  1.
    9900012    2    1    2    0    0  0.12417107909E+02 -0.27172402663E+02  0.33713341973E+02  0.46142318051E+02  0.10000002643E+02 0.  0.
         12    1    1    2    0    0 -0.12417107909E+02  0.27172402663E+02 -0.33713341973E+02  0.45045681949E+02  0.00000000000E+00 0. -1.
         11    1    3    3    0    0  0.13223694491E+02 -0.19866976251E+02  0.25201499407E+02  0.34708477552E+02  0.51100000000E-03 0. -1.
        -11    1    3    3    0    0  0.60530658986E+00 -0.36528340224E+01  0.45022884484E+01  0.58292532967E+01  0.51100000000E-03 0.  1.
         12    1    3    3    0    0 -0.14118931715E+01 -0.36525923895E+01  0.40095541172E+01  0.56045872025E+01  0.00000000000E+00 0. -1.
</event>
<event>
 7    1  0.2328810E-008  0.4614232E+02  0.7816164E-02  0.1320468E+00
        -11   -1    0    0    0    0  0.00000000000E+00  0.00000000000E+00  0.45593999997E+02  0.45594000000E+02  0.51100000000E-03 0.  1.
         11   -1    0    0    0    0 -0.00000000000E+00 -0.00000000000E+00 -0.45593999997E+02  0.45594000000E+02  0.51100000000E-03 0. -1.
    9900012    2    1    2    0    0  0.18207525535E+02 -0.39336744956E+02 -0.12256429240E+02  0.46142317104E+02  0.99999940072E+01 0.  0.
         12    1    1    2    0    0 -0.18207525535E+02  0.39336744956E+02  0.12256429240E+02  0.45045682896E+02  0.00000000000E+00 0. -1.
         11    1    3    3    0    0  0.29652443897E+01 -0.25828073990E+01  0.86510938037E+00  0.40264106661E+01  0.51100000000E-03 0. -1.
        -11    1    3    3    0    0  0.19911751655E+01 -0.88545782561E+01 -0.39375679345E+01  0.98930670741E+01  0.51100000000E-03 0.  1.
         12    1    3    3    0    0  0.13251105980E+02 -0.27899359301E+02 -0.91839706856E+01  0.32222839364E+02  0.00000000000E+00 0. -1.
</event>
<event>
 7    1  0.2328810E-008  0.4614232E+02  0.7816164E-02  0.1320468E+00
        -11   -1    0    0    0    0  0.00000000000E+00  0.00000000000E+00  0.45593999997E+02  0.45594000000E+02  0.51100000000E-03 0.  1.
         11   -1    0    0    0    0 -0.00000000000E+00 -0.00000000000E+00 -0.45593999997E+02  0.45594000000E+02  0.51100000000E-03 0. -1.
    9900012    2    1    2    0    0  0.22088716058E+02  0.29503852053E+02  0.25898355816E+02  0.46142317665E+02  0.99999991204E+01 0.  0.
         12    1    1    2    0    0 -0.22088716058E+02 -0.29503852053E+02 -0.25898355816E+02  0.45045682335E+02  0.00000000000E+00 0. -1.
         11    1    3    3    0    0  0.53991220889E+01  0.34401610013E+01  0.81570068859E+01  0.10369281009E+02  0.51100000000E-03 0. -1.
        -11    1    3    3    0    0  0.11984153144E+02  0.16901005993E+02  0.12745603006E+02  0.24325178856E+02  0.51100000000E-03 0.  1.
         12    1    3    3    0    0  0.47054408250E+01  0.91626850590E+01  0.49957459245E+01  0.11447857799E+02  0.00000000000E+00 0. -1.
</event>
<event>
 7    1  0.2328810E-008  0.4614232E+02  0.7816164E-02  0.1320468E+00
        -11   -1    0    0    0    0  0.00000000000E+00  0.00000000000E+00  0.45593999997E+02  0.45594000000E+02  0.51100000000E-03 0.  1.
         11   -1    0    0    0    0 -0.00000000000E+00 -0.00000000000E+00 -0.45593999997E+02  0.45594000000E+02  0.51100000000E-03 0. -1.
    9900012    2    1    2    0    0  0.24211045697E+02  0.79618348171E+01  0.37142265838E+02  0.46142318087E+02  0.10000002973E+02 0.  0.
         12    1    1    2    0    0 -0.24211045697E+02 -0.79618348171E+01 -0.37142265838E+02  0.45045681913E+02  0.00000000000E+00 0. -1.
         11    1    3    3    0    0  0.51720015745E+01  0.17136772464E+01  0.42563374337E+01  0.69139495661E+01  0.51100000000E-03 0. -1.
        -11    1    3    3    0    0  0.11386503916E+02 -0.14827688346E+00  0.18479113058E+02  0.21706037804E+02  0.51100000000E-03 0.  1.
        -12    1    3    3    0    0  0.76525402070E+01  0.63964344542E+01  0.14406815346E+02  0.17522330717E+02  0.00000000000E+00 0.  1.
</event>
<event>
 7    1  0.2328810E-008  0.4614232E+02  0.7816164E-02  0.1320468E+00
        -11   -1    0    0    0    0  0.00000000000E+00  0.00000000000E+00  0.45593999997E+02  0.45594000000E+02  0.51100000000E-03 0.  1.
         11   -1    0    0    0    0 -0.00000000000E+00 -0.00000000000E+00 -0.45593999997E+02  0.45594000000E+02  0.51100000000E-03 0. -1.
    9900012    2    1    2    0    0  0.18468378382E+02 -0.37455917269E+02  0.16884516434E+02  0.46142316147E+02  0.99999852843E+01 0.  0.
         12    1    1    2    0    0 -0.18468378382E+02  0.37455917269E+02 -0.16884516434E+02  0.45045683853E+02  0.00000000000E+00 0. -1.
         11    1    3    3    0    0  0.18897396595E+01 -0.11321340074E+02  0.45542595707E+01  0.12348487258E+02  0.51100000000E-03 0. -1.
        -11    1    3    3    0    0  0.76511216698E+01 -0.16032814616E+02  0.89651471515E+01  0.19898861049E+02  0.51100000000E-03 0.  1.
         12    1    3    3    0    0  0.89275170531E+01 -0.10101762579E+02  0.33651097117E+01  0.13894967841E+02  0.00000000000E+00 0. -1.
</event>
<event>
 7    1  0.2328810E-008  0.4614232E+02  0.7816164E-02  0.1320468E+00
        -11   -1    0    0    0    0  0.00000000000E+00  0.00000000000E+00  0.45593999997E+02  0.45594000000E+02  0.51100000000E-03 0. -1.
         11   -1    0    0    0    0 -0.00000000000E+00 -0.00000000000E+00 -0.45593999997E+02  0.45594000000E+02  0.51100000000E-03 0.  1.
    9900012    2    1    2    0    0  0.42850823168E+02  0.54683497999E+01  0.12767834585E+02  0.46142317680E+02  0.99999992569E+01 0.  0.
         12    1    1    2    0    0 -0.42850823168E+02 -0.54683497999E+01 -0.12767834585E+02  0.45045682320E+02  0.00000000000E+00 0. -1.
         11    1    3    3    0    0  0.10982295725E+02  0.35231321685E+01 -0.31407133690E+00  0.11537847318E+02  0.51100000000E-03 0. -1.
        -11    1    3    3    0    0  0.74369973299E+01 -0.60677896717E+00  0.26797157007E+01  0.79283028763E+01  0.51100000000E-03 0.  1.
         12    1    3    3    0    0  0.24431530114E+02  0.25519965985E+01  0.10402190221E+02  0.26676167486E+02  0.00000000000E+00 0. -1.
</event>
<event>
 7    1  0.2328810E-008  0.4614232E+02  0.7816164E-02  0.1320468E+00
        -11   -1    0    0    0    0  0.00000000000E+00  0.00000000000E+00  0.45593999997E+02  0.45594000000E+02  0.51100000000E-03 0. -1.
         11   -1    0    0    0    0 -0.00000000000E+00 -0.00000000000E+00 -0.45593999997E+02  0.45594000000E+02  0.51100000000E-03 0.  1.
    9900012    2    1    2    0    0 -0.30665766183E+02  0.16198169867E+02 -0.28746192931E+02  0.46142317292E+02  0.99999957217E+01 0.  0.
         12    1    1    2    0    0  0.30665766183E+02 -0.16198169867E+02  0.28746192931E+02  0.45045682708E+02  0.00000000000E+00 0. -1.
         11    1    3    3    0    0 -0.79464788947E+01  0.15482737925E+01 -0.87989992270E+01  0.11956841816E+02  0.51100000000E-03 0.  1.
        -11    1    3    3    0    0  0.41980049231E+00  0.41780264657E+00 -0.33852461639E+00  0.68219548653E+00  0.51100000000E-03 0. -1.
         12    1    3    3    0    0 -0.23139087780E+02  0.14232093428E+02 -0.19608669088E+02  0.33503279989E+02  0.00000000000E+00 0. -1.
</event>
<event>
 7    1  0.2328810E-008  0.4614232E+02  0.7816164E-02  0.1320468E+00
        -11   -1    0    0    0    0  0.00000000000E+00  0.00000000000E+00  0.45593999997E+02  0.45594000000E+02  0.51100000000E-03 0. -1.
         11   -1    0    0    0    0 -0.00000000000E+00 -0.00000000000E+00 -0.45593999997E+02  0.45594000000E+02  0.51100000000E-03 0.  1.
    9900012    2    1    2    0    0 -0.17906744638E+02 -0.35402626418E+02 -0.21333449042E+02  0.46142317534E+02  0.99999979253E+01 0.  0.
         12    1    1    2    0    0  0.17906744638E+02  0.35402626418E+02  0.21333449042E+02  0.45045682466E+02  0.00000000000E+00 0. -1.
         11    1    3    3    0    0 -0.85357448780E+00 -0.12853288178E+01 -0.31336703038E+01  0.34929284862E+01  0.51100000000E-03 0. -1.
        -11    1    3    3    0    0 -0.83800656613E+01 -0.20919889697E+02 -0.83273720107E+01  0.24025245270E+02  0.51100000000E-03 0.  1.
        -12    1    3    3    0    0 -0.86731044886E+01 -0.13197407904E+02 -0.98724067275E+01  0.18624143777E+02  0.00000000000E+00 0.  1.
</event>
<event>
 7    1  0.2328810E-008  0.4614232E+02  0.7816164E-02  0.1320468E+00
        -11   -1    0    0    0    0  0.00000000000E+00  0.00000000000E+00  0.45593999997E+02  0.45594000000E+02  0.51100000000E-03 0. -1.
         11   -1    0    0    0    0 -0.00000000000E+00 -0.00000000000E+00 -0.45593999997E+02  0.45594000000E+02  0.51100000000E-03 0.  1.
    9900012    2    1    2    0    0  0.41111215307E+02  0.13327776741E+02 -0.12702435706E+02  0.46142317302E+02  0.99999958146E+01 0.  0.
         12    1    1    2    0    0 -0.41111215307E+02 -0.13327776741E+02  0.12702435706E+02  0.45045682698E+02  0.00000000000E+00 0. -1.
         11    1    3    3    0    0  0.41936241782E+01  0.22209702108E+01 -0.19159270782E+01  0.51176136290E+01  0.51100000000E-03 0. -1.
        -11    1    3    3    0    0  0.24525539381E+02  0.11534592590E+02 -0.61878676228E+01  0.27799975074E+02  0.51100000000E-03 0.  1.
        -12    1    3    3    0    0  0.12392051748E+02 -0.42778605967E+00 -0.45986410049E+01  0.13224728599E+02  0.00000000000E+00 0.  1.
</event>
<event>
 7    1  0.2328810E-008  0.4614232E+02  0.7816164E-02  0.1320468E+00
        -11   -1    0    0    0    0  0.00000000000E+00  0.00000000000E+00  0.45593999997E+02  0.45594000000E+02  0.51100000000E-03 0.  1.
         11   -1    0    0    0    0 -0.00000000000E+00 -0.00000000000E+00 -0.45593999997E+02  0.45594000000E+02  0.51100000000E-03 0. -1.
    9900012    2    1    2    0    0 -0.36411794079E+02  0.14026451851E+02  0.22506741210E+02  0.46142317638E+02  0.99999988798E+01 0.  0.
         12    1    1    2    0    0  0.36411794079E+02 -0.14026451851E+02 -0.22506741210E+02  0.45045682362E+02  0.00000000000E+00 0. -1.
         11    1    3    3    0    0 -0.28209968224E+02  0.13036204434E+02  0.15489073668E+02  0.34722562357E+02  0.51100000000E-03 0. -1.
        -11    1    3    3    0    0 -0.79716298266E+01  0.10134564334E+01  0.51646728799E+01  0.95523725981E+01  0.51100000000E-03 0.  1.
         12    1    3    3    0    0 -0.23019602771E+00 -0.23209016788E-01  0.18529946617E+01  0.18673826833E+01  0.00000000000E+00 0. -1.
</event>
<event>
 7    1  0.2328810E-008  0.4614232E+02  0.7816164E-02  0.1320468E+00
        -11   -1    0    0    0    0  0.00000000000E+00  0.00000000000E+00  0.45593999997E+02  0.45594000000E+02  0.51100000000E-03 0. -1.
         11   -1    0    0    0    0 -0.00000000000E+00 -0.00000000000E+00 -0.45593999997E+02  0.45594000000E+02  0.51100000000E-03 0.  1.
    9900012    2    1    2    0    0  0.27045464209E+02  0.35248239524E+02 -0.74308867636E+01  0.46142316501E+02  0.99999885103E+01 0.  0.
         12    1    1    2    0    0 -0.27045464209E+02 -0.35248239524E+02  0.74308867636E+01  0.45045683499E+02  0.00000000000E+00 0. -1.
         11    1    3    3    0    0  0.17763835442E+01  0.27155185753E+01  0.59017196506E+00  0.32981635554E+01  0.51100000000E-03 0. -1.
        -11    1    3    3    0    0 -0.56792378656E+00  0.19343526012E+01 -0.69177250481E+00  0.21313861388E+01  0.51100000000E-03 0.  1.
        -12    1    3    3    0    0  0.25837004451E+02  0.30598368347E+02 -0.73292862238E+01  0.40712766807E+02  0.00000000000E+00 0.  1.
</event>
<event>
 7    1  0.2328810E-008  0.4614232E+02  0.7816164E-02  0.1320468E+00
        -11   -1    0    0    0    0  0.00000000000E+00  0.00000000000E+00  0.45593999997E+02  0.45594000000E+02  0.51100000000E-03 0. -1.
         11   -1    0    0    0    0 -0.00000000000E+00 -0.00000000000E+00 -0.45593999997E+02  0.45594000000E+02  0.51100000000E-03 0.  1.
    9900012    2    1    2    0    0 -0.13897356196E+02 -0.90612159951E+01 -0.41879246717E+02  0.46142318186E+02  0.10000003871E+02 0.  0.
         12    1    1    2    0    0  0.13897356196E+02  0.90612159951E+01  0.41879246717E+02  0.45045681814E+02  0.00000000000E+00 0. -1.
         11    1    3    3    0    0 -0.89900021005E+01 -0.94021082980E+00 -0.16381981782E+02  0.18710250173E+02  0.51100000000E-03 0. -1.
        -11    1    3    3    0    0 -0.29423318743E+01 -0.33222995406E+01 -0.16084262203E+02  0.16685277402E+02  0.51100000000E-03 0.  1.
        -12    1    3    3    0    0 -0.19650222214E+01 -0.47987056247E+01 -0.94130027318E+01  0.10746790611E+02  0.00000000000E+00 0.  1.
</event>
<event>
 7    1  0.2328810E-008  0.4614232E+02  0.7816164E-02  0.1320468E+00
        -11   -1    0    0    0    0  0.00000000000E+00  0.00000000000E+00  0.45593999997E+02  0.45594000000E+02  0.51100000000E-03 0. -1.
         11   -1    0    0    0    0 -0.00000000000E+00 -0.00000000000E+00 -0.45593999997E+02  0.45594000000E+02  0.51100000000E-03 0.  1.
    9900012    2    1    2    0    0 -0.43207365452E+01 -0.21255452771E+02 -0.39479747728E+02  0.46142317439E+02  0.99999970586E+01 0.  0.
         12    1    1    2    0    0  0.43207365452E+01  0.21255452771E+02  0.39479747728E+02  0.45045682561E+02  0.00000000000E+00 0. -1.
         11    1    3    3    0    0 -0.12857351153E+01 -0.53223955828E+01 -0.38790701062E+01  0.67103051105E+01  0.51100000000E-03 0. -1.
        -11    1    3    3    0    0 -0.13305010313E+01 -0.14472806870E+02 -0.32524231382E+02  0.35623840317E+02  0.51100000000E-03 0.  1.
         12    1    3    3    0    0 -0.17045003985E+01 -0.14602503185E+01 -0.30764462392E+01  0.38081720109E+01  0.00000000000E+00 0. -1.
</event>
<event>
 7    1  0.2328810E-008  0.4614230E+02  0.7816164E-02  0.1320468E+00
        -11   -1    0    0    0    0  0.00000000000E+00  0.00000000000E+00  0.45593999997E+02  0.45594000000E+02  0.51100000000E-03 0.  1.
         11   -1    0    0    0    0 -0.00000000000E+00 -0.00000000000E+00 -0.45593999997E+02  0.45594000000E+02  0.51100000000E-03 0. -1.
    9900012    2    1    2    0    0 -0.15650181149E+02  0.41622947399E+02 -0.71914354927E+01  0.46142304705E+02  0.99998809419E+01 0.  0.
         12    1    1    2    0    0  0.15650181149E+02 -0.41622947399E+02  0.71914354927E+01  0.45045695295E+02  0.00000000000E+00 0. -1.
         11    1    3    3    0    0 -0.69234965429E+01  0.16673129963E+02  0.43009795609E+00  0.18058600490E+02  0.51100000000E-03 0. -1.
        -11    1    3    3    0    0  0.63802159545E+00  0.40964406929E+00 -0.30669564835E+00  0.81788892987E+00  0.51100000000E-03 0.  1.
        -12    1    3    3    0    0 -0.93647062012E+01  0.24540173366E+02 -0.73148378005E+01  0.27265815285E+02  0.00000000000E+00 0.  1.
</event>
<event>
 7    1  0.2328810E-008  0.4614232E+02  0.7816164E-02  0.1320468E+00
        -11   -1    0    0    0    0  0.00000000000E+00  0.00000000000E+00  0.45593999997E+02  0.45594000000E+02  0.51100000000E-03 0.  1.
         11   -1    0    0    0    0 -0.00000000000E+00 -0.00000000000E+00 -0.45593999997E+02  0.45594000000E+02  0.51100000000E-03 0. -1.
    9900012    2    1    2    0    0  0.70008531497E+01 -0.11340988472E+02  0.43028870808E+02  0.46142315553E+02  0.99999798612E+01 0.  0.
         12    1    1    2    0    0 -0.70008531497E+01  0.11340988472E+02 -0.43028870808E+02  0.45045684447E+02  0.00000000000E+00 0. -1.
         11    1    3    3    0    0  0.59753673855E+01 -0.36024766177E+01  0.11290457108E+02  0.13272425368E+02  0.51100000000E-03 0. -1.
        -11    1    3    3    0    0  0.54552262075E+00 -0.27494781009E+01  0.56818943805E+01  0.63357042836E+01  0.51100000000E-03 0.  1.
        -12    1    3    3    0    0  0.47996314344E+00 -0.49890337530E+01  0.26056519319E+02  0.26534185901E+02  0.00000000000E+00 0.  1.
</event>
<event>
 7    1  0.2328810E-008  0.4614232E+02  0.7816164E-02  0.1320468E+00
        -11   -1    0    0    0    0  0.00000000000E+00  0.00000000000E+00  0.45593999997E+02  0.45594000000E+02  0.51100000000E-03 0. -1.
         11   -1    0    0    0    0 -0.00000000000E+00 -0.00000000000E+00 -0.45593999997E+02  0.45594000000E+02  0.51100000000E-03 0.  1.
    9900012    2    1    2    0    0 -0.43821229595E+02 -0.50508197211E+01 -0.91270242898E+01  0.46142317461E+02  0.99999972592E+01 0.  0.
         12    1    1    2    0    0  0.43821229595E+02  0.50508197211E+01  0.91270242898E+01  0.45045682539E+02  0.00000000000E+00 0. -1.
         11    1    3    3    0    0 -0.25914452015E+02 -0.72243631842E+00 -0.33655132592E+01  0.26142062222E+02  0.51100000000E-03 0. -1.
        -11    1    3    3    0    0 -0.17133060170E+02 -0.33080680705E+01 -0.41396261440E+01  0.17933810806E+02  0.51100000000E-03 0.  1.
         12    1    3    3    0    0 -0.77371741003E+00 -0.10203153322E+01 -0.16218848866E+01  0.20664444326E+01  0.00000000000E+00 0. -1.
</event>
<event>
 7    1  0.2328810E-008  0.4614232E+02  0.7816164E-02  0.1320468E+00
        -11   -1    0    0    0    0  0.00000000000E+00  0.00000000000E+00  0.45593999997E+02  0.45594000000E+02  0.51100000000E-03 0.  1.
         11   -1    0    0    0    0 -0.00000000000E+00 -0.00000000000E+00 -0.45593999997E+02  0.45594000000E+02  0.51100000000E-03 0. -1.
    9900012    2    1    2    0    0 -0.16044475880E+02 -0.21143785758E+02  0.36395448009E+02  0.46142317430E+02  0.99999969794E+01 0.  0.
         12    1    1    2    0    0  0.16044475880E+02  0.21143785758E+02 -0.36395448009E+02  0.45045682570E+02  0.00000000000E+00 0. -1.
         11    1    3    3    0    0 -0.15444110553E+01 -0.69566910387E+01  0.81997056737E+01  0.10863513663E+02  0.51100000000E-03 0. -1.
        -11    1    3    3    0    0 -0.73994872228E+01 -0.10668429641E+02  0.20265163397E+02  0.24067501946E+02  0.51100000000E-03 0.  1.
         12    1    3    3    0    0 -0.71005776020E+01 -0.35186650784E+01  0.79305789388E+01  0.11211301821E+02  0.00000000000E+00 0. -1.
</event>
<event>
 7    1  0.2328810E-008  0.4614232E+02  0.7816164E-02  0.1320468E+00
        -11   -1    0    0    0    0  0.00000000000E+00  0.00000000000E+00  0.45593999997E+02  0.45594000000E+02  0.51100000000E-03 0. -1.
         11   -1    0    0    0    0 -0.00000000000E+00 -0.00000000000E+00 -0.45593999997E+02  0.45594000000E+02  0.51100000000E-03 0.  1.
    9900012    2    1    2    0    0  0.28359475843E+02 -0.26144000409E+02 -0.23266822765E+02  0.46142315756E+02  0.99999817115E+01 0.  0.
         12    1    1    2    0    0 -0.28359475843E+02  0.26144000409E+02  0.23266822765E+02  0.45045684244E+02  0.00000000000E+00 0. -1.
         11    1    3    3    0    0  0.19603749711E+01 -0.18694901709E+01 -0.27167186918E+00  0.27224748653E+01  0.51100000000E-03 0. -1.
        -11    1    3    3    0    0  0.67911596540E+01 -0.11483059320E+02 -0.97228941067E+01  0.16508033525E+02  0.51100000000E-03 0.  1.
         12    1    3    3    0    0  0.19607941217E+02 -0.12791450919E+02 -0.13272256790E+02  0.26911807365E+02  0.00000000000E+00 0. -1.
</event>
<event>
 7    1  0.2328810E-008  0.4614232E+02  0.7816164E-02  0.1320468E+00
        -11   -1    0    0    0    0  0.00000000000E+00  0.00000000000E+00  0.45593999997E+02  0.45594000000E+02  0.51100000000E-03 0.  1.
         11   -1    0    0    0    0 -0.00000000000E+00 -0.00000000000E+00 -0.45593999997E+02  0.45594000000E+02  0.51100000000E-03 0. -1.
    9900012    2    1    2    0    0  0.30232807665E+02 -0.19665028211E+02 -0.26988468732E+02  0.46142318316E+02  0.10000005061E+02 0.  0.
         12    1    1    2    0    0 -0.30232807665E+02  0.19665028211E+02  0.26988468732E+02  0.45045681684E+02  0.00000000000E+00 0. -1.
         11    1    3    3    0    0  0.16444295197E+02 -0.97900766218E+01 -0.86286457379E+01  0.20993188713E+02  0.51100000000E-03 0. -1.
        -11    1    3    3    0    0  0.10427778326E+02 -0.88394924454E+01 -0.14552442670E+02  0.19966190809E+02  0.51100000000E-03 0.  1.
        -12    1    3    3    0    0  0.33607341419E+01 -0.10354591441E+01 -0.38073803240E+01  0.51829387941E+01  0.00000000000E+00 0.  1.
</event>
<event>
 7    1  0.2328810E-008  0.4614232E+02  0.7816164E-02  0.1320468E+00
        -11   -1    0    0    0    0  0.00000000000E+00  0.00000000000E+00  0.45593999997E+02  0.45594000000E+02  0.51100000000E-03 0.  1.
         11   -1    0    0    0    0 -0.00000000000E+00 -0.00000000000E+00 -0.45593999997E+02  0.45594000000E+02  0.51100000000E-03 0. -1.
    9900012    2    1    2    0    0 -0.22051869320E+02  0.23087514934E+02  0.31777275876E+02  0.46142317095E+02  0.99999939218E+01 0.  0.
         12    1    1    2    0    0  0.22051869320E+02 -0.23087514934E+02 -0.31777275876E+02  0.45045682905E+02  0.00000000000E+00 0. -1.
         11    1    3    3    0    0 -0.93398187851E+01  0.13111092047E+02  0.13124212668E+02  0.20769639092E+02  0.51100000000E-03 0. -1.
        -11    1    3    3    0    0 -0.35296814867E+01  0.59537154434E+01  0.98035193364E+01  0.12000598761E+02  0.51100000000E-03 0.  1.
         12    1    3    3    0    0 -0.91823690480E+01  0.40227074440E+01  0.88495438718E+01  0.13372079242E+02  0.00000000000E+00 0. -1.
</event>
<event>
 7    1  0.2328810E-008  0.4614232E+02  0.7816164E-02  0.1320468E+00
        -11   -1    0    0    0    0  0.00000000000E+00  0.00000000000E+00  0.45593999997E+02  0.45594000000E+02  0.51100000000E-03 0.  1.
         11   -1    0    0    0    0 -0.00000000000E+00 -0.00000000000E+00 -0.45593999997E+02  0.45594000000E+02  0.51100000000E-03 0. -1.
    9900012    2    1    2    0    0  0.29541573104E+02  0.22976875238E+02  0.25069345861E+02  0.46142318308E+02  0.10000004991E+02 0.  0.
         12    1    1    2    0    0 -0.29541573104E+02 -0.22976875238E+02 -0.25069345861E+02  0.45045681692E+02  0.00000000000E+00 0. -1.
         11    1    3    3    0    0 -0.14757138911E+00 -0.12824849042E-01  0.11322797795E+01  0.11419279976E+01  0.51100000000E-03 0. -1.
        -11    1    3    3    0    0  0.24199915981E+02  0.16716184324E+02  0.21088859738E+02  0.36191252495E+02  0.51100000000E-03 0.  1.
        -12    1    3    3    0    0  0.54892285127E+01  0.62735157626E+01  0.28482063440E+01  0.88091378162E+01  0.00000000000E+00 0.  1.
</event>
<event>
 7    1  0.2328810E-008  0.4614232E+02  0.7816164E-02  0.1320468E+00
        -11   -1    0    0    0    0  0.00000000000E+00  0.00000000000E+00  0.45593999997E+02  0.45594000000E+02  0.51100000000E-03 0.  1.
         11   -1    0    0    0    0 -0.00000000000E+00 -0.00000000000E+00 -0.45593999997E+02  0.45594000000E+02  0.51100000000E-03 0. -1.
    9900012    2    1    2    0    0  0.36311670992E+02  0.16494893099E+02  0.20940264011E+02  0.46142316462E+02  0.99999881545E+01 0.  0.
         12    1    1    2    0    0 -0.36311670992E+02 -0.16494893099E+02 -0.20940264011E+02  0.45045683538E+02  0.00000000000E+00 0. -1.
         11    1    3    3    0    0  0.74833710395E+01  0.71285761357E+01  0.79666355232E+01  0.13049318820E+02  0.51100000000E-03 0. -1.
        -11    1    3    3    0    0  0.22260663716E+02  0.68366767117E+01  0.11171966376E+02  0.25828088015E+02  0.51100000000E-03 0.  1.
         12    1    3    3    0    0  0.65676362357E+01  0.25296402516E+01  0.18016621121E+01  0.72649096273E+01  0.00000000000E+00 0. -1.
</event>
<event>
 7    1  0.2328810E-008  0.4614232E+02  0.7816164E-02  0.1320468E+00
        -11   -1    0    0    0    0  0.00000000000E+00  0.00000000000E+00  0.45593999997E+02  0.45594000000E+02  0.51100000000E-03 0.  1.
         11   -1    0    0    0    0 -0.00000000000E+00 -0.00000000000E+00 -0.45593999997E+02  0.45594000000E+02  0.51100000000E-03 0. -1.
    9900012    2    1    2    0    0  0.99307910155E+01  0.39018052234E+02  0.20201102575E+02  0.46142317015E+02  0.99999931963E+01 0.  0.
         12    1    1    2    0    0 -0.99307910155E+01 -0.39018052234E+02 -0.20201102575E+02  0.45045682985E+02  0.00000000000E+00 0. -1.
         11    1    3    3    0    0  0.69178983129E+01  0.19774120312E+02  0.76531735108E+01  0.22303457495E+02  0.51100000000E-03 0. -1.
        -11    1    3    3    0    0  0.13948255978E+01  0.16037051498E+02  0.78069020897E+01  0.17890787565E+02  0.51100000000E-03 0.  1.
        -12    1    3    3    0    0  0.16180671048E+01  0.32068804242E+01  0.47410269742E+01  0.59480719549E+01  0.00000000000E+00 0.  1.
</event>
<event>
 7    1  0.2328810E-008  0.4614232E+02  0.7816164E-02  0.1320468E+00
        -11   -1    0    0    0    0  0.00000000000E+00  0.00000000000E+00  0.45593999997E+02  0.45594000000E+02  0.51100000000E-03 0.  1.
         11   -1    0    0    0    0 -0.00000000000E+00 -0.00000000000E+00 -0.45593999997E+02  0.45594000000E+02  0.51100000000E-03 0. -1.
    9900012    2    1    2    0    0  0.76257449843E+01 -0.39585583057E+02  0.20098335143E+02  0.46142318209E+02  0.10000004080E+02 0.  0.
         12    1    1    2    0    0 -0.76257449843E+01  0.39585583057E+02 -0.20098335143E+02  0.45045681791E+02  0.00000000000E+00 0. -1.
         11    1    3    3    0    0  0.88891362938E-01  0.75058071448E-01  0.79775806607E+00  0.80619698684E+00  0.51100000000E-03 0. -1.
        -11    1    3    3    0    0  0.75333164060E+00 -0.37167611360E+01  0.44792808440E+01  0.58690526530E+01  0.51100000000E-03 0.  1.
        -12    1    3    3    0    0  0.67835219807E+01 -0.35943879993E+02  0.14821296233E+02  0.39467068569E+02  0.00000000000E+00 0.  1.
</event>
<event>
 7    1  0.2328810E-008  0.4614232E+02  0.7816164E-02  0.1320468E+00
        -11   -1    0    0    0    0  0.00000000000E+00  0.00000000000E+00  0.45593999997E+02  0.45594000000E+02  0.51100000000E-03 0.  1.
         11   -1    0    0    0    0 -0.00000000000E+00 -0.00000000000E+00 -0.45593999997E+02  0.45594000000E+02  0.51100000000E-03 0. -1.
    9900012    2    1    2    0    0  0.10696565368E+02  0.31116677488E+02  0.30764418796E+02  0.46142316606E+02  0.99999894679E+01 0.  0.
         12    1    1    2    0    0 -0.10696565368E+02 -0.31116677488E+02 -0.30764418796E+02  0.45045683394E+02  0.00000000000E+00 0. -1.
         11    1    3    3    0    0  0.44726230858E+00  0.44942708498E+01  0.11440767016E+01  0.46591228578E+01  0.51100000000E-03 0. -1.
        -11    1    3    3    0    0  0.94974314009E+01  0.18062149592E+02  0.19797567336E+02  0.28432131889E+02  0.51100000000E-03 0.  1.
         12    1    3    3    0    0  0.75187165853E+00  0.85602570464E+01  0.98227747584E+01  0.13051061859E+02  0.00000000000E+00 0. -1.
</event>
<event>
 7    1  0.2328810E-008  0.4614232E+02  0.7816164E-02  0.1320468E+00
        -11   -1    0    0    0    0  0.00000000000E+00  0.00000000000E+00  0.45593999997E+02  0.45594000000E+02  0.51100000000E-03 0.  1.
         11   -1    0    0    0    0 -0.00000000000E+00 -0.00000000000E+00 -0.45593999997E+02  0.45594000000E+02  0.51100000000E-03 0. -1.
    9900012    2    1    2    0    0  0.44904274998E+02 -0.27558203758E+01  0.22638571920E+01  0.46142317539E+02  0.99999979738E+01 0.  0.
         12    1    1    2    0    0 -0.44904274998E+02  0.27558203758E+01 -0.22638571920E+01  0.45045682461E+02  0.00000000000E+00 0. -1.
         11    1    3    3    0    0  0.27766361066E+01 -0.69315535338E+00 -0.10981620073E+01  0.30653111535E+01  0.51100000000E-03 0. -1.
        -11    1    3    3    0    0  0.33916336446E+02  0.15793355172E+01  0.22842645674E+01  0.34029840486E+02  0.51100000000E-03 0.  1.
         12    1    3    3    0    0  0.82113024447E+01 -0.36420005396E+01  0.10777546319E+01  0.90471658996E+01  0.00000000000E+00 0. -1.
</event>
<event>
 7    1  0.2328810E-008  0.4614232E+02  0.7816164E-02  0.1320468E+00
        -11   -1    0    0    0    0  0.00000000000E+00  0.00000000000E+00  0.45593999997E+02  0.45594000000E+02  0.51100000000E-03 0.  1.
         11   -1    0    0    0    0 -0.00000000000E+00 -0.00000000000E+00 -0.45593999997E+02  0.45594000000E+02  0.51100000000E-03 0. -1.
    9900012    2    1    2    0    0 -0.15412920400E+02  0.24631743568E+02  0.34421398088E+02  0.46142317046E+02  0.99999934796E+01 0.  0.
         12    1    1    2    0    0  0.15412920400E+02 -0.24631743568E+02 -0.34421398088E+02  0.45045682954E+02  0.00000000000E+00 0. -1.
         11    1    3    3    0    0  0.45795455663E+00  0.43013840697E+00  0.91061073830E-01  0.63484943521E+00  0.51100000000E-03 0. -1.
        -11    1    3    3    0    0 -0.25107387326E+01  0.73207745274E+00  0.49682635686E+01  0.56145693983E+01  0.51100000000E-03 0.  1.
         12    1    3    3    0    0 -0.13360136224E+02  0.23469527708E+02  0.29362073446E+02  0.39892898213E+02  0.00000000000E+00 0. -1.
</event>
<event>
 7    1  0.2328810E-008  0.4614232E+02  0.7816164E-02  0.1320468E+00
        -11   -1    0    0    0    0  0.00000000000E+00  0.00000000000E+00  0.45593999997E+02  0.45594000000E+02  0.51100000000E-03 0.  1.
         11   -1    0    0    0    0 -0.00000000000E+00 -0.00000000000E+00 -0.45593999997E+02  0.45594000000E+02  0.51100000000E-03 0. -1.
    9900012    2    1    2    0    0  0.27500224628E+02 -0.24370686754E+02  0.26056108013E+02  0.46142317718E+02  0.99999996057E+01 0.  0.
         12    1    1    2    0    0 -0.27500224628E+02  0.24370686754E+02 -0.26056108013E+02  0.45045682282E+02  0.00000000000E+00 0. -1.
         11    1    3    3    0    0  0.11971795615E+01 -0.27507109919E+00  0.34758583582E+01  0.36865288008E+01  0.51100000000E-03 0. -1.
        -11    1    3    3    0    0  0.18835133063E+02 -0.19783026103E+02  0.17664006208E+02  0.32529178823E+02  0.51100000000E-03 0.  1.
        -12    1    3    3    0    0  0.74679120034E+01 -0.43125895521E+01  0.49162434463E+01  0.99266100941E+01  0.00000000000E+00 0.  1.
</event>
<event>
 7    1  0.2328810E-008  0.4614232E+02  0.7816164E-02  0.1320468E+00
        -11   -1    0    0    0    0  0.00000000000E+00  0.00000000000E+00  0.45593999997E+02  0.45594000000E+02  0.51100000000E-03 0. -1.
         11   -1    0    0    0    0 -0.00000000000E+00 -0.00000000000E+00 -0.45593999997E+02  0.45594000000E+02  0.51100000000E-03 0.  1.
    9900012    2    1    2    0    0  0.34335008308E+02  0.21165978853E+02 -0.20055477107E+02  0.46142316319E+02  0.99999868524E+01 0.  0.
         12    1    1    2    0    0 -0.34335008308E+02 -0.21165978853E+02  0.20055477107E+02  0.45045683681E+02  0.00000000000E+00 0. -1.
         11    1    3    3    0    0  0.21639198769E+02  0.17181147833E+02 -0.12936510830E+02  0.30509016322E+02  0.51100000000E-03 0. -1.
        -11    1    3    3    0    0  0.62282570988E+01  0.37289732273E+01 -0.24846514049E+01  0.76726736333E+01  0.51100000000E-03 0.  1.
         12    1    3    3    0    0  0.64675524401E+01  0.25585779211E+00 -0.46343148714E+01  0.79606263638E+01  0.00000000000E+00 0. -1.
</event>
<event>
 7    1  0.2328810E-008  0.4614232E+02  0.7816164E-02  0.1320468E+00
        -11   -1    0    0    0    0  0.00000000000E+00  0.00000000000E+00  0.45593999997E+02  0.45594000000E+02  0.51100000000E-03 0.  1.
         11   -1    0    0    0    0 -0.00000000000E+00 -0.00000000000E+00 -0.45593999997E+02  0.45594000000E+02  0.51100000000E-03 0. -1.
    9900012    2    1    2    0    0  0.85878524208E+01 -0.33010875376E+01  0.44096090299E+02  0.46142316880E+02  0.99999919632E+01 0.  0.
         12    1    1    2    0    0 -0.85878524208E+01  0.33010875376E+01 -0.44096090299E+02  0.45045683120E+02  0.00000000000E+00 0. -1.
         11    1    3    3    0    0 -0.78965797398E+00 -0.10634201101E+01  0.18714432912E+01  0.22927543043E+01  0.51100000000E-03 0. -1.
        -11    1    3    3    0    0  0.92225207336E-01 -0.18841983996E+01  0.30359073032E+01  0.35742751031E+01  0.51100000000E-03 0.  1.
        -12    1    3    3    0    0  0.92852851875E+01 -0.35346902787E+00  0.39188739704E+02  0.40275287472E+02  0.00000000000E+00 0.  1.
</event>
<event>
 7    1  0.2328810E-008  0.4614232E+02  0.7816164E-02  0.1320468E+00
        -11   -1    0    0    0    0  0.00000000000E+00  0.00000000000E+00  0.45593999997E+02  0.45594000000E+02  0.51100000000E-03 0. -1.
         11   -1    0    0    0    0 -0.00000000000E+00 -0.00000000000E+00 -0.45593999997E+02  0.45594000000E+02  0.51100000000E-03 0.  1.
    9900012    2    1    2    0    0 -0.93519527389E+01 -0.34601414083E+02 -0.27283633111E+02  0.46142317496E+02  0.99999975811E+01 0.  0.
         12    1    1    2    0    0  0.93519527389E+01  0.34601414083E+02  0.27283633111E+02  0.45045682504E+02  0.00000000000E+00 0. -1.
         11    1    3    3    0    0 -0.73083727589E+00  0.29437601460E+00 -0.80511285306E+00  0.11264933773E+01  0.51100000000E-03 0. -1.
        -11    1    3    3    0    0 -0.53811747375E+01 -0.10848711619E+02 -0.79545057765E+01  0.14488814574E+02  0.51100000000E-03 0.  1.
        -12    1    3    3    0    0 -0.32399407255E+01 -0.24047078478E+02 -0.18524014481E+02  0.30527009544E+02  0.00000000000E+00 0.  1.
</event>
<event>
 7    1  0.2328810E-008  0.4614232E+02  0.7816164E-02  0.1320468E+00
        -11   -1    0    0    0    0  0.00000000000E+00  0.00000000000E+00  0.45593999997E+02  0.45594000000E+02  0.51100000000E-03 0. -1.
         11   -1    0    0    0    0 -0.00000000000E+00 -0.00000000000E+00 -0.45593999997E+02  0.45594000000E+02  0.51100000000E-03 0.  1.
    9900012    2    1    2    0    0 -0.33765051155E+02  0.24497300492E+02 -0.16997559770E+02  0.46142318198E+02  0.10000003980E+02 0.  0.
         12    1    1    2    0    0  0.33765051155E+02 -0.24497300492E+02  0.16997559770E+02  0.45045681802E+02  0.00000000000E+00 0. -1.
         11    1    3    3    0    0 -0.21068468045E+02  0.17721312996E+02 -0.67478508924E+01  0.28345348330E+02  0.51100000000E-03 0. -1.
        -11    1    3    3    0    0 -0.85975339433E+01  0.49014012038E+01 -0.58394454242E+01  0.11490885379E+02  0.51100000000E-03 0.  1.
        -12    1    3    3    0    0 -0.40990491672E+01  0.18745862922E+01 -0.44102634539E+01  0.63060844884E+01  0.00000000000E+00 0.  1.
</event>
<event>
 7    1  0.2328810E-008  0.4614232E+02  0.7816164E-02  0.1320468E+00
        -11   -1    0    0    0    0  0.00000000000E+00  0.00000000000E+00  0.45593999997E+02  0.45594000000E+02  0.51100000000E-03 0.  1.
         11   -1    0    0    0    0 -0.00000000000E+00 -0.00000000000E+00 -0.45593999997E+02  0.45594000000E+02  0.51100000000E-03 0. -1.
    9900012    2    1    2    0    0  0.36024626617E+02  0.68927236911E+01  0.26150144095E+02  0.46142318753E+02  0.10000009049E+02 0.  0.
         12    1    1    2    0    0 -0.36024626617E+02 -0.68927236911E+01 -0.26150144095E+02  0.45045681247E+02  0.00000000000E+00 0. -1.
         11    1    3    3    0    0  0.20425268477E+02  0.46538544022E+01  0.14404150980E+02  0.25423011601E+02  0.51100000000E-03 0. -1.
        -11    1    3    3    0    0  0.87915956097E+01  0.20276781054E+01  0.27429117788E+01  0.94301217994E+01  0.51100000000E-03 0.  1.
         12    1    3    3    0    0  0.68077625305E+01  0.21119118351E+00  0.90030813367E+01  0.11289185353E+02  0.00000000000E+00 0. -1.
</event>
<event>
 7    1  0.2328810E-008  0.4614232E+02  0.7816164E-02  0.1320468E+00
        -11   -1    0    0    0    0  0.00000000000E+00  0.00000000000E+00  0.45593999997E+02  0.45594000000E+02  0.51100000000E-03 0. -1.
         11   -1    0    0    0    0 -0.00000000000E+00 -0.00000000000E+00 -0.45593999997E+02  0.45594000000E+02  0.51100000000E-03 0.  1.
    9900012    2    1    2    0    0 -0.11695127852E+02 -0.13254909778E+02 -0.41432413903E+02  0.46142316849E+02  0.99999916860E+01 0.  0.
         12    1    1    2    0    0  0.11695127852E+02  0.13254909778E+02  0.41432413903E+02  0.45045683151E+02  0.00000000000E+00 0. -1.
         11    1    3    3    0    0 -0.34989860419E+00 -0.18225060682E+00 -0.50734397367E+01  0.50887557753E+01  0.51100000000E-03 0. -1.
        -11    1    3    3    0    0 -0.35678792499E+01 -0.10125756219E+02 -0.19803396905E+02  0.22526323059E+02  0.51100000000E-03 0.  1.
         12    1    3    3    0    0 -0.77773499981E+01 -0.29469029523E+01 -0.16555577261E+02  0.18527238015E+02  0.00000000000E+00 0. -1.
</event>
<event>
 7    1  0.2328810E-008  0.4614232E+02  0.7816164E-02  0.1320468E+00
        -11   -1    0    0    0    0  0.00000000000E+00  0.00000000000E+00  0.45593999997E+02  0.45594000000E+02  0.51100000000E-03 0.  1.
         11   -1    0    0    0    0 -0.00000000000E+00 -0.00000000000E+00 -0.45593999997E+02  0.45594000000E+02  0.51100000000E-03 0. -1.
    9900012    2    1    2    0    0  0.73052525509E+01 -0.13558801759E+02  0.42330907116E+02  0.46142317441E+02  0.99999970777E+01 0.  0.
         12    1    1    2    0    0 -0.73052525509E+01  0.13558801759E+02 -0.42330907116E+02  0.45045682559E+02  0.00000000000E+00 0. -1.
         11    1    3    3    0    0  0.35335810255E+00 -0.51094154426E+01  0.22399582482E+02  0.22977647481E+02  0.51100000000E-03 0. -1.
        -11    1    3    3    0    0  0.23164666704E+01 -0.38168491502E+01  0.12410421059E+02  0.13189120759E+02  0.51100000000E-03 0.  1.
        -12    1    3    3    0    0  0.46354277780E+01 -0.46325371659E+01  0.75209035753E+01  0.99755492012E+01  0.00000000000E+00 0.  1.
</event>
<event>
 7    1  0.2328810E-008  0.4614232E+02  0.7816164E-02  0.1320468E+00
        -11   -1    0    0    0    0  0.00000000000E+00  0.00000000000E+00  0.45593999997E+02  0.45594000000E+02  0.51100000000E-03 0. -1.
         11   -1    0    0    0    0 -0.00000000000E+00 -0.00000000000E+00 -0.45593999997E+02  0.45594000000E+02  0.51100000000E-03 0.  1.
    9900012    2    1    2    0    0 -0.24696852290E+01  0.11820499089E+01 -0.44962393955E+02  0.46142318106E+02  0.10000003147E+02 0.  0.
         12    1    1    2    0    0  0.24696852290E+01 -0.11820499089E+01  0.44962393955E+02  0.45045681894E+02  0.00000000000E+00 0. -1.
         11    1    3    3    0    0  0.10704969264E+01  0.32032617925E+00 -0.12366180084E+02  0.12416560823E+02  0.51100000000E-03 0. -1.
        -11    1    3    3    0    0  0.19543653712E+01  0.81770571818E+00 -0.33198741598E+01  0.39382421642E+01  0.51100000000E-03 0.  1.
        -12    1    3    3    0    0 -0.54945475267E+01  0.44018011461E-01 -0.29276339711E+02  0.29787515119E+02  0.00000000000E+00 0.  1.
</event>
<event>
 7    1  0.2328810E-008  0.4614232E+02  0.7816164E-02  0.1320468E+00
        -11   -1    0    0    0    0  0.00000000000E+00  0.00000000000E+00  0.45593999997E+02  0.45594000000E+02  0.51100000000E-03 0.  1.
         11   -1    0    0    0    0 -0.00000000000E+00 -0.00000000000E+00 -0.45593999997E+02  0.45594000000E+02  0.51100000000E-03 0. -1.
    9900012    2    1    2    0    0  0.38012386217E+01  0.39631618286E+02  0.21071284889E+02  0.46142316190E+02  0.99999856725E+01 0.  0.
         12    1    1    2    0    0 -0.38012386217E+01 -0.39631618286E+02 -0.21071284889E+02  0.45045683810E+02  0.00000000000E+00 0. -1.
         11    1    3    3    0    0 -0.93494937423E+00  0.95578713770E+01  0.45739310249E+01  0.10637099270E+02  0.51100000000E-03 0. -1.
        -11    1    3    3    0    0  0.36342466342E+01  0.18844505813E+02  0.14483788314E+02  0.24043778242E+02  0.51100000000E-03 0.  1.
         12    1    3    3    0    0  0.11019413618E+01  0.11229241096E+02  0.20135655497E+01  0.11461438678E+02  0.00000000000E+00 0. -1.
</event>
<event>
 7    1  0.2328810E-008  0.4614232E+02  0.7816164E-02  0.1320468E+00
        -11   -1    0    0    0    0  0.00000000000E+00  0.00000000000E+00  0.45593999997E+02  0.45594000000E+02  0.51100000000E-03 0. -1.
         11   -1    0    0    0    0 -0.00000000000E+00 -0.00000000000E+00 -0.45593999997E+02  0.45594000000E+02  0.51100000000E-03 0.  1.
    9900012    2    1    2    0    0 -0.14958194258E+02 -0.39613977544E+02 -0.15365505533E+02  0.46142317049E+02  0.99999935022E+01 0.  0.
         12    1    1    2    0    0  0.14958194258E+02  0.39613977544E+02  0.15365505533E+02  0.45045682951E+02  0.00000000000E+00 0. -1.
         11    1    3    3    0    0 -0.10879824616E+02 -0.28187943696E+02 -0.80805765962E+01  0.31276612219E+02  0.51100000000E-03 0. -1.
        -11    1    3    3    0    0 -0.40566820008E+01 -0.90041752819E+01 -0.37143795925E+01  0.10551230136E+02  0.51100000000E-03 0.  1.
        -12    1    3    3    0    0 -0.21687641154E-01 -0.24218585656E+01 -0.35705493442E+01  0.43144746940E+01  0.00000000000E+00 0.  1.
</event>
<event>
 7    1  0.2328810E-008  0.4614232E+02  0.7816164E-02  0.1320468E+00
        -11   -1    0    0    0    0  0.00000000000E+00  0.00000000000E+00  0.45593999997E+02  0.45594000000E+02  0.51100000000E-03 0.  1.
         11   -1    0    0    0    0 -0.00000000000E+00 -0.00000000000E+00 -0.45593999997E+02  0.45594000000E+02  0.51100000000E-03 0. -1.
    9900012    2    1    2    0    0  0.30807699901E+02  0.21086668367E+01  0.32795618665E+02  0.46142318158E+02  0.10000003616E+02 0.  0.
         12    1    1    2    0    0 -0.30807699901E+02 -0.21086668367E+01 -0.32795618665E+02  0.45045681842E+02  0.00000000000E+00 0. -1.
         11    1    3    3    0    0  0.63946861967E+01  0.16156791409E+01  0.93846240698E+01  0.11470553597E+02  0.51100000000E-03 0.  1.
        -11    1    3    3    0    0  0.10028977960E+02 -0.26171404263E+01  0.64132151634E+01  0.12188484398E+02  0.51100000000E-03 0. -1.
         12    1    3    3    0    0  0.14384035745E+02  0.31101281221E+01  0.16997779432E+02  0.22483280162E+02  0.00000000000E+00 0. -1.
</event>
<event>
 7    1  0.2328810E-008  0.4614232E+02  0.7816164E-02  0.1320468E+00
        -11   -1    0    0    0    0  0.00000000000E+00  0.00000000000E+00  0.45593999997E+02  0.45594000000E+02  0.51100000000E-03 0.  1.
         11   -1    0    0    0    0 -0.00000000000E+00 -0.00000000000E+00 -0.45593999997E+02  0.45594000000E+02  0.51100000000E-03 0. -1.
    9900012    2    1    2    0    0  0.14220303040E+02 -0.70990406523E+01  0.42148548043E+02  0.46142317645E+02  0.99999989394E+01 0.  0.
         12    1    1    2    0    0 -0.14220303040E+02  0.70990406523E+01 -0.42148548043E+02  0.45045682355E+02  0.00000000000E+00 0. -1.
         11    1    3    3    0    0  0.92027884356E+01 -0.24923696455E+01  0.18471499091E+02  0.20787003160E+02  0.51100000000E-03 0.  1.
        -11    1    3    3    0    0  0.49405700027E+01 -0.56494028588E+00  0.11644537214E+02  0.12661897041E+02  0.51100000000E-03 0. -1.
         12    1    3    3    0    0  0.76944601429E-01 -0.40417307209E+01  0.12032511738E+02  0.12693417445E+02  0.00000000000E+00 0. -1.
</event>
<event>
 7    1  0.2328810E-008  0.4614232E+02  0.7816164E-02  0.1320468E+00
        -11   -1    0    0    0    0  0.00000000000E+00  0.00000000000E+00  0.45593999997E+02  0.45594000000E+02  0.51100000000E-03 0. -1.
         11   -1    0    0    0    0 -0.00000000000E+00 -0.00000000000E+00 -0.45593999997E+02  0.45594000000E+02  0.51100000000E-03 0.  1.
    9900012    2    1    2    0    0  0.99086969277E+01 -0.43825133620E+02 -0.32076128051E+01  0.46142318836E+02  0.10000009806E+02 0.  0.
         12    1    1    2    0    0 -0.99086969277E+01  0.43825133620E+02  0.32076128051E+01  0.45045681164E+02  0.00000000000E+00 0. -1.
         11    1    3    3    0    0  0.13000851210E+01 -0.55081654280E+01 -0.34562158470E+01  0.66314052768E+01  0.51100000000E-03 0. -1.
        -11    1    3    3    0    0  0.74042391621E+01 -0.30668763387E+02 -0.14543321614E+01  0.31583395758E+02  0.51100000000E-03 0.  1.
         12    1    3    3    0    0  0.12043726447E+01 -0.76482048042E+01  0.17029352033E+01  0.79275178020E+01  0.00000000000E+00 0. -1.
</event>
<event>
 7    1  0.2328810E-008  0.4614232E+02  0.7816164E-02  0.1320468E+00
        -11   -1    0    0    0    0  0.00000000000E+00  0.00000000000E+00  0.45593999997E+02  0.45594000000E+02  0.51100000000E-03 0.  1.
         11   -1    0    0    0    0 -0.00000000000E+00 -0.00000000000E+00 -0.45593999997E+02  0.45594000000E+02  0.51100000000E-03 0. -1.
    9900012    2    1    2    0    0  0.11316246923E+02  0.17376819395E+02  0.39988768456E+02  0.46142324299E+02  0.10000059619E+02 0.  0.
         12    1    1    2    0    0 -0.11316246923E+02 -0.17376819395E+02 -0.39988768456E+02  0.45045675701E+02  0.00000000000E+00 0. -1.
         11    1    3    3    0    0  0.26472505219E+01  0.74795309611E+01  0.98369218476E+01  0.12637893433E+02  0.51100000000E-03 0. -1.
        -11    1    3    3    0    0  0.17880366045E+01  0.55371811164E+01  0.79241214720E+01  0.98310300060E+01  0.51100000000E-03 0.  1.
         12    1    3    3    0    0  0.68809597963E+01  0.43601073172E+01  0.22227725137E+02  0.23673400860E+02  0.00000000000E+00 0. -1.
</event>
<event>
 7    1  0.2328810E-008  0.4614232E+02  0.7816164E-02  0.1320468E+00
        -11   -1    0    0    0    0  0.00000000000E+00  0.00000000000E+00  0.45593999997E+02  0.45594000000E+02  0.51100000000E-03 0.  1.
         11   -1    0    0    0    0 -0.00000000000E+00 -0.00000000000E+00 -0.45593999997E+02  0.45594000000E+02  0.51100000000E-03 0. -1.
    9900012    2    1    2    0    0 -0.26047364054E+01 -0.27971229342E+02  0.35212763826E+02  0.46142322528E+02  0.10000043466E+02 0.  0.
         12    1    1    2    0    0  0.26047364054E+01  0.27971229342E+02 -0.35212763826E+02  0.45045677472E+02  0.00000000000E+00 0. -1.
         11    1    3    3    0    0  0.26509871275E+01 -0.67285052060E+01  0.78700116898E+01  0.10688199068E+02  0.51100000000E-03 0. -1.
        -11    1    3    3    0    0 -0.46986718212E+01 -0.77480849798E+01  0.11185663644E+02  0.14395464881E+02  0.51100000000E-03 0.  1.
        -12    1    3    3    0    0 -0.55705171178E+00 -0.13494639156E+02  0.16157088493E+02  0.21058658579E+02  0.00000000000E+00 0.  1.
</event>
<event>
 7    1  0.2328810E-008  0.4614232E+02  0.7816164E-02  0.1320468E+00
        -11   -1    0    0    0    0  0.00000000000E+00  0.00000000000E+00  0.45593999997E+02  0.45594000000E+02  0.51100000000E-03 0.  1.
         11   -1    0    0    0    0 -0.00000000000E+00 -0.00000000000E+00 -0.45593999997E+02  0.45594000000E+02  0.51100000000E-03 0. -1.
    9900012    2    1    2    0    0  0.43734187793E+02  0.60471899024E+01 -0.89367443981E+01  0.46142322204E+02  0.10000040515E+02 0.  0.
         12    1    1    2    0    0 -0.43734187793E+02 -0.60471899024E+01  0.89367443981E+01  0.45045677796E+02  0.00000000000E+00 0. -1.
         11    1    3    3    0    0  0.80831966696E+01  0.96605318592E+00  0.10231129268E+01  0.82047600501E+01  0.51100000000E-03 0. -1.
        -11    1    3    3    0    0  0.78965767538E+01  0.29602155106E+01 -0.18312629761E+00  0.84351843963E+01  0.51100000000E-03 0.  1.
        -12    1    3    3    0    0  0.27754414370E+02  0.21209212059E+01 -0.97767310273E+01  0.29502377758E+02  0.00000000000E+00 0.  1.
</event>
<event>
 7    1  0.2328810E-008  0.4614232E+02  0.7816164E-02  0.1320468E+00
        -11   -1    0    0    0    0  0.00000000000E+00  0.00000000000E+00  0.45593999997E+02  0.45594000000E+02  0.51100000000E-03 0.  1.
         11   -1    0    0    0    0 -0.00000000000E+00 -0.00000000000E+00 -0.45593999997E+02  0.45594000000E+02  0.51100000000E-03 0. -1.
    9900012    2    1    2    0    0  0.76194589513E+01  0.29049362305E+02  0.33573678455E+02  0.46142317743E+02  0.99999998329E+01 0.  0.
         12    1    1    2    0    0 -0.76194589513E+01 -0.29049362305E+02 -0.33573678455E+02  0.45045682257E+02  0.00000000000E+00 0. -1.
         11    1    3    3    0    0 -0.82517792489E+00  0.20921442517E+01  0.86385823491E+00  0.24091985159E+01  0.51100000000E-03 0. -1.
        -11    1    3    3    0    0  0.86571067981E+00  0.27488908344E+01  0.84335361926E+00  0.30028488788E+01  0.51100000000E-03 0.  1.
        -12    1    3    3    0    0  0.75789261963E+01  0.24208327219E+02  0.31866466601E+02  0.40730270348E+02  0.00000000000E+00 0.  1.
</event>
<event>
 7    1  0.2328810E-008  0.4614232E+02  0.7816164E-02  0.1320468E+00
        -11   -1    0    0    0    0  0.00000000000E+00  0.00000000000E+00  0.45593999997E+02  0.45594000000E+02  0.51100000000E-03 0.  1.
         11   -1    0    0    0    0 -0.00000000000E+00 -0.00000000000E+00 -0.45593999997E+02  0.45594000000E+02  0.51100000000E-03 0. -1.
    9900012    2    1    2    0    0 -0.19186266385E+02  0.12770005749E+02  0.38703072826E+02  0.46142315293E+02  0.99999774893E+01 0.  0.
         12    1    1    2    0    0  0.19186266385E+02 -0.12770005749E+02 -0.38703072826E+02  0.45045684707E+02  0.00000000000E+00 0. -1.
         11    1    3    3    0    0 -0.62118642203E+01  0.14637883588E+01  0.11286198290E+02  0.12965654845E+02  0.51100000000E-03 0. -1.
        -11    1    3    3    0    0 -0.12736390132E+02  0.79895874042E+01  0.24541006967E+02  0.28780378102E+02  0.51100000000E-03 0.  1.
        -12    1    3    3    0    0 -0.23801203235E+00  0.33166299857E+01  0.28758675689E+01  0.43962823457E+01  0.00000000000E+00 0.  1.
</event>
<event>
 7    1  0.2328810E-008  0.4614232E+02  0.7816164E-02  0.1320468E+00
        -11   -1    0    0    0    0  0.00000000000E+00  0.00000000000E+00  0.45593999997E+02  0.45594000000E+02  0.51100000000E-03 0.  1.
         11   -1    0    0    0    0 -0.00000000000E+00 -0.00000000000E+00 -0.45593999997E+02  0.45594000000E+02  0.51100000000E-03 0. -1.
    9900012    2    1    2    0    0  0.14119353936E+01  0.23056967929E+02  0.38671647070E+02  0.46142316314E+02  0.99999868050E+01 0.  0.
         12    1    1    2    0    0 -0.14119353936E+01 -0.23056967929E+02 -0.38671647070E+02  0.45045683686E+02  0.00000000000E+00 0. -1.
         11    1    3    3    0    0 -0.83126072552E+00  0.23051952214E+01  0.19208433066E+01  0.31136086254E+01  0.51100000000E-03 0. -1.
        -11    1    3    3    0    0 -0.23467336668E+01  0.12449223170E+02  0.23969353594E+02  0.27111256489E+02  0.51100000000E-03 0.  1.
        -12    1    3    3    0    0  0.45899297859E+01  0.83025495373E+01  0.12781450169E+02  0.15917451199E+02  0.00000000000E+00 0.  1.
</event>
<event>
 7    1  0.2328810E-008  0.4614232E+02  0.7816164E-02  0.1320468E+00
        -11   -1    0    0    0    0  0.00000000000E+00  0.00000000000E+00  0.45593999997E+02  0.45594000000E+02  0.51100000000E-03 0.  1.
         11   -1    0    0    0    0 -0.00000000000E+00 -0.00000000000E+00 -0.45593999997E+02  0.45594000000E+02  0.51100000000E-03 0. -1.
    9900012    2    1    2    0    0 -0.44651182139E+02  0.34674558580E+01  0.48334511514E+01  0.46142316893E+02  0.99999920855E+01 0.  0.
         12    1    1    2    0    0  0.44651182139E+02 -0.34674558580E+01 -0.48334511514E+01  0.45045683107E+02  0.00000000000E+00 0. -1.
         11    1    3    3    0    0 -0.52691876960E+01  0.16721412027E+01 -0.19089926410E+01  0.58484740182E+01  0.51100000000E-03 0. -1.
        -11    1    3    3    0    0 -0.10677612242E+02  0.12304820229E+01 -0.22469484888E+00  0.10750626830E+02  0.51100000000E-03 0.  1.
         12    1    3    3    0    0 -0.28704382201E+02  0.56483263245E+00  0.69671386413E+01  0.29543216045E+02  0.00000000000E+00 0. -1.
</event>
<event>
 7    1  0.2328810E-008  0.4614232E+02  0.7816164E-02  0.1320468E+00
        -11   -1    0    0    0    0  0.00000000000E+00  0.00000000000E+00  0.45593999997E+02  0.45594000000E+02  0.51100000000E-03 0.  1.
         11   -1    0    0    0    0 -0.00000000000E+00 -0.00000000000E+00 -0.45593999997E+02  0.45594000000E+02  0.51100000000E-03 0. -1.
    9900012    2    1    2    0    0 -0.12038833619E+02 -0.42578699097E+02  0.84400352307E+01  0.46142319559E+02  0.10000016394E+02 0.  0.
         12    1    1    2    0    0  0.12038833619E+02  0.42578699097E+02 -0.84400352307E+01  0.45045680441E+02  0.00000000000E+00 0. -1.
         11    1    3    3    0    0 -0.19306962320E+01 -0.67406769447E+01  0.25659818655E+01  0.74664969569E+01  0.51100000000E-03 0. -1.
        -11    1    3    3    0    0 -0.10325182145E+02 -0.28863616170E+02  0.20606446805E+01  0.30723996835E+02  0.51100000000E-03 0.  1.
         12    1    3    3    0    0  0.21704475838E+00 -0.69744059825E+01  0.38134086847E+01  0.79518257673E+01  0.00000000000E+00 0. -1.
</event>
<event>
 7    1  0.2328810E-008  0.4614232E+02  0.7816164E-02  0.1320468E+00
        -11   -1    0    0    0    0  0.00000000000E+00  0.00000000000E+00  0.45593999997E+02  0.45594000000E+02  0.51100000000E-03 0.  1.
         11   -1    0    0    0    0 -0.00000000000E+00 -0.00000000000E+00 -0.45593999997E+02  0.45594000000E+02  0.51100000000E-03 0. -1.
    9900012    2    1    2    0    0  0.21116446973E+02  0.33320348692E+02  0.21747720150E+02  0.46142319836E+02  0.10000018919E+02 0.  0.
         12    1    1    2    0    0 -0.21116446973E+02 -0.33320348692E+02 -0.21747720150E+02  0.45045680164E+02  0.00000000000E+00 0. -1.
         11    1    3    3    0    0  0.13883206871E+02  0.17440134508E+02  0.94772157517E+01  0.24222290217E+02  0.51100000000E-03 0. -1.
        -11    1    3    3    0    0  0.23206720939E+01  0.56831270176E+01  0.73545911658E+01  0.95798467181E+01  0.51100000000E-03 0.  1.
        -12    1    3    3    0    0  0.49125680081E+01  0.10197087167E+02  0.49159132320E+01  0.12340182901E+02  0.00000000000E+00 0.  1.
</event>
<event>
 7    1  0.2328810E-008  0.4614232E+02  0.7816164E-02  0.1320468E+00
        -11   -1    0    0    0    0  0.00000000000E+00  0.00000000000E+00  0.45593999997E+02  0.45594000000E+02  0.51100000000E-03 0.  1.
         11   -1    0    0    0    0 -0.00000000000E+00 -0.00000000000E+00 -0.45593999997E+02  0.45594000000E+02  0.51100000000E-03 0. -1.
    9900012    2    1    2    0    0  0.16177263955E+02 -0.68934442409E+01  0.41471558193E+02  0.46142316727E+02  0.99999905684E+01 0.  0.
         12    1    1    2    0    0 -0.16177263955E+02  0.68934442409E+01 -0.41471558193E+02  0.45045683273E+02  0.00000000000E+00 0. -1.
         11    1    3    3    0    0  0.99071368070E+01 -0.26225832799E+01  0.19110424303E+02  0.21684962994E+02  0.51100000000E-03 0. -1.
        -11    1    3    3    0    0  0.64271534037E+01 -0.12610170142E+01  0.18012806839E+02  0.19166629209E+02  0.51100000000E-03 0.  1.
        -12    1    3    3    0    0 -0.15702625559E+00 -0.30098439468E+01  0.43483270518E+01  0.52907245230E+01  0.00000000000E+00 0.  1.
</event>
<event>
 7    1  0.2328810E-008  0.4614232E+02  0.7816164E-02  0.1320468E+00
        -11   -1    0    0    0    0  0.00000000000E+00  0.00000000000E+00  0.45593999997E+02  0.45594000000E+02  0.51100000000E-03 0.  1.
         11   -1    0    0    0    0 -0.00000000000E+00 -0.00000000000E+00 -0.45593999997E+02  0.45594000000E+02  0.51100000000E-03 0. -1.
    9900012    2    1    2    0    0  0.28980509296E+02 -0.76683914249E+01  0.33622007741E+02  0.46142317070E+02  0.99999936948E+01 0.  0.
         12    1    1    2    0    0 -0.28980509296E+02  0.76683914249E+01 -0.33622007741E+02  0.45045682930E+02  0.00000000000E+00 0. -1.
         11    1    3    3    0    0  0.33274210684E+01 -0.33875727041E+01  0.28581137861E+01  0.55422192728E+01  0.51100000000E-03 0. -1.
        -11    1    3    3    0    0  0.33141263661E+01 -0.21399537735E+01  0.59986389942E+01  0.71795895264E+01  0.51100000000E-03 0.  1.
        -12    1    3    3    0    0  0.22338961862E+02 -0.21408649472E+01  0.24765254961E+02  0.33420508270E+02  0.00000000000E+00 0.  1.
</event>
<event>
 7    1  0.2328810E-008  0.4614232E+02  0.7816164E-02  0.1320468E+00
        -11   -1    0    0    0    0  0.00000000000E+00  0.00000000000E+00  0.45593999997E+02  0.45594000000E+02  0.51100000000E-03 0. -1.
         11   -1    0    0    0    0 -0.00000000000E+00 -0.00000000000E+00 -0.45593999997E+02  0.45594000000E+02  0.51100000000E-03 0.  1.
    9900012    2    1    2    0    0 -0.12163267020E+02  0.21697744789E+02 -0.37554978080E+02  0.46142316831E+02  0.99999915201E+01 0.  0.
         12    1    1    2    0    0  0.12163267020E+02 -0.21697744789E+02  0.37554978080E+02  0.45045683169E+02  0.00000000000E+00 0. -1.
         11    1    3    3    0    0 -0.61536873012E+01  0.14778440354E+02 -0.19073949015E+02  0.24901519994E+02  0.51100000000E-03 0. -1.
        -11    1    3    3    0    0 -0.29071433527E+01  0.47458571840E+00 -0.82284612491E+01  0.87398105738E+01  0.51100000000E-03 0.  1.
        -12    1    3    3    0    0 -0.31024363663E+01  0.64447187166E+01 -0.10252567816E+02  0.12500986264E+02  0.00000000000E+00 0.  1.
</event>
<event>
 7    1  0.2328810E-008  0.4614232E+02  0.7816164E-02  0.1320468E+00
        -11   -1    0    0    0    0  0.00000000000E+00  0.00000000000E+00  0.45593999997E+02  0.45594000000E+02  0.51100000000E-03 0. -1.
         11   -1    0    0    0    0 -0.00000000000E+00 -0.00000000000E+00 -0.45593999997E+02  0.45594000000E+02  0.51100000000E-03 0.  1.
    9900012    2    1    2    0    0  0.44326947118E+02  0.69731741251E+01 -0.39509570103E+01  0.46142318082E+02  0.10000002924E+02 0.  0.
         12    1    1    2    0    0 -0.44326947118E+02 -0.69731741251E+01  0.39509570103E+01  0.45045681918E+02  0.00000000000E+00 0. -1.
         11    1    3    3    0    0  0.35508274558E+00  0.80779237910E+00 -0.94472932878E+00  0.12927204066E+01  0.51100000000E-03 0. -1.
        -11    1    3    3    0    0  0.34613403487E+02  0.51679600654E+01 -0.46202466235E+01  0.35300739246E+02  0.51100000000E-03 0.  1.
         12    1    3    3    0    0  0.93584608859E+01  0.99742168063E+00  0.16140189419E+01  0.95488584295E+01  0.00000000000E+00 0. -1.
</event>
<event>
 7    1  0.2328810E-008  0.4614232E+02  0.7816164E-02  0.1320468E+00
        -11   -1    0    0    0    0  0.00000000000E+00  0.00000000000E+00  0.45593999997E+02  0.45594000000E+02  0.51100000000E-03 0. -1.
         11   -1    0    0    0    0 -0.00000000000E+00 -0.00000000000E+00 -0.45593999997E+02  0.45594000000E+02  0.51100000000E-03 0.  1.
    9900012    2    1    2    0    0  0.40877301528E+02 -0.13690423871E+02 -0.13066445968E+02  0.46142317674E+02  0.99999992069E+01 0.  0.
         12    1    1    2    0    0 -0.40877301528E+02  0.13690423871E+02  0.13066445968E+02  0.45045682326E+02  0.00000000000E+00 0. -1.
         11    1    3    3    0    0  0.19372141172E+02 -0.71484519220E+01 -0.81457011567E+01  0.22197582437E+02  0.51100000000E-03 0. -1.
        -11    1    3    3    0    0  0.13382393065E+02 -0.46832973516E+01 -0.62713593835E+01  0.15503279234E+02  0.51100000000E-03 0.  1.
         12    1    3    3    0    0  0.81227672913E+01 -0.18586745978E+01  0.13506145726E+01  0.84414560031E+01  0.00000000000E+00 0. -1.
</event>
<event>
 7    1  0.2328810E-008  0.4614232E+02  0.7816164E-02  0.1320468E+00
        -11   -1    0    0    0    0  0.00000000000E+00  0.00000000000E+00  0.45593999997E+02  0.45594000000E+02  0.51100000000E-03 0.  1.
         11   -1    0    0    0    0 -0.00000000000E+00 -0.00000000000E+00 -0.45593999997E+02  0.45594000000E+02  0.51100000000E-03 0. -1.
    9900012    2    1    2    0    0  0.18142337811E+02 -0.17694030077E+02  0.37240976860E+02  0.46142317864E+02  0.10000000936E+02 0.  0.
         12    1    1    2    0    0 -0.18142337811E+02  0.17694030077E+02 -0.37240976860E+02  0.45045682136E+02  0.00000000000E+00 0. -1.
         11    1    3    3    0    0  0.49630283977E+01 -0.55996063350E+01  0.95121136262E+01  0.12102377778E+02  0.51100000000E-03 0. -1.
        -11    1    3    3    0    0  0.85498846072E+01 -0.11662363706E+02  0.24245061229E+02  0.28230023880E+02  0.51100000000E-03 0.  1.
         12    1    3    3    0    0  0.46294248059E+01 -0.43206003637E+00  0.34838020052E+01  0.58099162060E+01  0.00000000000E+00 0. -1.
</event>
<event>
 7    1  0.2328810E-008  0.4614232E+02  0.7816164E-02  0.1320468E+00
        -11   -1    0    0    0    0  0.00000000000E+00  0.00000000000E+00  0.45593999997E+02  0.45594000000E+02  0.51100000000E-03 0. -1.
         11   -1    0    0    0    0 -0.00000000000E+00 -0.00000000000E+00 -0.45593999997E+02  0.45594000000E+02  0.51100000000E-03 0.  1.
    9900012    2    1    2    0    0 -0.38357641316E+01  0.39309367130E+02 -0.21660427573E+02  0.46142317041E+02  0.99999934314E+01 0.  0.
         12    1    1    2    0    0  0.38357641316E+01 -0.39309367130E+02  0.21660427573E+02  0.45045682959E+02  0.00000000000E+00 0. -1.
         11    1    3    3    0    0 -0.19303757445E+01  0.37973223359E+01 -0.48085663513E+00  0.42868672481E+01  0.51100000000E-03 0. -1.
        -11    1    3    3    0    0 -0.39169029499E+01  0.24499125862E+02 -0.13160942923E+02  0.28084866309E+02  0.51100000000E-03 0.  1.
        -12    1    3    3    0    0  0.20115145627E+01  0.11012918932E+02 -0.80186280152E+01  0.13770583484E+02  0.00000000000E+00 0.  1.
</event>
<event>
 7    1  0.2328810E-008  0.4614232E+02  0.7816164E-02  0.1320468E+00
        -11   -1    0    0    0    0  0.00000000000E+00  0.00000000000E+00  0.45593999997E+02  0.45594000000E+02  0.51100000000E-03 0.  1.
         11   -1    0    0    0    0 -0.00000000000E+00 -0.00000000000E+00 -0.45593999997E+02  0.45594000000E+02  0.51100000000E-03 0. -1.
    9900012    2    1    2    0    0 -0.17204357826E+02 -0.17026727996E+01  0.41595967397E+02  0.46142317337E+02  0.99999961344E+01 0.  0.
         12    1    1    2    0    0  0.17204357826E+02  0.17026727996E+01 -0.41595967397E+02  0.45045682663E+02  0.00000000000E+00 0. -1.
         11    1    3    3    0    0 -0.99228645054E+01 -0.21031709344E+01  0.31694590255E+02  0.33278125242E+02  0.51100000000E-03 0. -1.
        -11    1    3    3    0    0 -0.44686742557E+01  0.20860115623E+01  0.60876754080E+01  0.78345571653E+01  0.51100000000E-03 0.  1.
         12    1    3    3    0    0 -0.28128190651E+01 -0.16855134275E+01  0.38137017344E+01  0.50296349297E+01  0.00000000000E+00 0. -1.
</event>
<event>
 7    1  0.2328810E-008  0.4614232E+02  0.7816164E-02  0.1320468E+00
        -11   -1    0    0    0    0  0.00000000000E+00  0.00000000000E+00  0.45593999997E+02  0.45594000000E+02  0.51100000000E-03 0.  1.
         11   -1    0    0    0    0 -0.00000000000E+00 -0.00000000000E+00 -0.45593999997E+02  0.45594000000E+02  0.51100000000E-03 0. -1.
    9900012    2    1    2    0    0  0.77820600856E+01  0.93226370984E+01  0.43377891995E+02  0.46142317237E+02  0.99999952179E+01 0.  0.
         12    1    1    2    0    0 -0.77820600856E+01 -0.93226370984E+01 -0.43377891995E+02  0.45045682763E+02  0.00000000000E+00 0. -1.
         11    1    3    3    0    0 -0.61636344365E+00  0.26559798437E+00  0.85679616337E+00  0.10883685546E+01  0.51100000000E-03 0. -1.
        -11    1    3    3    0    0  0.79661653434E+00  0.31273057358E+01  0.23585673053E+02  0.23805432420E+02  0.51100000000E-03 0.  1.
        -12    1    3    3    0    0  0.76018069949E+01  0.59297333783E+01  0.18935422779E+02  0.21248516262E+02  0.00000000000E+00 0.  1.
</event>
<event>
 7    1  0.2328810E-008  0.4614232E+02  0.7816164E-02  0.1320468E+00
        -11   -1    0    0    0    0  0.00000000000E+00  0.00000000000E+00  0.45593999997E+02  0.45594000000E+02  0.51100000000E-03 0.  1.
         11   -1    0    0    0    0 -0.00000000000E+00 -0.00000000000E+00 -0.45593999997E+02  0.45594000000E+02  0.51100000000E-03 0. -1.
    9900012    2    1    2    0    0 -0.23688510219E+02 -0.44301550753E+00  0.38311509224E+02  0.46142317431E+02  0.99999969865E+01 0.  0.
         12    1    1    2    0    0  0.23688510219E+02  0.44301550753E+00 -0.38311509224E+02  0.45045682569E+02  0.00000000000E+00 0. -1.
         11    1    3    3    0    0 -0.45921560676E+00 -0.13246333090E+00 -0.50216751016E+00  0.69325174137E+00  0.51100000000E-03 0. -1.
        -11    1    3    3    0    0 -0.49097110196E+01 -0.44816265129E+00  0.51900067972E+01  0.71583715239E+01  0.51100000000E-03 0.  1.
         12    1    3    3    0    0 -0.18319583592E+02  0.13761047466E+00  0.33623669937E+02  0.38290694165E+02  0.00000000000E+00 0. -1.
</event>
<event>
 7    1  0.2328810E-008  0.4614232E+02  0.7816164E-02  0.1320468E+00
        -11   -1    0    0    0    0  0.00000000000E+00  0.00000000000E+00  0.45593999997E+02  0.45594000000E+02  0.51100000000E-03 0.  1.
         11   -1    0    0    0    0 -0.00000000000E+00 -0.00000000000E+00 -0.45593999997E+02  0.45594000000E+02  0.51100000000E-03 0. -1.
    9900012    2    1    2    0    0 -0.59438642848E+01 -0.38636578584E+02  0.22382999555E+02  0.46142318783E+02  0.10000009315E+02 0.  0.
         12    1    1    2    0    0  0.59438642848E+01  0.38636578584E+02 -0.22382999555E+02  0.45045681217E+02  0.00000000000E+00 0. -1.
         11    1    3    3    0    0 -0.66975726766E+01 -0.13490930324E+02  0.87559194794E+01  0.17422078147E+02  0.51100000000E-03 0. -1.
        -11    1    3    3    0    0 -0.92464364768E+00 -0.95100327088E+01  0.50149616832E+01  0.10790992954E+02  0.51100000000E-03 0.  1.
        -12    1    3    3    0    0  0.16783520395E+01 -0.15635615551E+02  0.86121183920E+01  0.17929247682E+02  0.00000000000E+00 0.  1.
</event>
<event>
 7    1  0.2328810E-008  0.4614232E+02  0.7816164E-02  0.1320468E+00
        -11   -1    0    0    0    0  0.00000000000E+00  0.00000000000E+00  0.45593999997E+02  0.45594000000E+02  0.51100000000E-03 0.  1.
         11   -1    0    0    0    0 -0.00000000000E+00 -0.00000000000E+00 -0.45593999997E+02  0.45594000000E+02  0.51100000000E-03 0. -1.
    9900012    2    1    2    0    0 -0.88168778577E+01 -0.74743219465E+01  0.43537462912E+02  0.46142317626E+02  0.99999987691E+01 0.  0.
         12    1    1    2    0    0  0.88168778577E+01  0.74743219465E+01 -0.43537462912E+02  0.45045682374E+02  0.00000000000E+00 0. -1.
         11    1    3    3    0    0 -0.44915880559E+01 -0.25975808171E+01  0.16180565543E+02  0.16992130264E+02  0.51100000000E-03 0. -1.
        -11    1    3    3    0    0 -0.57075745428E+01 -0.89550150046E+00  0.17537164915E+02  0.18464302955E+02  0.51100000000E-03 0.  1.
         12    1    3    3    0    0  0.13822847410E+01 -0.39812396289E+01  0.98197324543E+01  0.10685884407E+02  0.00000000000E+00 0. -1.
</event>
<event>
 7    1  0.2328810E-008  0.4614232E+02  0.7816164E-02  0.1320468E+00
        -11   -1    0    0    0    0  0.00000000000E+00  0.00000000000E+00  0.45593999997E+02  0.45594000000E+02  0.51100000000E-03 0.  1.
         11   -1    0    0    0    0 -0.00000000000E+00 -0.00000000000E+00 -0.45593999997E+02  0.45594000000E+02  0.51100000000E-03 0. -1.
    9900012    2    1    2    0    0  0.94710865401E+01 -0.14270222138E+02  0.41662606082E+02  0.46142318013E+02  0.10000002294E+02 0.  0.
         12    1    1    2    0    0 -0.94710865401E+01  0.14270222138E+02 -0.41662606082E+02  0.45045681987E+02  0.00000000000E+00 0. -1.
         11    1    3    3    0    0  0.49398054678E+01 -0.10307509765E+02  0.21109084685E+02  0.24004997232E+02  0.51100000000E-03 0.  1.
        -11    1    3    3    0    0 -0.39284059725E+00 -0.13647569558E+01  0.83402898723E+00  0.16469638418E+01  0.51100000000E-03 0. -1.
        -12    1    3    3    0    0  0.49241216696E+01 -0.25979554177E+01  0.19719492410E+02  0.20490356939E+02  0.00000000000E+00 0.  1.
</event>
<event>
 7    1  0.2328810E-008  0.4614233E+02  0.7816164E-02  0.1320468E+00
        -11   -1    0    0    0    0  0.00000000000E+00  0.00000000000E+00  0.45593999997E+02  0.45594000000E+02  0.51100000000E-03 0. -1.
         11   -1    0    0    0    0 -0.00000000000E+00 -0.00000000000E+00 -0.45593999997E+02  0.45594000000E+02  0.51100000000E-03 0.  1.
    9900012    2    1    2    0    0 -0.32366918416E+02 -0.18808381029E+02  0.25054743669E+02  0.46142325568E+02  0.10000071191E+02 0.  0.
         12    1    1    2    0    0  0.32366918416E+02  0.18808381029E+02 -0.25054743669E+02  0.45045674432E+02  0.00000000000E+00 0. -1.
         11    1    3    3    0    0 -0.12679280065E+02 -0.42385717994E+01  0.98141818801E+01  0.16584565116E+02  0.51100000000E-03 0. -1.
        -11    1    3    3    0    0 -0.55789292432E+01 -0.54660165697E+01  0.17141514476E+01  0.79962556292E+01  0.51100000000E-03 0.  1.
         12    1    3    3    0    0 -0.14108709108E+02 -0.91037926600E+01  0.13526410342E+02  0.21561504823E+02  0.00000000000E+00 0. -1.
</event>
<event>
 7    1  0.2328810E-008  0.4614232E+02  0.7816164E-02  0.1320468E+00
        -11   -1    0    0    0    0  0.00000000000E+00  0.00000000000E+00  0.45593999997E+02  0.45594000000E+02  0.51100000000E-03 0.  1.
         11   -1    0    0    0    0 -0.00000000000E+00 -0.00000000000E+00 -0.45593999997E+02  0.45594000000E+02  0.51100000000E-03 0. -1.
    9900012    2    1    2    0    0 -0.19144245750E+02  0.37519751982E+02  0.15964947506E+02  0.46142317821E+02  0.10000000549E+02 0.  0.
         12    1    1    2    0    0  0.19144245750E+02 -0.37519751982E+02 -0.15964947506E+02  0.45045682179E+02  0.00000000000E+00 0. -1.
         11    1    3    3    0    0 -0.15438267981E+01  0.50200369875E+00  0.18971285518E+01  0.24968992569E+01  0.51100000000E-03 0. -1.
        -11    1    3    3    0    0 -0.10425834821E+02  0.21810540040E+02  0.10973598117E+02  0.26548400035E+02  0.51100000000E-03 0.  1.
         12    1    3    3    0    0 -0.71745841309E+01  0.15207208243E+02  0.30942208372E+01  0.17097018529E+02  0.00000000000E+00 0. -1.
</event>
<event>
 7    1  0.2328810E-008  0.4614232E+02  0.7816164E-02  0.1320468E+00
        -11   -1    0    0    0    0  0.00000000000E+00  0.00000000000E+00  0.45593999997E+02  0.45594000000E+02  0.51100000000E-03 0.  1.
         11   -1    0    0    0    0 -0.00000000000E+00 -0.00000000000E+00 -0.45593999997E+02  0.45594000000E+02  0.51100000000E-03 0. -1.
    9900012    2    1    2    0    0  0.64992200605E+01  0.17371785679E+02  0.41049907798E+02  0.46142315087E+02  0.99999756157E+01 0.  0.
         12    1    1    2    0    0 -0.64992200605E+01 -0.17371785679E+02 -0.41049907798E+02  0.45045684913E+02  0.00000000000E+00 0. -1.
         11    1    3    3    0    0 -0.41855947690E+00  0.59864079486E+01  0.13227092604E+02  0.14524746166E+02  0.51100000000E-03 0. -1.
        -11    1    3    3    0    0 -0.52681052992E+00  0.52256149372E+01  0.11630378722E+02  0.12761280903E+02  0.51100000000E-03 0.  1.
        -12    1    3    3    0    0  0.74445900673E+01  0.61597627936E+01  0.16192436472E+02  0.18856288018E+02  0.00000000000E+00 0.  1.
</event>
<event>
 7    1  0.3221848E-008  0.4614232E+02  0.7816164E-02  0.1320468E+00
        -11   -1    0    0    0    0  0.00000000000E+00  0.00000000000E+00  0.45593999997E+02  0.45594000000E+02  0.51100000000E-03 0. -1.
         11   -1    0    0    0    0 -0.00000000000E+00 -0.00000000000E+00 -0.45593999997E+02  0.45594000000E+02  0.51100000000E-03 0.  1.
    9900012    2    1    2    0    0 -0.25109777662E+02 -0.30169675532E+01 -0.37276138201E+02  0.46142317558E+02  0.99999981515E+01 0.  0.
         12    1    1    2    0    0  0.25109777662E+02  0.30169675532E+01  0.37276138201E+02  0.45045682442E+02  0.00000000000E+00 0. -1.
         11    1    3    3    0    0 -0.86992467095E+00 -0.18373143170E+00  0.29514317648E+00  0.93682224988E+00  0.51100000000E-03 0. -1.
        -11    1    3    3    0    0 -0.26918360067E+01 -0.20967836252E+01 -0.35204289564E+01  0.49026424463E+01  0.51100000000E-03 0.  1.
        -12    1    3    3    0    0 -0.21548016985E+02 -0.73645249635E+00 -0.34050852421E+02  0.40302852862E+02  0.00000000000E+00 0.  1.
</event>
<event>
 7    1  0.2328810E-008  0.4614232E+02  0.7816164E-02  0.1320468E+00
        -11   -1    0    0    0    0  0.00000000000E+00  0.00000000000E+00  0.45593999997E+02  0.45594000000E+02  0.51100000000E-03 0.  1.
         11   -1    0    0    0    0 -0.00000000000E+00 -0.00000000000E+00 -0.45593999997E+02  0.45594000000E+02  0.51100000000E-03 0. -1.
    9900012    2    1    2    0    0  0.61849674618E+01  0.24801089967E+02  0.37091314092E+02  0.46142317997E+02  0.10000002150E+02 0.  0.
         12    1    1    2    0    0 -0.61849674618E+01 -0.24801089967E+02 -0.37091314092E+02  0.45045682003E+02  0.00000000000E+00 0. -1.
         11    1    3    3    0    0 -0.11320429796E+01  0.11943540324E+02  0.12830070399E+02  0.17565317632E+02  0.51100000000E-03 0. -1.
        -11    1    3    3    0    0  0.45637182977E+01  0.10583110837E+02  0.18222207231E+02  0.21561043489E+02  0.51100000000E-03 0.  1.
         12    1    3    3    0    0  0.27532921437E+01  0.22744388057E+01  0.60390364616E+01  0.70159568766E+01  0.00000000000E+00 0. -1.
</event>
<event>
 7    1  0.2328810E-008  0.4614232E+02  0.7816164E-02  0.1320468E+00
        -11   -1    0    0    0    0  0.00000000000E+00  0.00000000000E+00  0.45593999997E+02  0.45594000000E+02  0.51100000000E-03 0.  1.
         11   -1    0    0    0    0 -0.00000000000E+00 -0.00000000000E+00 -0.45593999997E+02  0.45594000000E+02  0.51100000000E-03 0. -1.
    9900012    2    1    2    0    0 -0.12224665649E+02 -0.15824176196E+02  0.40364173619E+02  0.46142317472E+02  0.99999973597E+01 0.  0.
         12    1    1    2    0    0  0.12224665649E+02  0.15824176196E+02 -0.40364173619E+02  0.45045682528E+02  0.00000000000E+00 0. -1.
         11    1    3    3    0    0 -0.36270319901E+01 -0.42337204172E+01  0.64831525224E+01  0.85504980275E+01  0.51100000000E-03 0. -1.
        -11    1    3    3    0    0 -0.45269755092E+01 -0.11280709238E+02  0.26565910989E+02  0.29214645901E+02  0.51100000000E-03 0.  1.
         12    1    3    3    0    0 -0.40706581498E+01 -0.30974654131E+00  0.73151101074E+01  0.83771735434E+01  0.00000000000E+00 0. -1.
</event>
<event>
 7    1  0.2328810E-008  0.4614232E+02  0.7816164E-02  0.1320468E+00
        -11   -1    0    0    0    0  0.00000000000E+00  0.00000000000E+00  0.45593999997E+02  0.45594000000E+02  0.51100000000E-03 0.  1.
         11   -1    0    0    0    0 -0.00000000000E+00 -0.00000000000E+00 -0.45593999997E+02  0.45594000000E+02  0.51100000000E-03 0. -1.
    9900012    2    1    2    0    0  0.23293719157E+02  0.26684276919E+02  0.27829218046E+02  0.46142319143E+02  0.10000012599E+02 0.  0.
         12    1    1    2    0    0 -0.23293719157E+02 -0.26684276919E+02 -0.27829218046E+02  0.45045680857E+02  0.00000000000E+00 0. -1.
         11    1    3    3    0    0  0.15200188511E+02  0.20563973510E+02  0.16898349266E+02  0.30650888168E+02  0.51100000000E-03 0. -1.
        -11    1    3    3    0    0  0.53292279227E+01  0.56355777664E+01  0.59549956959E+01  0.97786696954E+01  0.51100000000E-03 0.  1.
         12    1    3    3    0    0  0.27643027229E+01  0.48472564313E+00  0.49758730837E+01  0.57127612796E+01  0.00000000000E+00 0. -1.
</event>
<event>
 7    1  0.2328810E-008  0.4614232E+02  0.7816164E-02  0.1320468E+00
        -11   -1    0    0    0    0  0.00000000000E+00  0.00000000000E+00  0.45593999997E+02  0.45594000000E+02  0.51100000000E-03 0.  1.
         11   -1    0    0    0    0 -0.00000000000E+00 -0.00000000000E+00 -0.45593999997E+02  0.45594000000E+02  0.51100000000E-03 0. -1.
    9900012    2    1    2    0    0  0.11137858739E+02 -0.16993386636E+02  0.40203064682E+02  0.46142317671E+02  0.99999991747E+01 0.  0.
         12    1    1    2    0    0 -0.11137858739E+02  0.16993386636E+02 -0.40203064682E+02  0.45045682329E+02  0.00000000000E+00 0. -1.
         11    1    3    3    0    0 -0.70808054108E+00  0.36616298688E+00  0.27623055484E+01  0.28750279284E+01  0.51100000000E-03 0. -1.
        -11    1    3    3    0    0  0.67455438366E+01 -0.12995178181E+02  0.28964265474E+02  0.32454671348E+02  0.51100000000E-03 0.  1.
         12    1    3    3    0    0  0.51003954436E+01 -0.43643714422E+01  0.84764936602E+01  0.10812618394E+02  0.00000000000E+00 0. -1.
</event>
<event>
 7    1  0.2328810E-008  0.4614232E+02  0.7816164E-02  0.1320468E+00
        -11   -1    0    0    0    0  0.00000000000E+00  0.00000000000E+00  0.45593999997E+02  0.45594000000E+02  0.51100000000E-03 0.  1.
         11   -1    0    0    0    0 -0.00000000000E+00 -0.00000000000E+00 -0.45593999997E+02  0.45594000000E+02  0.51100000000E-03 0. -1.
    9900012    2    1    2    0    0  0.20418315988E+02  0.16983352525E+02  0.36383671738E+02  0.46142318078E+02  0.10000002886E+02 0.  0.
         12    1    1    2    0    0 -0.20418315988E+02 -0.16983352525E+02 -0.36383671738E+02  0.45045681922E+02  0.00000000000E+00 0. -1.
         11    1    3    3    0    0 -0.98541337849E-01  0.83831328762E+00  0.32038627976E+01  0.33131882908E+01  0.51100000000E-03 0. -1.
        -11    1    3    3    0    0  0.11834091293E+02  0.13426594206E+02  0.23577179917E+02  0.29600718940E+02  0.51100000000E-03 0.  1.
        -12    1    3    3    0    0  0.86827660325E+01  0.27184450314E+01  0.96026290236E+01  0.13228410847E+02  0.00000000000E+00 0.  1.
</event>
<event>
 7    1  0.2328810E-008  0.4614232E+02  0.7816164E-02  0.1320468E+00
        -11   -1    0    0    0    0  0.00000000000E+00  0.00000000000E+00  0.45593999997E+02  0.45594000000E+02  0.51100000000E-03 0.  1.
         11   -1    0    0    0    0 -0.00000000000E+00 -0.00000000000E+00 -0.45593999997E+02  0.45594000000E+02  0.51100000000E-03 0. -1.
    9900012    2    1    2    0    0 -0.36989312315E+01  0.89581999295E+01  0.43990705532E+02  0.46142316395E+02  0.99999875455E+01 0.  0.
         12    1    1    2    0    0  0.36989312315E+01 -0.89581999295E+01 -0.43990705532E+02  0.45045683605E+02  0.00000000000E+00 0. -1.
         11    1    3    3    0    0 -0.43813012247E+00  0.20948446648E+01  0.14044010671E+01  0.25598192890E+01  0.51100000000E-03 0. -1.
        -11    1    3    3    0    0 -0.29309565432E+00 -0.45228052124E+00  0.41935699049E+00  0.68287867083E+00  0.51100000000E-03 0.  1.
        -12    1    3    3    0    0 -0.29677054547E+01  0.73156357859E+01  0.42166947474E+02  0.42899618435E+02  0.00000000000E+00 0.  1.
</event>
<event>
 7    1  0.2328810E-008  0.4614232E+02  0.7816164E-02  0.1320468E+00
        -11   -1    0    0    0    0  0.00000000000E+00  0.00000000000E+00  0.45593999997E+02  0.45594000000E+02  0.51100000000E-03 0. -1.
         11   -1    0    0    0    0 -0.00000000000E+00 -0.00000000000E+00 -0.45593999997E+02  0.45594000000E+02  0.51100000000E-03 0.  1.
    9900012    2    1    2    0    0  0.38826212470E+02  0.22825323233E+02 -0.80196716938E+00  0.46142319776E+02  0.10000018376E+02 0.  0.
         12    1    1    2    0    0 -0.38826212470E+02 -0.22825323233E+02  0.80196716938E+00  0.45045680224E+02  0.00000000000E+00 0. -1.
         11    1    3    3    0    0  0.13776167244E+02  0.83537315194E+01  0.77257717803E+00  0.16129615308E+02  0.51100000000E-03 0. -1.
        -11    1    3    3    0    0  0.14272040864E+02  0.46420146634E+01 -0.31681496665E+01  0.15338729515E+02  0.51100000000E-03 0.  1.
        -12    1    3    3    0    0  0.10778004362E+02  0.98295770503E+01  0.15936053191E+01  0.14673974953E+02  0.00000000000E+00 0.  1.
</event>
<event>
 7    1  0.2328810E-008  0.4614232E+02  0.7816164E-02  0.1320468E+00
        -11   -1    0    0    0    0  0.00000000000E+00  0.00000000000E+00  0.45593999997E+02  0.45594000000E+02  0.51100000000E-03 0.  1.
         11   -1    0    0    0    0 -0.00000000000E+00 -0.00000000000E+00 -0.45593999997E+02  0.45594000000E+02  0.51100000000E-03 0. -1.
    9900012    2    1    2    0    0 -0.37773451527E+02  0.23712840255E+02  0.63230590858E+01  0.46142317528E+02  0.99999978708E+01 0.  0.
         12    1    1    2    0    0  0.37773451527E+02 -0.23712840255E+02 -0.63230590858E+01  0.45045682472E+02  0.00000000000E+00 0. -1.
         11    1    3    3    0    0 -0.10627213545E+01  0.36588483275E+01  0.26531929186E+00  0.38192855810E+01  0.51100000000E-03 0. -1.
        -11    1    3    3    0    0 -0.29158903970E+02  0.16880515467E+02  0.46681885923E+01  0.34014489091E+02  0.51100000000E-03 0.  1.
        -12    1    3    3    0    0 -0.75518262024E+01  0.31734764604E+01  0.13895512016E+01  0.83085428552E+01  0.00000000000E+00 0.  1.
</event>
<event>
 7    1  0.2328810E-008  0.4614231E+02  0.7816164E-02  0.1320468E+00
        -11   -1    0    0    0    0  0.00000000000E+00  0.00000000000E+00  0.45593999997E+02  0.45594000000E+02  0.51100000000E-03 0.  1.
         11   -1    0    0    0    0 -0.00000000000E+00 -0.00000000000E+00 -0.45593999997E+02  0.45594000000E+02  0.51100000000E-03 0. -1.
    9900012    2    1    2    0    0  0.11357767672E+02  0.19479128227E+02  0.38995881635E+02  0.46142310889E+02  0.99999373375E+01 0.  0.
         12    1    1    2    0    0 -0.11357767672E+02 -0.19479128227E+02 -0.38995881635E+02  0.45045689111E+02  0.00000000000E+00 0. -1.
         11    1    3    3    0    0 -0.10576932358E+01  0.56967953015E+01  0.11164894973E+02  0.12578834275E+02  0.51100000000E-03 0.  1.
        -11    1    3    3    0    0  0.82124056874E+01  0.83824518722E+01  0.15255533078E+02  0.19246828215E+02  0.51100000000E-03 0. -1.
         12    1    3    3    0    0  0.42030552204E+01  0.53998810529E+01  0.12575453584E+02  0.14316648400E+02  0.00000000000E+00 0. -1.
</event>
<event>
 7    1  0.2328810E-008  0.4614232E+02  0.7816164E-02  0.1320468E+00
        -11   -1    0    0    0    0  0.00000000000E+00  0.00000000000E+00  0.45593999997E+02  0.45594000000E+02  0.51100000000E-03 0.  1.
         11   -1    0    0    0    0 -0.00000000000E+00 -0.00000000000E+00 -0.45593999997E+02  0.45594000000E+02  0.51100000000E-03 0. -1.
    9900012    2    1    2    0    0  0.49115754027E+01 -0.27367452372E+02  0.35440266344E+02  0.46142317623E+02  0.99999987410E+01 0.  0.
         12    1    1    2    0    0 -0.49115754027E+01  0.27367452372E+02 -0.35440266344E+02  0.45045682377E+02  0.00000000000E+00 0. -1.
         11    1    3    3    0    0  0.14890708310E+01 -0.22377813567E+01  0.86993988446E+00  0.28252067188E+01  0.51100000000E-03 0. -1.
        -11    1    3    3    0    0  0.13548417612E+01 -0.88334371168E+01  0.75680839395E+01  0.11710725950E+02  0.51100000000E-03 0.  1.
        -12    1    3    3    0    0  0.20676628104E+01 -0.16296233898E+02  0.27002242520E+02  0.31606384954E+02  0.00000000000E+00 0.  1.
</event>
<event>
 7    1  0.2328810E-008  0.4614232E+02  0.7816164E-02  0.1320468E+00
        -11   -1    0    0    0    0  0.00000000000E+00  0.00000000000E+00  0.45593999997E+02  0.45594000000E+02  0.51100000000E-03 0.  1.
         11   -1    0    0    0    0 -0.00000000000E+00 -0.00000000000E+00 -0.45593999997E+02  0.45594000000E+02  0.51100000000E-03 0. -1.
    9900012    2    1    2    0    0 -0.33163684053E+02 -0.10286964192E+02  0.28696023511E+02  0.46142319435E+02  0.10000015265E+02 0.  0.
         12    1    1    2    0    0  0.33163684053E+02  0.10286964192E+02 -0.28696023511E+02  0.45045680565E+02  0.00000000000E+00 0. -1.
         11    1    3    3    0    0 -0.81083142150E+01  0.32696817714E+00  0.33322186263E+01  0.87724197820E+01  0.51100000000E-03 0. -1.
        -11    1    3    3    0    0 -0.98687501933E+01 -0.41056309191E+01  0.12383585295E+02  0.16358533572E+02  0.51100000000E-03 0.  1.
         12    1    3    3    0    0 -0.15186619644E+02 -0.65083014501E+01  0.12980219590E+02  0.21011366081E+02  0.00000000000E+00 0. -1.
</event>
<event>
 7    1  0.2328810E-008  0.4614232E+02  0.7816164E-02  0.1320468E+00
        -11   -1    0    0    0    0  0.00000000000E+00  0.00000000000E+00  0.45593999997E+02  0.45594000000E+02  0.51100000000E-03 0.  1.
         11   -1    0    0    0    0 -0.00000000000E+00 -0.00000000000E+00 -0.45593999997E+02  0.45594000000E+02  0.51100000000E-03 0. -1.
    9900012    2    1    2    0    0  0.22196813008E+02 -0.16689139335E+02  0.35466710304E+02  0.46142318529E+02  0.10000007003E+02 0.  0.
         12    1    1    2    0    0 -0.22196813008E+02  0.16689139335E+02 -0.35466710304E+02  0.45045681471E+02  0.00000000000E+00 0. -1.
         11    1    3    3    0    0  0.13160782313E+02 -0.49678785200E+01  0.12980713265E+02  0.19141184008E+02  0.51100000000E-03 0. -1.
        -11    1    3    3    0    0  0.16037282240E+01 -0.11576306870E+01  0.38254756494E+01  0.43065435362E+01  0.51100000000E-03 0.  1.
        -12    1    3    3    0    0  0.74323024711E+01 -0.10563630128E+02  0.18660521389E+02  0.22694590985E+02  0.00000000000E+00 0.  1.
</event>
<event>
 7    1  0.2328810E-008  0.4614233E+02  0.7816164E-02  0.1320468E+00
        -11   -1    0    0    0    0  0.00000000000E+00  0.00000000000E+00  0.45593999997E+02  0.45594000000E+02  0.51100000000E-03 0.  1.
         11   -1    0    0    0    0 -0.00000000000E+00 -0.00000000000E+00 -0.45593999997E+02  0.45594000000E+02  0.51100000000E-03 0. -1.
    9900012    2    1    2    0    0 -0.28357532498E+02 -0.34402066123E+02  0.64390157956E+01  0.46142326209E+02  0.10000077031E+02 0.  0.
         12    1    1    2    0    0  0.28357532498E+02  0.34402066123E+02 -0.64390157956E+01  0.45045673791E+02  0.00000000000E+00 0. -1.
         11    1    3    3    0    0 -0.32070692612E+01 -0.49910669447E+01  0.24328354299E+01  0.64120769632E+01  0.51100000000E-03 0.  1.
        -11    1    3    3    0    0  0.50185589306E+00 -0.16482132722E+01  0.30648618173E+00  0.17499715337E+01  0.51100000000E-03 0. -1.
         12    1    3    3    0    0 -0.25652319130E+02 -0.27762785906E+02  0.36996941840E+01  0.37980277712E+02  0.00000000000E+00 0. -1.
</event>
<event>
 7    1  0.2328810E-008  0.4614232E+02  0.7816164E-02  0.1320468E+00
        -11   -1    0    0    0    0  0.00000000000E+00  0.00000000000E+00  0.45593999997E+02  0.45594000000E+02  0.51100000000E-03 0. -1.
         11   -1    0    0    0    0 -0.00000000000E+00 -0.00000000000E+00 -0.45593999997E+02  0.45594000000E+02  0.51100000000E-03 0.  1.
    9900012    2    1    2    0    0 -0.24796757935E+02  0.35556810420E+02 -0.12245303403E+02  0.46142318445E+02  0.10000006235E+02 0.  0.
         12    1    1    2    0    0  0.24796757935E+02 -0.35556810420E+02  0.12245303403E+02  0.45045681555E+02  0.00000000000E+00 0. -1.
         11    1    3    3    0    0 -0.18543395363E+01  0.33676073288E+00 -0.25494666689E+00  0.19018362104E+01  0.51100000000E-03 0.  1.
        -11    1    3    3    0    0 -0.12707703768E+02  0.13312131925E+02 -0.52447300772E+01  0.19136503999E+02  0.51100000000E-03 0. -1.
        -12    1    3    3    0    0 -0.10234714631E+02  0.21907917762E+02 -0.67456266592E+01  0.25103978236E+02  0.00000000000E+00 0.  1.
</event>
<event>
 7    1  0.2328810E-008  0.4614232E+02  0.7816164E-02  0.1320468E+00
        -11   -1    0    0    0    0  0.00000000000E+00  0.00000000000E+00  0.45593999997E+02  0.45594000000E+02  0.51100000000E-03 0.  1.
         11   -1    0    0    0    0 -0.00000000000E+00 -0.00000000000E+00 -0.45593999997E+02  0.45594000000E+02  0.51100000000E-03 0. -1.
    9900012    2    1    2    0    0 -0.10919470468E+01  0.43856578605E+02  0.10223581958E+02  0.46142318039E+02  0.10000002530E+02 0.  0.
         12    1    1    2    0    0  0.10919470468E+01 -0.43856578605E+02 -0.10223581958E+02  0.45045681961E+02  0.00000000000E+00 0. -1.
         11    1    3    3    0    0 -0.27114479665E+00  0.49325245763E+01  0.31940658518E+01  0.58826333494E+01  0.51100000000E-03 0. -1.
        -11    1    3    3    0    0  0.21899263361E+01  0.31132191211E+02  0.45005426903E+01  0.31531951918E+02  0.51100000000E-03 0.  1.
        -12    1    3    3    0    0 -0.30107285862E+01  0.77918628180E+01  0.25289734156E+01  0.87277327716E+01  0.00000000000E+00 0.  1.
</event>
<event>
 7    1  0.2328810E-008  0.4614232E+02  0.7816164E-02  0.1320468E+00
        -11   -1    0    0    0    0  0.00000000000E+00  0.00000000000E+00  0.45593999997E+02  0.45594000000E+02  0.51100000000E-03 0.  1.
         11   -1    0    0    0    0 -0.00000000000E+00 -0.00000000000E+00 -0.45593999997E+02  0.45594000000E+02  0.51100000000E-03 0. -1.
    9900012    2    1    2    0    0  0.26593103414E+02 -0.13068691786E+02  0.33928300633E+02  0.46142318320E+02  0.10000005095E+02 0.  0.
         12    1    1    2    0    0 -0.26593103414E+02  0.13068691786E+02 -0.33928300633E+02  0.45045681680E+02  0.00000000000E+00 0. -1.
         11    1    3    3    0    0  0.71116619018E+01 -0.12142206672E+01  0.64804915352E+01  0.96977748805E+01  0.51100000000E-03 0. -1.
        -11    1    3    3    0    0  0.58627814193E+01 -0.71869711615E+01  0.13656350119E+02  0.16508199759E+02  0.51100000000E-03 0.  1.
        -12    1    3    3    0    0  0.13618660093E+02 -0.46674999573E+01  0.13791458979E+02  0.19936343681E+02  0.00000000000E+00 0.  1.
</event>
<event>
 7    1  0.2328810E-008  0.4614232E+02  0.7816164E-02  0.1320468E+00
        -11   -1    0    0    0    0  0.00000000000E+00  0.00000000000E+00  0.45593999997E+02  0.45594000000E+02  0.51100000000E-03 0.  1.
         11   -1    0    0    0    0 -0.00000000000E+00 -0.00000000000E+00 -0.45593999997E+02  0.45594000000E+02  0.51100000000E-03 0. -1.
    9900012    2    1    2    0    0  0.21748390268E+02 -0.96189877420E+00  0.39435970529E+02  0.46142317631E+02  0.99999988162E+01 0.  0.
         12    1    1    2    0    0 -0.21748390268E+02  0.96189877420E+00 -0.39435970529E+02  0.45045682369E+02  0.00000000000E+00 0. -1.
         11    1    3    3    0    0  0.10401727876E+02  0.42301178398E+01  0.19380784687E+02  0.22398764588E+02  0.51100000000E-03 0.  1.
        -11    1    3    3    0    0  0.14816604035E+01 -0.18832635724E+00  0.13541578249E+01  0.20160674701E+01  0.51100000000E-03 0. -1.
         12    1    3    3    0    0  0.98650019889E+01 -0.50036902567E+01  0.18701028017E+02  0.21727485573E+02  0.00000000000E+00 0. -1.
</event>
<event>
 7    1  0.2328810E-008  0.4614232E+02  0.7816164E-02  0.1320468E+00
        -11   -1    0    0    0    0  0.00000000000E+00  0.00000000000E+00  0.45593999997E+02  0.45594000000E+02  0.51100000000E-03 0.  1.
         11   -1    0    0    0    0 -0.00000000000E+00 -0.00000000000E+00 -0.45593999997E+02  0.45594000000E+02  0.51100000000E-03 0. -1.
    9900012    2    1    2    0    0 -0.72823493696E+01 -0.23239766521E+02  0.37894513442E+02  0.46142317528E+02  0.99999978788E+01 0.  0.
         12    1    1    2    0    0  0.72823493696E+01  0.23239766521E+02 -0.37894513442E+02  0.45045682472E+02  0.00000000000E+00 0. -1.
         11    1    3    3    0    0 -0.68925166564E+01 -0.91055595808E+01  0.20197200998E+02  0.23202261302E+02  0.51100000000E-03 0. -1.
        -11    1    3    3    0    0 -0.16142044535E+01 -0.32105808121E+01  0.47455632827E+01  0.59526344000E+01  0.51100000000E-03 0.  1.
        -12    1    3    3    0    0  0.12243717402E+01 -0.10923626129E+02  0.12951749162E+02  0.16987421826E+02  0.00000000000E+00 0.  1.
</event>
<event>
 7    1  0.2328810E-008  0.4614232E+02  0.7816164E-02  0.1320468E+00
        -11   -1    0    0    0    0  0.00000000000E+00  0.00000000000E+00  0.45593999997E+02  0.45594000000E+02  0.51100000000E-03 0.  1.
         11   -1    0    0    0    0 -0.00000000000E+00 -0.00000000000E+00 -0.45593999997E+02  0.45594000000E+02  0.51100000000E-03 0. -1.
    9900012    2    1    2    0    0 -0.29701946905E+02 -0.28404065502E+02  0.18442258545E+02  0.46142317774E+02  0.10000000116E+02 0.  0.
         12    1    1    2    0    0  0.29701946905E+02  0.28404065502E+02 -0.18442258545E+02  0.45045682226E+02  0.00000000000E+00 0. -1.
         11    1    3    3    0    0 -0.18943309889E+01 -0.16752876472E+00 -0.28345064002E-01  0.19019357209E+01  0.51100000000E-03 0. -1.
        -11    1    3    3    0    0 -0.16227135932E+02 -0.19721116381E+02  0.92481731988E+01  0.27161941750E+02  0.51100000000E-03 0.  1.
         12    1    3    3    0    0 -0.11580479984E+02 -0.85154203568E+01  0.92224304100E+01  0.17078440303E+02  0.00000000000E+00 0. -1.
</event>
<event>
 7    1  0.2328810E-008  0.4614232E+02  0.7816164E-02  0.1320468E+00
        -11   -1    0    0    0    0  0.00000000000E+00  0.00000000000E+00  0.45593999997E+02  0.45594000000E+02  0.51100000000E-03 0.  1.
         11   -1    0    0    0    0 -0.00000000000E+00 -0.00000000000E+00 -0.45593999997E+02  0.45594000000E+02  0.51100000000E-03 0. -1.
    9900012    2    1    2    0    0  0.35590667803E+02  0.19201463596E+02  0.19842418877E+02  0.46142318456E+02  0.10000006335E+02 0.  0.
         12    1    1    2    0    0 -0.35590667803E+02 -0.19201463596E+02 -0.19842418877E+02  0.45045681544E+02  0.00000000000E+00 0. -1.
         11    1    3    3    0    0  0.50037151774E+01  0.47458306825E+01  0.49235173909E+01  0.84735528678E+01  0.51100000000E-03 0. -1.
        -11    1    3    3    0    0  0.73438685867E+01  0.57453376912E+01  0.14747484692E+01  0.94401374097E+01  0.51100000000E-03 0.  1.
        -12    1    3    3    0    0  0.23243084039E+02  0.87102952224E+01  0.13444153017E+02  0.28228628178E+02  0.00000000000E+00 0.  1.
</event>
<event>
 7    1  0.2328810E-008  0.4614232E+02  0.7816164E-02  0.1320468E+00
        -11   -1    0    0    0    0  0.00000000000E+00  0.00000000000E+00  0.45593999997E+02  0.45594000000E+02  0.51100000000E-03 0.  1.
         11   -1    0    0    0    0 -0.00000000000E+00 -0.00000000000E+00 -0.45593999997E+02  0.45594000000E+02  0.51100000000E-03 0. -1.
    9900012    2    1    2    0    0 -0.20261307926E+02  0.65786146765E+00  0.40226361139E+02  0.46142317509E+02  0.99999977035E+01 0.  0.
         12    1    1    2    0    0  0.20261307926E+02 -0.65786146765E+00 -0.40226361139E+02  0.45045682491E+02  0.00000000000E+00 0. -1.
         11    1    3    3    0    0 -0.19793992565E+01  0.82123880918E+00  0.74235872041E+01  0.77267135210E+01  0.51100000000E-03 0.  1.
        -11    1    3    3    0    0 -0.18692437471E+02  0.97823089443E+00  0.31448198217E+02  0.36597176471E+02  0.51100000000E-03 0. -1.
        -12    1    3    3    0    0  0.41052880110E+00 -0.11416082360E+01  0.13545757174E+01  0.18184275171E+01  0.00000000000E+00 0.  1.
</event>
<event>
 7    1  0.2328810E-008  0.4614232E+02  0.7816164E-02  0.1320468E+00
        -11   -1    0    0    0    0  0.00000000000E+00  0.00000000000E+00  0.45593999997E+02  0.45594000000E+02  0.51100000000E-03 0.  1.
         11   -1    0    0    0    0 -0.00000000000E+00 -0.00000000000E+00 -0.45593999997E+02  0.45594000000E+02  0.51100000000E-03 0. -1.
    9900012    2    1    2    0    0  0.23484688123E+02 -0.23452106041E+02  0.30456225791E+02  0.46142317150E+02  0.99999944238E+01 0.  0.
         12    1    1    2    0    0 -0.23484688123E+02  0.23452106041E+02 -0.30456225791E+02  0.45045682850E+02  0.00000000000E+00 0. -1.
         11    1    3    3    0    0  0.17873056548E+02 -0.19476601738E+02  0.19086683804E+02  0.32604994472E+02  0.51100000000E-03 0. -1.
        -11    1    3    3    0    0  0.30446460905E+01 -0.20628438379E+01  0.36551478264E+01  0.51851037029E+01  0.51100000000E-03 0.  1.
         12    1    3    3    0    0  0.25669854845E+01 -0.19126604655E+01  0.77143941603E+01  0.83522189743E+01  0.00000000000E+00 0. -1.
</event>
<event>
 7    1  0.2328810E-008  0.4614232E+02  0.7816164E-02  0.1320468E+00
        -11   -1    0    0    0    0  0.00000000000E+00  0.00000000000E+00  0.45593999997E+02  0.45594000000E+02  0.51100000000E-03 0.  1.
         11   -1    0    0    0    0 -0.00000000000E+00 -0.00000000000E+00 -0.45593999997E+02  0.45594000000E+02  0.51100000000E-03 0. -1.
    9900012    2    1    2    0    0  0.28539417017E+02  0.15844523958E+02  0.31041363319E+02  0.46142317634E+02  0.99999988441E+01 0.  0.
         12    1    1    2    0    0 -0.28539417017E+02 -0.15844523958E+02 -0.31041363319E+02  0.45045682366E+02  0.00000000000E+00 0. -1.
         11    1    3    3    0    0  0.80676017838E+00  0.23115025494E+01  0.20882646668E+01  0.32178806070E+01  0.51100000000E-03 0. -1.
        -11    1    3    3    0    0  0.14941975422E+02  0.35585052738E+01  0.12302782655E+02  0.19679533801E+02  0.51100000000E-03 0.  1.
        -12    1    3    3    0    0  0.12790681416E+02  0.99745161348E+01  0.16650315997E+02  0.23244903227E+02  0.00000000000E+00 0.  1.
</event>
<event>
 7    1  0.2328810E-008  0.4614232E+02  0.7816164E-02  0.1320468E+00
        -11   -1    0    0    0    0  0.00000000000E+00  0.00000000000E+00  0.45593999997E+02  0.45594000000E+02  0.51100000000E-03 0.  1.
         11   -1    0    0    0    0 -0.00000000000E+00 -0.00000000000E+00 -0.45593999997E+02  0.45594000000E+02  0.51100000000E-03 0. -1.
    9900012    2    1    2    0    0  0.30852919048E+01 -0.42516454230E+02  0.14558347890E+02  0.46142318745E+02  0.10000008968E+02 0.  0.
         12    1    1    2    0    0 -0.30852919048E+01  0.42516454230E+02 -0.14558347890E+02  0.45045681255E+02  0.00000000000E+00 0. -1.
         11    1    3    3    0    0 -0.40513584630E-01 -0.88572280020E+01  0.56513580074E+01  0.10506663448E+02  0.51100000000E-03 0. -1.
        -11    1    3    3    0    0  0.13858231718E+01 -0.10773338830E+02 -0.39767928116E+00  0.10869382894E+02  0.51100000000E-03 0.  1.
        -12    1    3    3    0    0  0.17399823176E+01 -0.22885887398E+02  0.93046691643E+01  0.24766272403E+02  0.00000000000E+00 0.  1.
</event>
<event>
 7    1  0.2328810E-008  0.4614232E+02  0.7816164E-02  0.1320468E+00
        -11   -1    0    0    0    0  0.00000000000E+00  0.00000000000E+00  0.45593999997E+02  0.45594000000E+02  0.51100000000E-03 0.  1.
         11   -1    0    0    0    0 -0.00000000000E+00 -0.00000000000E+00 -0.45593999997E+02  0.45594000000E+02  0.51100000000E-03 0. -1.
    9900012    2    1    2    0    0  0.20555594763E+02  0.74272203583E+01  0.39388036283E+02  0.46142317848E+02  0.10000000790E+02 0.  0.
         12    1    1    2    0    0 -0.20555594763E+02 -0.74272203583E+01 -0.39388036283E+02  0.45045682152E+02  0.00000000000E+00 0. -1.
         11    1    3    3    0    0  0.17528976038E+01 -0.75287676145E+00  0.78059672750E+01  0.80357077340E+01  0.51100000000E-03 0. -1.
        -11    1    3    3    0    0  0.10584989289E+02  0.74347217816E+01  0.21339650288E+02  0.24953912737E+02  0.51100000000E-03 0.  1.
        -12    1    3    3    0    0  0.82177078705E+01  0.74537533810E+00  0.10242418720E+02  0.13152697376E+02  0.00000000000E+00 0.  1.
</event>
<event>
 7    1  0.2328810E-008  0.4614232E+02  0.7816164E-02  0.1320468E+00
        -11   -1    0    0    0    0  0.00000000000E+00  0.00000000000E+00  0.45593999997E+02  0.45594000000E+02  0.51100000000E-03 0.  1.
         11   -1    0    0    0    0 -0.00000000000E+00 -0.00000000000E+00 -0.45593999997E+02  0.45594000000E+02  0.51100000000E-03 0. -1.
    9900012    2    1    2    0    0  0.39334308761E+02 -0.13878751938E+02  0.17008991217E+02  0.46142318928E+02  0.10000010636E+02 0.  0.
         12    1    1    2    0    0 -0.39334308761E+02  0.13878751938E+02 -0.17008991217E+02  0.45045681072E+02  0.00000000000E+00 0. -1.
         11    1    3    3    0    0  0.30953892271E+01 -0.18519727650E-01  0.37303542172E+01  0.48474034590E+01  0.51100000000E-03 0. -1.
        -11    1    3    3    0    0  0.17870896238E+02 -0.85955638330E+01  0.86477140217E+01  0.21634130628E+02  0.51100000000E-03 0.  1.
         12    1    3    3    0    0  0.18368023296E+02 -0.52646683772E+01  0.46309229779E+01  0.19660784841E+02  0.00000000000E+00 0. -1.
</event>
<event>
 7    1  0.2328810E-008  0.4614232E+02  0.7816164E-02  0.1320468E+00
        -11   -1    0    0    0    0  0.00000000000E+00  0.00000000000E+00  0.45593999997E+02  0.45594000000E+02  0.51100000000E-03 0.  1.
         11   -1    0    0    0    0 -0.00000000000E+00 -0.00000000000E+00 -0.45593999997E+02  0.45594000000E+02  0.51100000000E-03 0. -1.
    9900012    2    1    2    0    0  0.97024246598E+01 -0.17035870301E+02  0.40555587335E+02  0.46142316685E+02  0.99999901884E+01 0.  0.
         12    1    1    2    0    0 -0.97024246598E+01  0.17035870301E+02 -0.40555587335E+02  0.45045683315E+02  0.00000000000E+00 0. -1.
         11    1    3    3    0    0  0.44164874005E+01 -0.39833366662E+01  0.82144554464E+01  0.10141479700E+02  0.51100000000E-03 0. -1.
        -11    1    3    3    0    0  0.47364065962E+01 -0.27360813167E+01  0.10485276639E+02  0.11826272231E+02  0.51100000000E-03 0.  1.
        -12    1    3    3    0    0  0.54953066304E+00 -0.10316452319E+02  0.21855855250E+02  0.24174564755E+02  0.00000000000E+00 0.  1.
</event>
<event>
 7    1  0.2328810E-008  0.4614232E+02  0.7816164E-02  0.1320468E+00
        -11   -1    0    0    0    0  0.00000000000E+00  0.00000000000E+00  0.45593999997E+02  0.45594000000E+02  0.51100000000E-03 0. -1.
         11   -1    0    0    0    0 -0.00000000000E+00 -0.00000000000E+00 -0.45593999997E+02  0.45594000000E+02  0.51100000000E-03 0.  1.
    9900012    2    1    2    0    0  0.13018160070E+02  0.25245216640E+02 -0.34961692804E+02  0.46142318536E+02  0.10000007069E+02 0.  0.
         12    1    1    2    0    0 -0.13018160070E+02 -0.25245216640E+02  0.34961692804E+02  0.45045681464E+02  0.00000000000E+00 0. -1.
         11    1    3    3    0    0 -0.45536317878E+00  0.60035740854E+01 -0.66688438298E+01  0.89846388748E+01  0.51100000000E-03 0. -1.
        -11    1    3    3    0    0  0.79457290946E+01  0.14325837111E+02 -0.16606349643E+02  0.23326702906E+02  0.51100000000E-03 0.  1.
        -12    1    3    3    0    0  0.55277941544E+01  0.49158054434E+01 -0.11686499332E+02  0.13830976755E+02  0.00000000000E+00 0.  1.
</event>
<event>
 7    1  0.2328810E-008  0.4614232E+02  0.7816164E-02  0.1320468E+00
        -11   -1    0    0    0    0  0.00000000000E+00  0.00000000000E+00  0.45593999997E+02  0.45594000000E+02  0.51100000000E-03 0.  1.
         11   -1    0    0    0    0 -0.00000000000E+00 -0.00000000000E+00 -0.45593999997E+02  0.45594000000E+02  0.51100000000E-03 0. -1.
    9900012    2    1    2    0    0  0.37700350196E+02 -0.24062636512E+01  0.24535833312E+02  0.46142316234E+02  0.99999860765E+01 0.  0.
         12    1    1    2    0    0 -0.37700350196E+02  0.24062636512E+01 -0.24535833312E+02  0.45045683766E+02  0.00000000000E+00 0. -1.
         11    1    3    3    0    0  0.21654742709E+02 -0.36116179628E+01  0.14999707955E+02  0.26588774043E+02  0.51100000000E-03 0. -1.
        -11    1    3    3    0    0  0.14147605349E+02  0.77759849886E+00  0.10242829132E+02  0.17483562149E+02  0.51100000000E-03 0.  1.
         12    1    3    3    0    0  0.18980021374E+01  0.42775581273E+00 -0.70670377521E+00  0.20699800421E+01  0.00000000000E+00 0. -1.
</event>
<event>
 7    1  0.2328810E-008  0.4614230E+02  0.7816164E-02  0.1320468E+00
        -11   -1    0    0    0    0  0.00000000000E+00  0.00000000000E+00  0.45593999997E+02  0.45594000000E+02  0.51100000000E-03 0.  1.
         11   -1    0    0    0    0 -0.00000000000E+00 -0.00000000000E+00 -0.45593999997E+02  0.45594000000E+02  0.51100000000E-03 0. -1.
    9900012    2    1    2    0    0 -0.39087514992E+02  0.15967279923E+02  0.15694801653E+02  0.46142304808E+02  0.99998818868E+01 0.  0.
         12    1    1    2    0    0  0.39087514992E+02 -0.15967279923E+02 -0.15694801653E+02  0.45045695192E+02  0.00000000000E+00 0. -1.
         11    1    3    3    0    0 -0.30983524316E+02  0.12326119617E+02  0.16246274440E+02  0.37092498397E+02  0.51100000000E-03 0. -1.
        -11    1    3    3    0    0 -0.57634024242E+01  0.22545453598E+01  0.30925462353E+00  0.61964038737E+01  0.51100000000E-03 0.  1.
         12    1    3    3    0    0 -0.23405882516E+01  0.13866149454E+01 -0.86072741033E+00  0.28534025382E+01  0.00000000000E+00 0. -1.
</event>
<event>
 7    1  0.2328810E-008  0.4614232E+02  0.7816164E-02  0.1320468E+00
        -11   -1    0    0    0    0  0.00000000000E+00  0.00000000000E+00  0.45593999997E+02  0.45594000000E+02  0.51100000000E-03 0.  1.
         11   -1    0    0    0    0 -0.00000000000E+00 -0.00000000000E+00 -0.45593999997E+02  0.45594000000E+02  0.51100000000E-03 0. -1.
    9900012    2    1    2    0    0 -0.37662709884E+02  0.64394027256E+01  0.23857242062E+02  0.46142316278E+02  0.99999864719E+01 0.  0.
         12    1    1    2    0    0  0.37662709884E+02 -0.64394027256E+01 -0.23857242062E+02  0.45045683722E+02  0.00000000000E+00 0. -1.
         11    1    3    3    0    0 -0.30507770318E+01 -0.91231217275E+00  0.49306322094E+01  0.58694708657E+01  0.51100000000E-03 0. -1.
        -11    1    3    3    0    0 -0.15219886878E+02  0.15104809014E+01  0.82936376268E+01  0.17398590014E+02  0.51100000000E-03 0.  1.
         12    1    3    3    0    0 -0.19392045974E+02  0.58412339970E+01  0.10632972225E+02  0.22874255398E+02  0.00000000000E+00 0. -1.
</event>
<event>
 7    1  0.2328810E-008  0.4614232E+02  0.7816164E-02  0.1320468E+00
        -11   -1    0    0    0    0  0.00000000000E+00  0.00000000000E+00  0.45593999997E+02  0.45594000000E+02  0.51100000000E-03 0. -1.
         11   -1    0    0    0    0 -0.00000000000E+00 -0.00000000000E+00 -0.45593999997E+02  0.45594000000E+02  0.51100000000E-03 0.  1.
    9900012    2    1    2    0    0 -0.40166422060E+02  0.15495141289E+02 -0.13254156321E+02  0.46142317360E+02  0.99999963455E+01 0.  0.
         12    1    1    2    0    0  0.40166422060E+02 -0.15495141289E+02  0.13254156321E+02  0.45045682640E+02  0.00000000000E+00 0. -1.
         11    1    3    3    0    0 -0.25432909921E+01 -0.84269176444E+00 -0.16825299415E+01  0.31637581680E+01  0.51100000000E-03 0. -1.
        -11    1    3    3    0    0 -0.57998473686E+00 -0.39011253105E+00  0.61048628696E-01  0.70163899412E+00  0.51100000000E-03 0.  1.
        -12    1    3    3    0    0 -0.37043146331E+02  0.16727945584E+02 -0.11632675008E+02  0.42276920198E+02  0.00000000000E+00 0.  1.
</event>
<event>
 7    1  0.2328810E-008  0.4614232E+02  0.7816164E-02  0.1320468E+00
        -11   -1    0    0    0    0  0.00000000000E+00  0.00000000000E+00  0.45593999997E+02  0.45594000000E+02  0.51100000000E-03 0.  1.
         11   -1    0    0    0    0 -0.00000000000E+00 -0.00000000000E+00 -0.45593999997E+02  0.45594000000E+02  0.51100000000E-03 0. -1.
    9900012    2    1    2    0    0 -0.16356715629E+02  0.26476200149E+02  0.32566579402E+02  0.46142318582E+02  0.10000007483E+02 0.  0.
         12    1    1    2    0    0  0.16356715629E+02 -0.26476200149E+02 -0.32566579402E+02  0.45045681418E+02  0.00000000000E+00 0. -1.
         11    1    3    3    0    0  0.38032490585E+00  0.15990066377E+01  0.40030232960E+01  0.43273161464E+01  0.51100000000E-03 0. -1.
        -11    1    3    3    0    0 -0.95834163604E+01  0.91225157646E+01  0.12004461017E+02  0.17865308494E+02  0.51100000000E-03 0.  1.
        -12    1    3    3    0    0 -0.71536241740E+01  0.15754677746E+02  0.16559095089E+02  0.23949693941E+02  0.00000000000E+00 0.  1.
</event>
<event>
 7    1  0.2328810E-008  0.4614232E+02  0.7816164E-02  0.1320468E+00
        -11   -1    0    0    0    0  0.00000000000E+00  0.00000000000E+00  0.45593999997E+02  0.45594000000E+02  0.51100000000E-03 0.  1.
         11   -1    0    0    0    0 -0.00000000000E+00 -0.00000000000E+00 -0.45593999997E+02  0.45594000000E+02  0.51100000000E-03 0. -1.
    9900012    2    1    2    0    0  0.18565121283E+02  0.28732925745E+02  0.29306462116E+02  0.46142317944E+02  0.10000001668E+02 0.  0.
         12    1    1    2    0    0 -0.18565121283E+02 -0.28732925745E+02 -0.29306462116E+02  0.45045682056E+02  0.00000000000E+00 0. -1.
         11    1    3    3    0    0  0.38804117386E+01  0.71278354740E+01  0.23508265009E+01  0.84492614650E+01  0.51100000000E-03 0. -1.
        -11    1    3    3    0    0  0.81425210902E+01  0.94720051906E+01  0.11430433930E+02  0.16931460425E+02  0.51100000000E-03 0.  1.
         12    1    3    3    0    0  0.65421884539E+01  0.12133085081E+02  0.15525201685E+02  0.20761596054E+02  0.00000000000E+00 0. -1.
</event>
<event>
 7    1  0.2328810E-008  0.4614232E+02  0.7816164E-02  0.1320468E+00
        -11   -1    0    0    0    0  0.00000000000E+00  0.00000000000E+00  0.45593999997E+02  0.45594000000E+02  0.51100000000E-03 0. -1.
         11   -1    0    0    0    0 -0.00000000000E+00 -0.00000000000E+00 -0.45593999997E+02  0.45594000000E+02  0.51100000000E-03 0.  1.
    9900012    2    1    2    0    0  0.29284971181E+02 -0.30132345437E+02 -0.16234092219E+02  0.46142317313E+02  0.99999959104E+01 0.  0.
         12    1    1    2    0    0 -0.29284971181E+02  0.30132345437E+02  0.16234092219E+02  0.45045682687E+02  0.00000000000E+00 0. -1.
         11    1    3    3    0    0  0.32415473386E+01 -0.52569975582E+01 -0.37665686491E+01  0.72339955851E+01  0.51100000000E-03 0. -1.
        -11    1    3    3    0    0  0.12073560332E+02 -0.15319388194E+02 -0.96069360792E+01  0.21742762815E+02  0.51100000000E-03 0.  1.
        -12    1    3    3    0    0  0.13969863510E+02 -0.95559596840E+01 -0.28605874907E+01  0.17165558912E+02  0.00000000000E+00 0.  1.
</event>
<event>
 7    1  0.2328810E-008  0.4614231E+02  0.7816164E-02  0.1320468E+00
        -11   -1    0    0    0    0  0.00000000000E+00  0.00000000000E+00  0.45593999997E+02  0.45594000000E+02  0.51100000000E-03 0.  1.
         11   -1    0    0    0    0 -0.00000000000E+00 -0.00000000000E+00 -0.45593999997E+02  0.45594000000E+02  0.51100000000E-03 0. -1.
    9900012    2    1    2    0    0  0.23905067116E+02 -0.34003882861E+02  0.17360807996E+02  0.46142312774E+02  0.99999545210E+01 0.  0.
         12    1    1    2    0    0 -0.23905067116E+02  0.34003882861E+02 -0.17360807996E+02  0.45045687226E+02  0.00000000000E+00 0. -1.
         11    1    3    3    0    0  0.60258892656E+00 -0.27944576510E+01  0.17136480365E+01  0.33329711717E+01  0.51100000000E-03 0. -1.
        -11    1    3    3    0    0  0.44551947641E+01 -0.12070296483E+02  0.35313524472E+01  0.13342086341E+02  0.51100000000E-03 0.  1.
        -12    1    3    3    0    0  0.18847283425E+02 -0.19139128727E+02  0.12115807512E+02  0.29467255261E+02  0.00000000000E+00 0.  1.
</event>
<event>
 7    1  0.2328810E-008  0.4614232E+02  0.7816164E-02  0.1320468E+00
        -11   -1    0    0    0    0  0.00000000000E+00  0.00000000000E+00  0.45593999997E+02  0.45594000000E+02  0.51100000000E-03 0. -1.
         11   -1    0    0    0    0 -0.00000000000E+00 -0.00000000000E+00 -0.45593999997E+02  0.45594000000E+02  0.51100000000E-03 0.  1.
    9900012    2    1    2    0    0  0.69638640245E+01 -0.17988905439E+02 -0.40706481079E+02  0.46142315157E+02  0.99999762579E+01 0.  0.
         12    1    1    2    0    0 -0.69638640245E+01  0.17988905439E+02  0.40706481079E+02  0.45045684843E+02  0.00000000000E+00 0. -1.
         11    1    3    3    0    0  0.12165750398E+01 -0.81501747703E+00 -0.94693092286E+01  0.95818644242E+01  0.51100000000E-03 0. -1.
        -11    1    3    3    0    0 -0.56338133067E+00 -0.69866984448E+01 -0.11921690492E+02  0.13829608025E+02  0.51100000000E-03 0.  1.
        -12    1    3    3    0    0  0.63106703153E+01 -0.10187189517E+02 -0.19315481359E+02  0.22730842709E+02  0.00000000000E+00 0.  1.
</event>
<event>
 7    1  0.2328810E-008  0.4614232E+02  0.7816164E-02  0.1320468E+00
        -11   -1    0    0    0    0  0.00000000000E+00  0.00000000000E+00  0.45593999997E+02  0.45594000000E+02  0.51100000000E-03 0.  1.
         11   -1    0    0    0    0 -0.00000000000E+00 -0.00000000000E+00 -0.45593999997E+02  0.45594000000E+02  0.51100000000E-03 0. -1.
    9900012    2    1    2    0    0  0.10596433376E+02 -0.67425010798E+01  0.43259310266E+02  0.46142316013E+02  0.99999840630E+01 0.  0.
         12    1    1    2    0    0 -0.10596433376E+02  0.67425010798E+01 -0.43259310266E+02  0.45045683987E+02  0.00000000000E+00 0. -1.
         11    1    3    3    0    0 -0.16593542359E+00 -0.26499214692E+01  0.35971337386E+01  0.44709048024E+01  0.51100000000E-03 0. -1.
        -11    1    3    3    0    0 -0.64299583916E+00 -0.30637303003E+00  0.14753362099E+01  0.16382689877E+01  0.51100000000E-03 0.  1.
        -12    1    3    3    0    0  0.11405364639E+02 -0.37862065806E+01  0.38186840318E+02  0.40033142223E+02  0.00000000000E+00 0.  1.
</event>
<event>
 7    1  0.2328810E-008  0.4614232E+02  0.7816164E-02  0.1320468E+00
        -11   -1    0    0    0    0  0.00000000000E+00  0.00000000000E+00  0.45593999997E+02  0.45594000000E+02  0.51100000000E-03 0.  1.
         11   -1    0    0    0    0 -0.00000000000E+00 -0.00000000000E+00 -0.45593999997E+02  0.45594000000E+02  0.51100000000E-03 0. -1.
    9900012    2    1    2    0    0 -0.19888328020E+02 -0.33216861809E+02  0.23026245994E+02  0.46142317583E+02  0.99999983720E+01 0.  0.
         12    1    1    2    0    0  0.19888328020E+02  0.33216861809E+02 -0.23026245994E+02  0.45045682417E+02  0.00000000000E+00 0. -1.
         11    1    3    3    0    0 -0.46299053335E+01 -0.13003618142E+02  0.67912562925E+01  0.15383473940E+02  0.51100000000E-03 0. -1.
        -11    1    3    3    0    0 -0.78480687529E+01 -0.11781176639E+02  0.53811570571E+01  0.15144145987E+02  0.51100000000E-03 0.  1.
         12    1    3    3    0    0 -0.74103539334E+01 -0.84320670282E+01  0.10853832644E+02  0.15614697655E+02  0.00000000000E+00 0. -1.
</event>
<event>
 7    1  0.2328810E-008  0.4614232E+02  0.7816164E-02  0.1320468E+00
        -11   -1    0    0    0    0  0.00000000000E+00  0.00000000000E+00  0.45593999997E+02  0.45594000000E+02  0.51100000000E-03 0.  1.
         11   -1    0    0    0    0 -0.00000000000E+00 -0.00000000000E+00 -0.45593999997E+02  0.45594000000E+02  0.51100000000E-03 0. -1.
    9900012    2    1    2    0    0 -0.41267617991E+02  0.17204571765E+02  0.54863308362E+01  0.46142318627E+02  0.10000007899E+02 0.  0.
         12    1    1    2    0    0  0.41267617991E+02 -0.17204571765E+02 -0.54863308362E+01  0.45045681373E+02  0.00000000000E+00 0. -1.
         11    1    3    3    0    0 -0.14473191837E+02  0.69080403703E+01  0.35363449961E+01  0.16422546694E+02  0.51100000000E-03 0. -1.
        -11    1    3    3    0    0 -0.19925909316E+02  0.59125785882E+01  0.43301970136E+01  0.21230898570E+02  0.51100000000E-03 0.  1.
         12    1    3    3    0    0 -0.68685168376E+01  0.43839528061E+01 -0.23802111735E+01  0.84888733637E+01  0.00000000000E+00 0. -1.
</event>
<event>
 7    1  0.2328810E-008  0.4614232E+02  0.7816164E-02  0.1320468E+00
        -11   -1    0    0    0    0  0.00000000000E+00  0.00000000000E+00  0.45593999997E+02  0.45594000000E+02  0.51100000000E-03 0.  1.
         11   -1    0    0    0    0 -0.00000000000E+00 -0.00000000000E+00 -0.45593999997E+02  0.45594000000E+02  0.51100000000E-03 0. -1.
    9900012    2    1    2    0    0 -0.30745717687E+02  0.14300941218E+02  0.29652947616E+02  0.46142318985E+02  0.10000011158E+02 0.  0.
         12    1    1    2    0    0  0.30745717687E+02 -0.14300941218E+02 -0.29652947616E+02  0.45045681015E+02  0.00000000000E+00 0. -1.
         11    1    3    3    0    0 -0.44654171091E+01  0.26764653989E+01  0.23144761316E+01  0.56973868584E+01  0.51100000000E-03 0. -1.
        -11    1    3    3    0    0 -0.20740786328E+02  0.11117098092E+02  0.18210595694E+02  0.29755602553E+02  0.51100000000E-03 0.  1.
         12    1    3    3    0    0 -0.55395142493E+01  0.50737772780E+00  0.91278757911E+01  0.10689329574E+02  0.00000000000E+00 0. -1.
</event>
<event>
 7    1  0.2328810E-008  0.4614232E+02  0.7816164E-02  0.1320468E+00
        -11   -1    0    0    0    0  0.00000000000E+00  0.00000000000E+00  0.45593999997E+02  0.45594000000E+02  0.51100000000E-03 0.  1.
         11   -1    0    0    0    0 -0.00000000000E+00 -0.00000000000E+00 -0.45593999997E+02  0.45594000000E+02  0.51100000000E-03 0. -1.
    9900012    2    1    2    0    0  0.18965367431E+02 -0.13636227502E+02  0.38515992668E+02  0.46142317038E+02  0.99999934074E+01 0.  0.
         12    1    1    2    0    0 -0.18965367431E+02  0.13636227502E+02 -0.38515992668E+02  0.45045682962E+02  0.00000000000E+00 0. -1.
         11    1    3    3    0    0  0.63149490765E+00 -0.15675584799E+01  0.10240759672E+01  0.19760458634E+01  0.51100000000E-03 0. -1.
        -11    1    3    3    0    0  0.17854293590E+02 -0.12479426063E+02  0.32440497362E+02  0.39075538945E+02  0.51100000000E-03 0.  1.
         12    1    3    3    0    0  0.47957893317E+00  0.41075704086E+00  0.50514193388E+01  0.50907322299E+01  0.00000000000E+00 0. -1.
</event>
<event>
 7    1  0.2328810E-008  0.4614232E+02  0.7816164E-02  0.1320468E+00
        -11   -1    0    0    0    0  0.00000000000E+00  0.00000000000E+00  0.45593999997E+02  0.45594000000E+02  0.51100000000E-03 0.  1.
         11   -1    0    0    0    0 -0.00000000000E+00 -0.00000000000E+00 -0.45593999997E+02  0.45594000000E+02  0.51100000000E-03 0. -1.
    9900012    2    1    2    0    0 -0.15820056108E+02 -0.37500997087E+02  0.19300641185E+02  0.46142315324E+02  0.99999777801E+01 0.  0.
         12    1    1    2    0    0  0.15820056108E+02  0.37500997087E+02 -0.19300641185E+02  0.45045684676E+02  0.00000000000E+00 0. -1.
         11    1    3    3    0    0 -0.76974167111E+00 -0.34394586166E+01  0.99874317934E+00  0.36633135295E+01  0.51100000000E-03 0. -1.
        -11    1    3    3    0    0 -0.14697109484E+02 -0.34654892211E+02  0.17930971989E+02  0.41695159648E+02  0.51100000000E-03 0.  1.
        -12    1    3    3    0    0 -0.35320495303E+00  0.59335374137E+00  0.37092601676E+00  0.78384214683E+00  0.00000000000E+00 0.  1.
</event>
<event>
 7    1  0.2328810E-008  0.4614232E+02  0.7816164E-02  0.1320468E+00
        -11   -1    0    0    0    0  0.00000000000E+00  0.00000000000E+00  0.45593999997E+02  0.45594000000E+02  0.51100000000E-03 0. -1.
         11   -1    0    0    0    0 -0.00000000000E+00 -0.00000000000E+00 -0.45593999997E+02  0.45594000000E+02  0.51100000000E-03 0.  1.
    9900012    2    1    2    0    0  0.34733594327E+02  0.27125830948E+02 -0.93209562415E+01  0.46142317579E+02  0.99999983414E+01 0.  0.
         12    1    1    2    0    0 -0.34733594327E+02 -0.27125830948E+02  0.93209562415E+01  0.45045682421E+02  0.00000000000E+00 0. -1.
         11    1    3    3    0    0  0.56464383419E+01  0.16036700901E+01  0.99873586809E+00  0.59541159967E+01  0.51100000000E-03 0. -1.
        -11    1    3    3    0    0  0.71611784713E+01  0.49083623172E+01 -0.32843931288E+01  0.92823346320E+01  0.51100000000E-03 0.  1.
         12    1    3    3    0    0  0.21925977514E+02  0.20613798541E+02 -0.70352989808E+01  0.30905866951E+02  0.00000000000E+00 0. -1.
</event>
<event>
 7    1  0.2328810E-008  0.4614232E+02  0.7816164E-02  0.1320468E+00
        -11   -1    0    0    0    0  0.00000000000E+00  0.00000000000E+00  0.45593999997E+02  0.45594000000E+02  0.51100000000E-03 0.  1.
         11   -1    0    0    0    0 -0.00000000000E+00 -0.00000000000E+00 -0.45593999997E+02  0.45594000000E+02  0.51100000000E-03 0. -1.
    9900012    2    1    2    0    0  0.36541542930E+02  0.18412145801E+02  0.18836711852E+02  0.46142321116E+02  0.10000030590E+02 0.  0.
         12    1    1    2    0    0 -0.36541542930E+02 -0.18412145801E+02 -0.18836711852E+02  0.45045678884E+02  0.00000000000E+00 0. -1.
         11    1    3    3    0    0  0.20644885243E+02  0.72674826991E+01  0.13688161823E+02  0.25814595984E+02  0.51100000000E-03 0. -1.
        -11    1    3    3    0    0  0.11211734866E+02  0.80907292564E+01  0.50950128198E+01  0.14735062080E+02  0.51100000000E-03 0.  1.
         12    1    3    3    0    0  0.46849228212E+01  0.30539338459E+01  0.53537209962E-01  0.55926630516E+01  0.00000000000E+00 0. -1.
</event>
<event>
 7    1  0.2328810E-008  0.4614232E+02  0.7816164E-02  0.1320468E+00
        -11   -1    0    0    0    0  0.00000000000E+00  0.00000000000E+00  0.45593999997E+02  0.45594000000E+02  0.51100000000E-03 0.  1.
         11   -1    0    0    0    0 -0.00000000000E+00 -0.00000000000E+00 -0.45593999997E+02  0.45594000000E+02  0.51100000000E-03 0. -1.
    9900012    2    1    2    0    0 -0.37099121615E+02 -0.48808086900E+01  0.25078802061E+02  0.46142318399E+02  0.10000005820E+02 0.  0.
         12    1    1    2    0    0  0.37099121615E+02  0.48808086900E+01 -0.25078802061E+02  0.45045681601E+02  0.00000000000E+00 0. -1.
         11    1    3    3    0    0 -0.31345638037E+01  0.15341832196E+01  0.71071611791E+00  0.35615061494E+01  0.51100000000E-03 0. -1.
        -11    1    3    3    0    0 -0.19808783301E+02 -0.15570678678E+01  0.12440560022E+02  0.23443120315E+02  0.51100000000E-03 0.  1.
        -12    1    3    3    0    0 -0.14155774510E+02 -0.48579240418E+01  0.11927525922E+02  0.19137691935E+02  0.00000000000E+00 0.  1.
</event>
<event>
 7    1  0.2328810E-008  0.4614232E+02  0.7816164E-02  0.1320468E+00
        -11   -1    0    0    0    0  0.00000000000E+00  0.00000000000E+00  0.45593999997E+02  0.45594000000E+02  0.51100000000E-03 0.  1.
         11   -1    0    0    0    0 -0.00000000000E+00 -0.00000000000E+00 -0.45593999997E+02  0.45594000000E+02  0.51100000000E-03 0. -1.
    9900012    2    1    2    0    0 -0.44308439774E+02  0.78058366065E+01  0.22236511348E+01  0.46142317135E+02  0.99999942934E+01 0.  0.
         12    1    1    2    0    0  0.44308439774E+02 -0.78058366065E+01 -0.22236511348E+01  0.45045682865E+02  0.00000000000E+00 0. -1.
         11    1    3    3    0    0 -0.11501959602E+02  0.47351251355E+01 -0.11757135432E+01  0.12493950029E+02  0.51100000000E-03 0.  1.
        -11    1    3    3    0    0 -0.18445944680E+01  0.71835370991E+00 -0.11131837694E+01  0.22710656463E+01  0.51100000000E-03 0. -1.
        -12    1    3    3    0    0 -0.30961885705E+02  0.23523577611E+01  0.45125484474E+01  0.31377301460E+02  0.00000000000E+00 0.  1.
</event>
<event>
 7    1  0.2328810E-008  0.4614232E+02  0.7816164E-02  0.1320468E+00
        -11   -1    0    0    0    0  0.00000000000E+00  0.00000000000E+00  0.45593999997E+02  0.45594000000E+02  0.51100000000E-03 0.  1.
         11   -1    0    0    0    0 -0.00000000000E+00 -0.00000000000E+00 -0.45593999997E+02  0.45594000000E+02  0.51100000000E-03 0. -1.
    9900012    2    1    2    0    0 -0.91200936615E+00 -0.12298445484E+02  0.43324703603E+02  0.46142318024E+02  0.10000002397E+02 0.  0.
         12    1    1    2    0    0  0.91200936615E+00  0.12298445484E+02 -0.43324703603E+02  0.45045681976E+02  0.00000000000E+00 0. -1.
         11    1    3    3    0    0 -0.43017865305E+01 -0.44436808461E+01  0.12210751832E+02  0.13687736386E+02  0.51100000000E-03 0. -1.
        -11    1    3    3    0    0 -0.51480886666E+00 -0.16847906622E+01  0.88578048351E+01  0.90312930692E+01  0.51100000000E-03 0.  1.
        -12    1    3    3    0    0  0.39045860310E+01 -0.61699739755E+01  0.22256146936E+02  0.23423288568E+02  0.00000000000E+00 0.  1.
</event>
<event>
 7    1  0.2328810E-008  0.4614232E+02  0.7816164E-02  0.1320468E+00
        -11   -1    0    0    0    0  0.00000000000E+00  0.00000000000E+00  0.45593999997E+02  0.45594000000E+02  0.51100000000E-03 0.  1.
         11   -1    0    0    0    0 -0.00000000000E+00 -0.00000000000E+00 -0.45593999997E+02  0.45594000000E+02  0.51100000000E-03 0. -1.
    9900012    2    1    2    0    0  0.41222509906E+01  0.32431211931E+02  0.30989305948E+02  0.46142317148E+02  0.99999944062E+01 0.  0.
         12    1    1    2    0    0 -0.41222509906E+01 -0.32431211931E+02 -0.30989305948E+02  0.45045682852E+02  0.00000000000E+00 0. -1.
         11    1    3    3    0    0  0.11634146668E+01  0.76817204847E+01  0.58217239339E+01  0.97084928344E+01  0.51100000000E-03 0. -1.
        -11    1    3    3    0    0 -0.22257532426E+01  0.12954188417E+02  0.15518042036E+02  0.20336533724E+02  0.51100000000E-03 0.  1.
        -12    1    3    3    0    0  0.51845895664E+01  0.11795303029E+02  0.96495399781E+01  0.16097290589E+02  0.00000000000E+00 0.  1.
</event>
<event>
 7    1  0.2328810E-008  0.4614232E+02  0.7816164E-02  0.1320468E+00
        -11   -1    0    0    0    0  0.00000000000E+00  0.00000000000E+00  0.45593999997E+02  0.45594000000E+02  0.51100000000E-03 0. -1.
         11   -1    0    0    0    0 -0.00000000000E+00 -0.00000000000E+00 -0.45593999997E+02  0.45594000000E+02  0.51100000000E-03 0.  1.
    9900012    2    1    2    0    0 -0.14164806117E+02  0.42708120790E+02 -0.21185179821E+01  0.46142318385E+02  0.10000005691E+02 0.  0.
         12    1    1    2    0    0  0.14164806117E+02 -0.42708120790E+02  0.21185179821E+01  0.45045681615E+02  0.00000000000E+00 0. -1.
         11    1    3    3    0    0 -0.33967585284E+01  0.65342438682E+01 -0.22149312868E+01  0.76902686751E+01  0.51100000000E-03 0. -1.
        -11    1    3    3    0    0 -0.33231507703E+01  0.12857533986E+02  0.35176368989E+01  0.13738023178E+02  0.51100000000E-03 0.  1.
        -12    1    3    3    0    0 -0.74448968179E+01  0.23316342936E+02 -0.34212235941E+01  0.24714026532E+02  0.00000000000E+00 0.  1.
</event>
<event>
 7    1  0.2328810E-008  0.4614232E+02  0.7816164E-02  0.1320468E+00
        -11   -1    0    0    0    0  0.00000000000E+00  0.00000000000E+00  0.45593999997E+02  0.45594000000E+02  0.51100000000E-03 0.  1.
         11   -1    0    0    0    0 -0.00000000000E+00 -0.00000000000E+00 -0.45593999997E+02  0.45594000000E+02  0.51100000000E-03 0. -1.
    9900012    2    1    2    0    0 -0.26003944647E+02 -0.23440662247E+02  0.28345082607E+02  0.46142317723E+02  0.99999996567E+01 0.  0.
         12    1    1    2    0    0  0.26003944647E+02  0.23440662247E+02 -0.28345082607E+02  0.45045682277E+02  0.00000000000E+00 0. -1.
         11    1    3    3    0    0 -0.31661248417E+01 -0.64315127887E+01  0.53091624835E+01  0.89205330447E+01  0.51100000000E-03 0. -1.
        -11    1    3    3    0    0 -0.80323961971E+01 -0.92475090352E+01  0.12275489363E+02  0.17341379743E+02  0.51100000000E-03 0.  1.
         12    1    3    3    0    0 -0.14805423608E+02 -0.77616404232E+01  0.10760430760E+02  0.19880404936E+02  0.00000000000E+00 0. -1.
</event>
<event>
 7    1  0.2328810E-008  0.4614231E+02  0.7816164E-02  0.1320468E+00
        -11   -1    0    0    0    0  0.00000000000E+00  0.00000000000E+00  0.45593999997E+02  0.45594000000E+02  0.51100000000E-03 0. -1.
         11   -1    0    0    0    0 -0.00000000000E+00 -0.00000000000E+00 -0.45593999997E+02  0.45594000000E+02  0.51100000000E-03 0.  1.
    9900012    2    1    2    0    0  0.16808266984E+02 -0.40492473744E+02 -0.10341933420E+02  0.46142313683E+02  0.99999628120E+01 0.  0.
         12    1    1    2    0    0 -0.16808266984E+02  0.40492473744E+02  0.10341933420E+02  0.45045686317E+02  0.00000000000E+00 0. -1.
         11    1    3    3    0    0  0.87914759205E+01 -0.11998262110E+02 -0.11430079536E+01  0.14918271011E+02  0.51100000000E-03 0. -1.
        -11    1    3    3    0    0  0.31810131317E+01 -0.79534932188E+01 -0.11681779295E+01  0.86453188988E+01  0.51100000000E-03 0.  1.
        -12    1    3    3    0    0  0.48357779316E+01 -0.20540718415E+02 -0.80307475365E+01  0.22578723773E+02  0.00000000000E+00 0.  1.
</event>
<event>
 7    1  0.2328810E-008  0.4614232E+02  0.7816164E-02  0.1320468E+00
        -11   -1    0    0    0    0  0.00000000000E+00  0.00000000000E+00  0.45593999997E+02  0.45594000000E+02  0.51100000000E-03 0.  1.
         11   -1    0    0    0    0 -0.00000000000E+00 -0.00000000000E+00 -0.45593999997E+02  0.45594000000E+02  0.51100000000E-03 0. -1.
    9900012    2    1    2    0    0 -0.11517004595E+01 -0.23359208098E+02  0.38498501406E+02  0.46142316218E+02  0.99999859259E+01 0.  0.
         12    1    1    2    0    0  0.11517004595E+01  0.23359208098E+02 -0.38498501406E+02  0.45045683782E+02  0.00000000000E+00 0. -1.
         11    1    3    3    0    0 -0.45692411136E+01 -0.10496623880E+02  0.12783397242E+02  0.17160195877E+02  0.51100000000E-03 0. -1.
        -11    1    3    3    0    0  0.22531133702E+01 -0.60591857507E+01  0.12269953447E+02  0.13868742181E+02  0.51100000000E-03 0.  1.
         12    1    3    3    0    0  0.11644272839E+01 -0.68033984670E+01  0.13445150717E+02  0.15113378160E+02  0.00000000000E+00 0. -1.
</event>
<event>
 7    1  0.2328810E-008  0.4614232E+02  0.7816164E-02  0.1320468E+00
        -11   -1    0    0    0    0  0.00000000000E+00  0.00000000000E+00  0.45593999997E+02  0.45594000000E+02  0.51100000000E-03 0.  1.
         11   -1    0    0    0    0 -0.00000000000E+00 -0.00000000000E+00 -0.45593999997E+02  0.45594000000E+02  0.51100000000E-03 0. -1.
    9900012    2    1    2    0    0  0.45004591671E+02 -0.18810409751E+01 -0.40265513590E+00  0.46142315215E+02  0.99999767796E+01 0.  0.
         12    1    1    2    0    0 -0.45004591671E+02  0.18810409751E+01  0.40265513590E+00  0.45045684785E+02  0.00000000000E+00 0. -1.
         11    1    3    3    0    0  0.26740865344E+02 -0.46500457402E+01 -0.78583180672E+00  0.27153532673E+02  0.51100000000E-03 0. -1.
        -11    1    3    3    0    0  0.17613098072E+02  0.16526547091E+01  0.43217351191E+00  0.17695741450E+02  0.51100000000E-03 0.  1.
         12    1    3    3    0    0  0.65062825562E+00  0.11163500560E+01 -0.48996841079E-01  0.12930410918E+01  0.00000000000E+00 0. -1.
</event>
<event>
 7    1  0.2328810E-008  0.4614232E+02  0.7816164E-02  0.1320468E+00
        -11   -1    0    0    0    0  0.00000000000E+00  0.00000000000E+00  0.45593999997E+02  0.45594000000E+02  0.51100000000E-03 0.  1.
         11   -1    0    0    0    0 -0.00000000000E+00 -0.00000000000E+00 -0.45593999997E+02  0.45594000000E+02  0.51100000000E-03 0. -1.
    9900012    2    1    2    0    0  0.75791425594E+01  0.11911793255E+02  0.42775919355E+02  0.46142317663E+02  0.99999991079E+01 0.  0.
         12    1    1    2    0    0 -0.75791425594E+01 -0.11911793255E+02 -0.42775919355E+02  0.45045682337E+02  0.00000000000E+00 0. -1.
         11    1    3    3    0    0  0.33376123611E+00 -0.11528341842E+01  0.61374642211E+01  0.62537101424E+01  0.51100000000E-03 0. -1.
        -11    1    3    3    0    0  0.48565048031E+01  0.40494623026E+01  0.12432855871E+02  0.13948465479E+02  0.51100000000E-03 0.  1.
        -12    1    3    3    0    0  0.23888765201E+01  0.90151651370E+01  0.24205599263E+02  0.25940142042E+02  0.00000000000E+00 0.  1.
</event>
<event>
 7    1  0.2328810E-008  0.4614232E+02  0.7816164E-02  0.1320468E+00
        -11   -1    0    0    0    0  0.00000000000E+00  0.00000000000E+00  0.45593999997E+02  0.45594000000E+02  0.51100000000E-03 0.  1.
         11   -1    0    0    0    0 -0.00000000000E+00 -0.00000000000E+00 -0.45593999997E+02  0.45594000000E+02  0.51100000000E-03 0. -1.
    9900012    2    1    2    0    0  0.10342879478E+02  0.28633784581E+02  0.33200070803E+02  0.46142317891E+02  0.10000001184E+02 0.  0.
         12    1    1    2    0    0 -0.10342879478E+02 -0.28633784581E+02 -0.33200070803E+02  0.45045682109E+02  0.00000000000E+00 0. -1.
         11    1    3    3    0    0 -0.29468686201E+00  0.38999672306E+00  0.11100193680E+00  0.50125789942E+00  0.51100000000E-03 0. -1.
        -11    1    3    3    0    0  0.99711191073E+01  0.15535958688E+02  0.22364103929E+02  0.28999006421E+02  0.51100000000E-03 0.  1.
        -12    1    3    3    0    0  0.66644723266E+00  0.12707829170E+02  0.10724964938E+02  0.16642053571E+02  0.00000000000E+00 0.  1.
</event>
<event>
 7    1  0.2328810E-008  0.4614232E+02  0.7816164E-02  0.1320468E+00
        -11   -1    0    0    0    0  0.00000000000E+00  0.00000000000E+00  0.45593999997E+02  0.45594000000E+02  0.51100000000E-03 0. -1.
         11   -1    0    0    0    0 -0.00000000000E+00 -0.00000000000E+00 -0.45593999997E+02  0.45594000000E+02  0.51100000000E-03 0.  1.
    9900012    2    1    2    0    0  0.74088939169E+01 -0.40877472172E+02  0.17414191915E+02  0.46142317407E+02  0.99999967695E+01 0.  0.
         12    1    1    2    0    0 -0.74088939169E+01  0.40877472172E+02 -0.17414191915E+02  0.45045682593E+02  0.00000000000E+00 0. -1.
         11    1    3    3    0    0  0.56654547335E+00 -0.96500720745E+01  0.46499327812E+01  0.10726916609E+02  0.51100000000E-03 0. -1.
        -11    1    3    3    0    0  0.25271126648E+01 -0.13954142648E+01  0.92761953035E+00  0.30321539613E+01  0.51100000000E-03 0.  1.
        -12    1    3    3    0    0  0.43152357787E+01 -0.29831985833E+02  0.11836639603E+02  0.32383246836E+02  0.00000000000E+00 0.  1.
</event>
<event>
 7    1  0.2328810E-008  0.4614232E+02  0.7816164E-02  0.1320468E+00
        -11   -1    0    0    0    0  0.00000000000E+00  0.00000000000E+00  0.45593999997E+02  0.45594000000E+02  0.51100000000E-03 0.  1.
         11   -1    0    0    0    0 -0.00000000000E+00 -0.00000000000E+00 -0.45593999997E+02  0.45594000000E+02  0.51100000000E-03 0. -1.
    9900012    2    1    2    0    0  0.10337844668E+01 -0.42368449866E+02  0.15263002072E+02  0.46142317780E+02  0.10000000176E+02 0.  0.
         12    1    1    2    0    0 -0.10337844668E+01  0.42368449866E+02 -0.15263002072E+02  0.45045682220E+02  0.00000000000E+00 0. -1.
         11    1    3    3    0    0 -0.11996205560E+01 -0.17884293370E+02  0.31749742282E+01  0.18203502423E+02  0.51100000000E-03 0. -1.
        -11    1    3    3    0    0  0.28427485926E+01 -0.13590718820E+02  0.43053748870E+01  0.14537025514E+02  0.51100000000E-03 0.  1.
         12    1    3    3    0    0 -0.60934356978E+00 -0.10893437675E+02  0.77826529569E+01  0.13401789844E+02  0.00000000000E+00 0. -1.
</event>
<event>
 7    1  0.2328810E-008  0.4614232E+02  0.7816164E-02  0.1320468E+00
        -11   -1    0    0    0    0  0.00000000000E+00  0.00000000000E+00  0.45593999997E+02  0.45594000000E+02  0.51100000000E-03 0.  1.
         11   -1    0    0    0    0 -0.00000000000E+00 -0.00000000000E+00 -0.45593999997E+02  0.45594000000E+02  0.51100000000E-03 0. -1.
    9900012    2    1    2    0    0  0.82499988241E+01  0.50655468251E+00  0.44280857856E+02  0.46142318179E+02  0.10000003809E+02 0.  0.
         12    1    1    2    0    0 -0.82499988241E+01 -0.50655468251E+00 -0.44280857856E+02  0.45045681821E+02  0.00000000000E+00 0. -1.
         11    1    3    3    0    0  0.26171838697E+01 -0.14515689958E+01  0.30649950374E+01  0.42837949061E+01  0.51100000000E-03 0. -1.
        -11    1    3    3    0    0  0.48971028708E+01 -0.57713430235E-01  0.22929596496E+02  0.23446776816E+02  0.51100000000E-03 0.  1.
         12    1    3    3    0    0  0.73571208351E+00  0.20158371086E+01  0.18286266323E+02  0.18411746456E+02  0.00000000000E+00 0. -1.
</event>
<event>
 7    1  0.2328810E-008  0.4614232E+02  0.7816164E-02  0.1320468E+00
        -11   -1    0    0    0    0  0.00000000000E+00  0.00000000000E+00  0.45593999997E+02  0.45594000000E+02  0.51100000000E-03 0.  1.
         11   -1    0    0    0    0 -0.00000000000E+00 -0.00000000000E+00 -0.45593999997E+02  0.45594000000E+02  0.51100000000E-03 0. -1.
    9900012    2    1    2    0    0  0.17650185514E+02  0.14120579854E+02  0.38964004689E+02  0.46142317793E+02  0.10000000294E+02 0.  0.
         12    1    1    2    0    0 -0.17650185514E+02 -0.14120579854E+02 -0.38964004689E+02  0.45045682207E+02  0.00000000000E+00 0. -1.
         11    1    3    3    0    0  0.37279340776E+01  0.18586178721E+01  0.12627324057E+02  0.13296663716E+02  0.51100000000E-03 0. -1.
        -11    1    3    3    0    0  0.31173493121E+01  0.18201738457E+01  0.10087494867E+02  0.10713937302E+02  0.51100000000E-03 0.  1.
        -12    1    3    3    0    0  0.10804902124E+02  0.10441788136E+02  0.16249185765E+02  0.22131716775E+02  0.00000000000E+00 0.  1.
</event>
<event>
 7    1  0.2328810E-008  0.4614232E+02  0.7816164E-02  0.1320468E+00
        -11   -1    0    0    0    0  0.00000000000E+00  0.00000000000E+00  0.45593999997E+02  0.45594000000E+02  0.51100000000E-03 0.  1.
         11   -1    0    0    0    0 -0.00000000000E+00 -0.00000000000E+00 -0.45593999997E+02  0.45594000000E+02  0.51100000000E-03 0. -1.
    9900012    2    1    2    0    0 -0.39737567972E+02  0.65169715384E+01  0.20188316997E+02  0.46142319080E+02  0.10000012025E+02 0.  0.
         12    1    1    2    0    0  0.39737567972E+02 -0.65169715384E+01 -0.20188316997E+02  0.45045680920E+02  0.00000000000E+00 0. -1.
         11    1    3    3    0    0 -0.10648638812E+02  0.23020077575E+01  0.41277693329E+01  0.11650374595E+02  0.51100000000E-03 0. -1.
        -11    1    3    3    0    0 -0.12360954476E+02 -0.19577934560E+01  0.48033635457E+01  0.13405165138E+02  0.51100000000E-03 0.  1.
        -12    1    3    3    0    0 -0.16727974684E+02  0.61727572369E+01  0.11257184118E+02  0.21086779346E+02  0.00000000000E+00 0.  1.
</event>
<event>
 7    1  0.2328810E-008  0.4614232E+02  0.7816164E-02  0.1320468E+00
        -11   -1    0    0    0    0  0.00000000000E+00  0.00000000000E+00  0.45593999997E+02  0.45594000000E+02  0.51100000000E-03 0. -1.
         11   -1    0    0    0    0 -0.00000000000E+00 -0.00000000000E+00 -0.45593999997E+02  0.45594000000E+02  0.51100000000E-03 0.  1.
    9900012    2    1    2    0    0 -0.47464315373E+01  0.39667814734E+02 -0.20809836394E+02  0.46142318421E+02  0.10000006020E+02 0.  0.
         12    1    1    2    0    0  0.47464315373E+01 -0.39667814734E+02  0.20809836394E+02  0.45045681579E+02  0.00000000000E+00 0. -1.
         11    1    3    3    0    0  0.41143967857E+00  0.12020706395E+02 -0.28831208173E+01  0.12368470024E+02  0.51100000000E-03 0. -1.
        -11    1    3    3    0    0 -0.15909148197E+01  0.21026421525E+02 -0.13715084652E+02  0.25154422263E+02  0.51100000000E-03 0.  1.
        -12    1    3    3    0    0 -0.35669563962E+01  0.66206868143E+01 -0.42116309250E+01  0.86194261336E+01  0.00000000000E+00 0.  1.
</event>
<event>
 7    1  0.2328810E-008  0.4614232E+02  0.7816164E-02  0.1320468E+00
        -11   -1    0    0    0    0  0.00000000000E+00  0.00000000000E+00  0.45593999997E+02  0.45594000000E+02  0.51100000000E-03 0.  1.
         11   -1    0    0    0    0 -0.00000000000E+00 -0.00000000000E+00 -0.45593999997E+02  0.45594000000E+02  0.51100000000E-03 0. -1.
    9900012    2    1    2    0    0 -0.28642274068E+02  0.27409837853E+02  0.21387716080E+02  0.46142317920E+02  0.10000001453E+02 0.  0.
         12    1    1    2    0    0  0.28642274068E+02 -0.27409837853E+02 -0.21387716080E+02  0.45045682080E+02  0.00000000000E+00 0. -1.
         11    1    3    3    0    0 -0.38417482440E+01  0.63304928412E+01  0.11814437817E+01  0.74986651381E+01  0.51100000000E-03 0. -1.
        -11    1    3    3    0    0 -0.16610366918E+02  0.15813866176E+02  0.11860649165E+02  0.25819714395E+02  0.51100000000E-03 0.  1.
         12    1    3    3    0    0 -0.81901589064E+01  0.52654788355E+01  0.83456231330E+01  0.12823938387E+02  0.00000000000E+00 0. -1.
</event>
<event>
 7    1  0.2328810E-008  0.4614232E+02  0.7816164E-02  0.1320468E+00
        -11   -1    0    0    0    0  0.00000000000E+00  0.00000000000E+00  0.45593999997E+02  0.45594000000E+02  0.51100000000E-03 0.  1.
         11   -1    0    0    0    0 -0.00000000000E+00 -0.00000000000E+00 -0.45593999997E+02  0.45594000000E+02  0.51100000000E-03 0. -1.
    9900012    2    1    2    0    0  0.22411409535E+02 -0.10455381677E+02  0.37650062683E+02  0.46142317595E+02  0.99999984816E+01 0.  0.
         12    1    1    2    0    0 -0.22411409535E+02  0.10455381677E+02 -0.37650062683E+02  0.45045682405E+02  0.00000000000E+00 0. -1.
         11    1    3    3    0    0  0.11735775874E+02 -0.64526704982E+01  0.20329831359E+02  0.24344761968E+02  0.51100000000E-03 0. -1.
        -11    1    3    3    0    0  0.34564798879E+00 -0.16001292488E+01  0.62744093115E+01  0.64844505252E+01  0.51100000000E-03 0.  1.
         12    1    3    3    0    0  0.10329985673E+02 -0.24025819296E+01  0.11045822012E+02  0.15313105101E+02  0.00000000000E+00 0. -1.
</event>
<event>
 7    1  0.2328810E-008  0.4614232E+02  0.7816164E-02  0.1320468E+00
        -11   -1    0    0    0    0  0.00000000000E+00  0.00000000000E+00  0.45593999997E+02  0.45594000000E+02  0.51100000000E-03 0.  1.
         11   -1    0    0    0    0 -0.00000000000E+00 -0.00000000000E+00 -0.45593999997E+02  0.45594000000E+02  0.51100000000E-03 0. -1.
    9900012    2    1    2    0    0  0.24656696297E+02 -0.31004418134E+02  0.21444971344E+02  0.46142318608E+02  0.10000007727E+02 0.  0.
         12    1    1    2    0    0 -0.24656696297E+02  0.31004418134E+02 -0.21444971344E+02  0.45045681392E+02  0.00000000000E+00 0. -1.
         11    1    3    3    0    0  0.16440244211E+01 -0.26065265155E+01  0.30031987027E+01  0.43030221336E+01  0.51100000000E-03 0. -1.
        -11    1    3    3    0    0  0.19497450649E+01 -0.58040092676E+01  0.56140782757E+00  0.61484313777E+01  0.51100000000E-03 0.  1.
        -12    1    3    3    0    0  0.21062926810E+02 -0.22593882351E+02  0.17880364814E+02  0.35690865097E+02  0.00000000000E+00 0.  1.
</event>
<event>
 7    1  0.2328810E-008  0.4614232E+02  0.7816164E-02  0.1320468E+00
        -11   -1    0    0    0    0  0.00000000000E+00  0.00000000000E+00  0.45593999997E+02  0.45594000000E+02  0.51100000000E-03 0.  1.
         11   -1    0    0    0    0 -0.00000000000E+00 -0.00000000000E+00 -0.45593999997E+02  0.45594000000E+02  0.51100000000E-03 0. -1.
    9900012    2    1    2    0    0  0.10464293892E+01 -0.25604552062E+01  0.44960677682E+02  0.46142317822E+02  0.10000000552E+02 0.  0.
         12    1    1    2    0    0 -0.10464293892E+01  0.25604552062E+01 -0.44960677682E+02  0.45045682178E+02  0.00000000000E+00 0. -1.
         11    1    3    3    0    0 -0.84001251973E+00 -0.23821151631E+01  0.53583179383E+01  0.59238218299E+01  0.51100000000E-03 0. -1.
        -11    1    3    3    0    0 -0.39177804099E+00 -0.30355859297E+01  0.23973276990E+02  0.24167877066E+02  0.51100000000E-03 0.  1.
         12    1    3    3    0    0  0.22782199499E+01  0.28572458865E+01  0.15629082753E+02  0.16050618926E+02  0.00000000000E+00 0. -1.
</event>
<event>
 7    1  0.2328810E-008  0.4614232E+02  0.7816164E-02  0.1320468E+00
        -11   -1    0    0    0    0  0.00000000000E+00  0.00000000000E+00  0.45593999997E+02  0.45594000000E+02  0.51100000000E-03 0. -1.
         11   -1    0    0    0    0 -0.00000000000E+00 -0.00000000000E+00 -0.45593999997E+02  0.45594000000E+02  0.51100000000E-03 0.  1.
    9900012    2    1    2    0    0  0.18285768369E+02 -0.39281478369E+02 -0.12317046152E+02  0.46142317703E+02  0.99999994713E+01 0.  0.
         12    1    1    2    0    0 -0.18285768369E+02  0.39281478369E+02  0.12317046152E+02  0.45045682297E+02  0.00000000000E+00 0. -1.
         11    1    3    3    0    0 -0.45654085193E+00 -0.19767560420E+01 -0.77803267673E+00  0.21728619621E+01  0.51100000000E-03 0. -1.
        -11    1    3    3    0    0  0.10964971310E+02 -0.29219062597E+02 -0.85967060376E+01  0.32371091576E+02  0.51100000000E-03 0.  1.
        -12    1    3    3    0    0  0.77773379107E+01 -0.80856597301E+01 -0.29423074378E+01  0.11598364165E+02  0.00000000000E+00 0.  1.
</event>
<event>
 7    1  0.2328810E-008  0.4614232E+02  0.7816164E-02  0.1320468E+00
        -11   -1    0    0    0    0  0.00000000000E+00  0.00000000000E+00  0.45593999997E+02  0.45594000000E+02  0.51100000000E-03 0.  1.
         11   -1    0    0    0    0 -0.00000000000E+00 -0.00000000000E+00 -0.45593999997E+02  0.45594000000E+02  0.51100000000E-03 0. -1.
    9900012    2    1    2    0    0  0.41197248196E+02  0.57961207123E+01  0.17271508217E+02  0.46142320182E+02  0.10000022072E+02 0.  0.
         12    1    1    2    0    0 -0.41197248196E+02 -0.57961207123E+01 -0.17271508217E+02  0.45045679818E+02  0.00000000000E+00 0. -1.
         11    1    3    3    0    0  0.10212034110E+02  0.22082568335E+01  0.14915844147E+01  0.10553997500E+02  0.51100000000E-03 0. -1.
        -11    1    3    3    0    0  0.61904354815E+01 -0.18864330407E+01  0.25420585783E+01  0.69528543164E+01  0.51100000000E-03 0.  1.
        -12    1    3    3    0    0  0.24794778604E+02  0.54742969195E+01  0.13237865224E+02  0.28635468365E+02  0.00000000000E+00 0.  1.
</event>
<event>
 7    1  0.2328810E-008  0.4614232E+02  0.7816164E-02  0.1320468E+00
        -11   -1    0    0    0    0  0.00000000000E+00  0.00000000000E+00  0.45593999997E+02  0.45594000000E+02  0.51100000000E-03 0. -1.
         11   -1    0    0    0    0 -0.00000000000E+00 -0.00000000000E+00 -0.45593999997E+02  0.45594000000E+02  0.51100000000E-03 0.  1.
    9900012    2    1    2    0    0 -0.34785276263E+02  0.26744870488E+02 -0.10188718764E+02  0.46142317275E+02  0.99999955704E+01 0.  0.
         12    1    1    2    0    0  0.34785276263E+02 -0.26744870488E+02  0.10188718764E+02  0.45045682725E+02  0.00000000000E+00 0. -1.
         11    1    3    3    0    0 -0.11686874503E+02  0.95363533049E+01  0.12397946113E+01  0.15134799666E+02  0.51100000000E-03 0. -1.
        -11    1    3    3    0    0 -0.60951222895E+01  0.51458380124E+01 -0.32106860376E+01  0.85987597749E+01  0.51100000000E-03 0.  1.
         12    1    3    3    0    0 -0.17003279470E+02  0.12062679170E+02 -0.82178273373E+01  0.22408757834E+02  0.00000000000E+00 0. -1.
</event>
<event>
 7    1  0.2328810E-008  0.4614232E+02  0.7816164E-02  0.1320468E+00
        -11   -1    0    0    0    0  0.00000000000E+00  0.00000000000E+00  0.45593999997E+02  0.45594000000E+02  0.51100000000E-03 0.  1.
         11   -1    0    0    0    0 -0.00000000000E+00 -0.00000000000E+00 -0.45593999997E+02  0.45594000000E+02  0.51100000000E-03 0. -1.
    9900012    2    1    2    0    0 -0.26432444760E+02 -0.38673896384E+01  0.36269581595E+02  0.46142318878E+02  0.10000010188E+02 0.  0.
         12    1    1    2    0    0  0.26432444760E+02  0.38673896384E+01 -0.36269581595E+02  0.45045681122E+02  0.00000000000E+00 0. -1.
         11    1    3    3    0    0 -0.11870065118E+02 -0.38175408908E+01  0.22930899928E+02  0.26101690292E+02  0.51100000000E-03 0. -1.
        -11    1    3    3    0    0 -0.30740691895E+01 -0.12875915502E+01  0.22158942546E+01  0.40022469927E+01  0.51100000000E-03 0.  1.
        -12    1    3    3    0    0 -0.11488310452E+02  0.12377428026E+01  0.11122787413E+02  0.16038381594E+02  0.00000000000E+00 0.  1.
</event>
<event>
 7    1  0.2328810E-008  0.4614232E+02  0.7816164E-02  0.1320468E+00
        -11   -1    0    0    0    0  0.00000000000E+00  0.00000000000E+00  0.45593999997E+02  0.45594000000E+02  0.51100000000E-03 0. -1.
         11   -1    0    0    0    0 -0.00000000000E+00 -0.00000000000E+00 -0.45593999997E+02  0.45594000000E+02  0.51100000000E-03 0.  1.
    9900012    2    1    2    0    0  0.32440130005E+02 -0.28568774566E+02  0.12671882385E+02  0.46142317431E+02  0.99999969896E+01 0.  0.
         12    1    1    2    0    0 -0.32440130005E+02  0.28568774566E+02 -0.12671882385E+02  0.45045682569E+02  0.00000000000E+00 0. -1.
         11    1    3    3    0    0  0.30940815780E+01 -0.18328029611E+01  0.32542282233E+01  0.48500009377E+01  0.51100000000E-03 0. -1.
        -11    1    3    3    0    0  0.25855631800E+02 -0.20911291961E+02  0.91815839600E+01  0.34497787053E+02  0.51100000000E-03 0.  1.
        -12    1    3    3    0    0  0.34904166275E+01 -0.58246796433E+01  0.23607020162E+00  0.67945294407E+01  0.00000000000E+00 0.  1.
</event>
<event>
 7    1  0.2328810E-008  0.4614232E+02  0.7816164E-02  0.1320468E+00
        -11   -1    0    0    0    0  0.00000000000E+00  0.00000000000E+00  0.45593999997E+02  0.45594000000E+02  0.51100000000E-03 0.  1.
         11   -1    0    0    0    0 -0.00000000000E+00 -0.00000000000E+00 -0.45593999997E+02  0.45594000000E+02  0.51100000000E-03 0. -1.
    9900012    2    1    2    0    0  0.38181482228E+02 -0.13964476783E+02  0.19397971455E+02  0.46142317704E+02  0.99999994817E+01 0.  0.
         12    1    1    2    0    0 -0.38181482228E+02  0.13964476783E+02 -0.19397971455E+02  0.45045682296E+02  0.00000000000E+00 0. -1.
         11    1    3    3    0    0  0.16507614133E+02 -0.43425571871E+01  0.63128895499E+01  0.18199222567E+02  0.51100000000E-03 0. -1.
        -11    1    3    3    0    0  0.14332989911E+02 -0.71274573555E+01  0.12226553924E+02  0.20142588445E+02  0.51100000000E-03 0.  1.
         12    1    3    3    0    0  0.73408781830E+01 -0.24944622400E+01  0.85852798111E+00  0.78005066924E+01  0.00000000000E+00 0. -1.
</event>
<event>
 7    1  0.2328810E-008  0.4614232E+02  0.7816164E-02  0.1320468E+00
        -11   -1    0    0    0    0  0.00000000000E+00  0.00000000000E+00  0.45593999997E+02  0.45594000000E+02  0.51100000000E-03 0. -1.
         11   -1    0    0    0    0 -0.00000000000E+00 -0.00000000000E+00 -0.45593999997E+02  0.45594000000E+02  0.51100000000E-03 0.  1.
    9900012    2    1    2    0    0  0.14871475154E+02 -0.21604077254E+02 -0.36622621689E+02  0.46142319334E+02  0.10000014342E+02 0.  0.
         12    1    1    2    0    0 -0.14871475154E+02  0.21604077254E+02  0.36622621689E+02  0.45045680666E+02  0.00000000000E+00 0. -1.
         11    1    3    3    0    0  0.13904933523E+01 -0.56284682401E+01 -0.87816558508E+01  0.10522861124E+02  0.51100000000E-03 0. -1.
        -11    1    3    3    0    0  0.88126448613E+01 -0.14830850629E+02 -0.19897288289E+02  0.26334747414E+02  0.51100000000E-03 0.  1.
         12    1    3    3    0    0  0.46683369407E+01 -0.11447583848E+01 -0.79436775493E+01  0.92847107956E+01  0.00000000000E+00 0. -1.
</event>
<event>
 7    1  0.2328810E-008  0.4614232E+02  0.7816164E-02  0.1320468E+00
        -11   -1    0    0    0    0  0.00000000000E+00  0.00000000000E+00  0.45593999997E+02  0.45594000000E+02  0.51100000000E-03 0.  1.
         11   -1    0    0    0    0 -0.00000000000E+00 -0.00000000000E+00 -0.45593999997E+02  0.45594000000E+02  0.51100000000E-03 0. -1.
    9900012    2    1    2    0    0  0.43548137161E+01 -0.31360440359E+02  0.32041718516E+02  0.46142319325E+02  0.10000014259E+02 0.  0.
         12    1    1    2    0    0 -0.43548137161E+01  0.31360440359E+02 -0.32041718516E+02  0.45045680675E+02  0.00000000000E+00 0. -1.
         11    1    3    3    0    0 -0.79715995323E+00 -0.12162201838E+01  0.63719328744E+00  0.15876621408E+01  0.51100000000E-03 0. -1.
        -11    1    3    3    0    0  0.67024476974E+01 -0.26163483433E+02  0.24670323896E+02  0.36579715033E+02  0.51100000000E-03 0.  1.
        -12    1    3    3    0    0 -0.15504740281E+01 -0.39807367418E+01  0.67342013324E+01  0.79749421506E+01  0.00000000000E+00 0.  1.
</event>
<event>
 7    1  0.2328810E-008  0.4614232E+02  0.7816164E-02  0.1320468E+00
        -11   -1    0    0    0    0  0.00000000000E+00  0.00000000000E+00  0.45593999997E+02  0.45594000000E+02  0.51100000000E-03 0.  1.
         11   -1    0    0    0    0 -0.00000000000E+00 -0.00000000000E+00 -0.45593999997E+02  0.45594000000E+02  0.51100000000E-03 0. -1.
    9900012    2    1    2    0    0 -0.20971168230E+02 -0.19722624305E+02  0.34645946837E+02  0.46142318313E+02  0.10000005030E+02 0.  0.
         12    1    1    2    0    0  0.20971168230E+02  0.19722624305E+02 -0.34645946837E+02  0.45045681687E+02  0.00000000000E+00 0. -1.
         11    1    3    3    0    0 -0.26440526304E+00 -0.15746311020E+01  0.15351138688E+01  0.22149374939E+01  0.51100000000E-03 0. -1.
        -11    1    3    3    0    0 -0.17662745063E+02 -0.13332789800E+02  0.30443954866E+02  0.37637351596E+02  0.51100000000E-03 0.  1.
        -12    1    3    3    0    0 -0.30440179047E+01 -0.48152034026E+01  0.26668781024E+01  0.62900292230E+01  0.00000000000E+00 0.  1.
</event>
<event>
 7    1  0.2328810E-008  0.4614232E+02  0.7816164E-02  0.1320468E+00
        -11   -1    0    0    0    0  0.00000000000E+00  0.00000000000E+00  0.45593999997E+02  0.45594000000E+02  0.51100000000E-03 0.  1.
         11   -1    0    0    0    0 -0.00000000000E+00 -0.00000000000E+00 -0.45593999997E+02  0.45594000000E+02  0.51100000000E-03 0. -1.
    9900012    2    1    2    0    0  0.32390332480E+02 -0.22270298640E+02  0.22000311088E+02  0.46142317325E+02  0.99999960249E+01 0.  0.
         12    1    1    2    0    0 -0.32390332480E+02  0.22270298640E+02 -0.22000311088E+02  0.45045682675E+02  0.00000000000E+00 0. -1.
         11    1    3    3    0    0  0.18338326214E+02 -0.96579131346E+01  0.13818212594E+02  0.24910088197E+02  0.51100000000E-03 0.  1.
        -11    1    3    3    0    0 -0.18129690703E+00 -0.14819539033E+01  0.95255104487E+00  0.17709911615E+01  0.51100000000E-03 0. -1.
         12    1    3    3    0    0  0.14233303173E+02 -0.11130431602E+02  0.72295474493E+01  0.19461237967E+02  0.00000000000E+00 0. -1.
</event>
<event>
 7    1  0.2328810E-008  0.4614232E+02  0.7816164E-02  0.1320468E+00
        -11   -1    0    0    0    0  0.00000000000E+00  0.00000000000E+00  0.45593999997E+02  0.45594000000E+02  0.51100000000E-03 0.  1.
         11   -1    0    0    0    0 -0.00000000000E+00 -0.00000000000E+00 -0.45593999997E+02  0.45594000000E+02  0.51100000000E-03 0. -1.
    9900012    2    1    2    0    0 -0.44535802806E+02  0.65721224720E+01  0.15757374995E+01  0.46142317920E+02  0.10000001453E+02 0.  0.
         12    1    1    2    0    0  0.44535802806E+02 -0.65721224720E+01 -0.15757374995E+01  0.45045682080E+02  0.00000000000E+00 0. -1.
         11    1    3    3    0    0 -0.87730952571E+01  0.19528421114E+01  0.27154195744E+00  0.89919145902E+01  0.51100000000E-03 0. -1.
        -11    1    3    3    0    0 -0.31111817040E+02  0.28096940497E+01  0.39747012754E+01  0.31490280892E+02  0.51100000000E-03 0.  1.
         12    1    3    3    0    0 -0.46508905088E+01  0.18095863108E+01 -0.26705057334E+01  0.56601224380E+01  0.00000000000E+00 0. -1.
</event>
<event>
 7    1  0.2328810E-008  0.4614232E+02  0.7816164E-02  0.1320468E+00
        -11   -1    0    0    0    0  0.00000000000E+00  0.00000000000E+00  0.45593999997E+02  0.45594000000E+02  0.51100000000E-03 0. -1.
         11   -1    0    0    0    0 -0.00000000000E+00 -0.00000000000E+00 -0.45593999997E+02  0.45594000000E+02  0.51100000000E-03 0.  1.
    9900012    2    1    2    0    0  0.10047783320E+02  0.42150981400E+02 -0.12306516126E+02  0.46142317390E+02  0.99999966189E+01 0.  0.
         12    1    1    2    0    0 -0.10047783320E+02 -0.42150981400E+02  0.12306516126E+02  0.45045682610E+02  0.00000000000E+00 0. -1.
         11    1    3    3    0    0  0.92975556588E+00  0.81861616370E+01  0.43381188024E+00  0.82502048925E+01  0.51100000000E-03 0. -1.
        -11    1    3    3    0    0  0.27632641454E+01  0.21627532141E+02 -0.74756609241E+01  0.23049322805E+02  0.51100000000E-03 0.  1.
        -12    1    3    3    0    0  0.63547636089E+01  0.12337287622E+02 -0.52646670819E+01  0.14842789693E+02  0.00000000000E+00 0.  1.
</event>
<event>
 7    1  0.2328810E-008  0.4614233E+02  0.7816164E-02  0.1320468E+00
        -11   -1    0    0    0    0  0.00000000000E+00  0.00000000000E+00  0.45593999997E+02  0.45594000000E+02  0.51100000000E-03 0.  1.
         11   -1    0    0    0    0 -0.00000000000E+00 -0.00000000000E+00 -0.45593999997E+02  0.45594000000E+02  0.51100000000E-03 0. -1.
    9900012    2    1    2    0    0 -0.56496481008E+01  0.13035009964E+01  0.44670963776E+02  0.46142327142E+02  0.10000085545E+02 0.  0.
         12    1    1    2    0    0  0.56496481008E+01 -0.13035009964E+01 -0.44670963776E+02  0.45045672858E+02  0.00000000000E+00 0. -1.
         11    1    3    3    0    0  0.12318427004E+01 -0.17771731453E+01  0.52920442344E+01  0.57167747259E+01  0.51100000000E-03 0. -1.
        -11    1    3    3    0    0 -0.81225573543E+00 -0.85935699920E+00  0.13570887416E+02  0.13622306682E+02  0.51100000000E-03 0.  1.
         12    1    3    3    0    0 -0.60692350657E+01  0.39400311409E+01  0.25808032126E+02  0.26803245734E+02  0.00000000000E+00 0. -1.
</event>
<event>
 7    1  0.2328810E-008  0.4614232E+02  0.7816164E-02  0.1320468E+00
        -11   -1    0    0    0    0  0.00000000000E+00  0.00000000000E+00  0.45593999997E+02  0.45594000000E+02  0.51100000000E-03 0. -1.
         11   -1    0    0    0    0 -0.00000000000E+00 -0.00000000000E+00 -0.45593999997E+02  0.45594000000E+02  0.51100000000E-03 0.  1.
    9900012    2    1    2    0    0 -0.24719254178E+02  0.25488096362E+02 -0.27720549594E+02  0.46142318153E+02  0.10000003572E+02 0.  0.
         12    1    1    2    0    0  0.24719254178E+02 -0.25488096362E+02  0.27720549594E+02  0.45045681847E+02  0.00000000000E+00 0. -1.
         11    1    3    3    0    0 -0.28448286829E+01  0.55972235120E+01 -0.75038974412E+01  0.97841932906E+01  0.51100000000E-03 0. -1.
        -11    1    3    3    0    0 -0.11921208675E+02  0.12154385606E+02 -0.15088047919E+02  0.22748483378E+02  0.51100000000E-03 0.  1.
        -12    1    3    3    0    0 -0.99532168202E+01  0.77364872437E+01 -0.51286042342E+01  0.13609641484E+02  0.00000000000E+00 0.  1.
</event>
<event>
 7    1  0.2328810E-008  0.4614232E+02  0.7816164E-02  0.1320468E+00
        -11   -1    0    0    0    0  0.00000000000E+00  0.00000000000E+00  0.45593999997E+02  0.45594000000E+02  0.51100000000E-03 0.  1.
         11   -1    0    0    0    0 -0.00000000000E+00 -0.00000000000E+00 -0.45593999997E+02  0.45594000000E+02  0.51100000000E-03 0. -1.
    9900012    2    1    2    0    0 -0.34281146269E+01  0.14403454033E+02  0.42542942623E+02  0.46142318464E+02  0.10000006410E+02 0.  0.
         12    1    1    2    0    0  0.34281146269E+01 -0.14403454033E+02 -0.42542942623E+02  0.45045681536E+02  0.00000000000E+00 0. -1.
         11    1    3    3    0    0 -0.26540356770E+01  0.58208616494E+00  0.27735355351E+01  0.38826832608E+01  0.51100000000E-03 0. -1.
        -11    1    3    3    0    0 -0.10447474853E+00 -0.17830421159E+00  0.22793364003E+00  0.30767087988E+00  0.51100000000E-03 0.  1.
        -12    1    3    3    0    0 -0.66960420139E+00  0.13999672080E+02  0.39541473448E+02  0.41951964323E+02  0.00000000000E+00 0.  1.
</event>
<event>
 7    1  0.2328810E-008  0.4614232E+02  0.7816164E-02  0.1320468E+00
        -11   -1    0    0    0    0  0.00000000000E+00  0.00000000000E+00  0.45593999997E+02  0.45594000000E+02  0.51100000000E-03 0.  1.
         11   -1    0    0    0    0 -0.00000000000E+00 -0.00000000000E+00 -0.45593999997E+02  0.45594000000E+02  0.51100000000E-03 0. -1.
    9900012    2    1    2    0    0  0.13938270905E+02 -0.42740927249E+02 -0.28374709766E+01  0.46142317638E+02  0.99999988740E+01 0.  0.
         12    1    1    2    0    0 -0.13938270905E+02  0.42740927249E+02  0.28374709766E+01  0.45045682362E+02  0.00000000000E+00 0. -1.
         11    1    3    3    0    0  0.23803678315E+01 -0.16195174936E+02 -0.26444491925E+01  0.16581403862E+02  0.51100000000E-03 0. -1.
        -11    1    3    3    0    0  0.67410032827E+01 -0.21719126828E+02 -0.17936001165E+00  0.22741894505E+02  0.51100000000E-03 0.  1.
        -12    1    3    3    0    0  0.48168997908E+01 -0.48266254853E+01 -0.13661772449E-01  0.68190192707E+01  0.00000000000E+00 0.  1.
</event>
<event>
 7    1  0.2328810E-008  0.4614232E+02  0.7816164E-02  0.1320468E+00
        -11   -1    0    0    0    0  0.00000000000E+00  0.00000000000E+00  0.45593999997E+02  0.45594000000E+02  0.51100000000E-03 0. -1.
         11   -1    0    0    0    0 -0.00000000000E+00 -0.00000000000E+00 -0.45593999997E+02  0.45594000000E+02  0.51100000000E-03 0.  1.
    9900012    2    1    2    0    0 -0.43664198580E+02 -0.91399910131E+01 -0.62459418401E+01  0.46142318045E+02  0.10000002590E+02 0.  0.
         12    1    1    2    0    0  0.43664198580E+02  0.91399910131E+01  0.62459418401E+01  0.45045681955E+02  0.00000000000E+00 0. -1.
         11    1    3    3    0    0 -0.10253606064E+01  0.39436702185E+00 -0.83019826591E+00  0.13769964208E+01  0.51100000000E-03 0. -1.
        -11    1    3    3    0    0 -0.34314272675E+02 -0.10180897147E+02 -0.63913053101E+01  0.36358888319E+02  0.51100000000E-03 0.  1.
         12    1    3    3    0    0 -0.83245652978E+01  0.64653911174E+00  0.97556173586E+00  0.84064333056E+01  0.00000000000E+00 0. -1.
</event>
<event>
 7    1  0.2328810E-008  0.4614232E+02  0.7816164E-02  0.1320468E+00
        -11   -1    0    0    0    0  0.00000000000E+00  0.00000000000E+00  0.45593999997E+02  0.45594000000E+02  0.51100000000E-03 0.  1.
         11   -1    0    0    0    0 -0.00000000000E+00 -0.00000000000E+00 -0.45593999997E+02  0.45594000000E+02  0.51100000000E-03 0. -1.
    9900012    2    1    2    0    0 -0.42643175248E+02 -0.59093654630E+01  0.13257167503E+02  0.46142317792E+02  0.10000000278E+02 0.  0.
         12    1    1    2    0    0  0.42643175248E+02  0.59093654630E+01 -0.13257167503E+02  0.45045682208E+02  0.00000000000E+00 0. -1.
         11    1    3    3    0    0 -0.14952765290E+02  0.35166108819E+00  0.13497051791E+01  0.15017674909E+02  0.51100000000E-03 0. -1.
        -11    1    3    3    0    0 -0.20184275845E+02 -0.33053867330E+01  0.66989898885E+01  0.21522245204E+02  0.51100000000E-03 0.  1.
         12    1    3    3    0    0 -0.75061341127E+01 -0.29556398182E+01  0.52084724359E+01  0.96023976781E+01  0.00000000000E+00 0. -1.
</event>
<event>
 7    1  0.2328810E-008  0.4614232E+02  0.7816164E-02  0.1320468E+00
        -11   -1    0    0    0    0  0.00000000000E+00  0.00000000000E+00  0.45593999997E+02  0.45594000000E+02  0.51100000000E-03 0.  1.
         11   -1    0    0    0    0 -0.00000000000E+00 -0.00000000000E+00 -0.45593999997E+02  0.45594000000E+02  0.51100000000E-03 0. -1.
    9900012    2    1    2    0    0  0.66269876074E+01 -0.89257420917E+01  0.43652346841E+02  0.46142320725E+02  0.10000027024E+02 0.  0.
         12    1    1    2    0    0 -0.66269876074E+01  0.89257420917E+01 -0.43652346841E+02  0.45045679275E+02  0.00000000000E+00 0. -1.
         11    1    3    3    0    0 -0.90886190448E+00 -0.82355032140E+00  0.40370164559E+00  0.12912166252E+01  0.51100000000E-03 0. -1.
        -11    1    3    3    0    0  0.48060170855E+01 -0.66830860708E+01  0.24352859196E+02  0.25706481497E+02  0.51100000000E-03 0.  1.
         12    1    3    3    0    0  0.27298324264E+01 -0.14191056995E+01  0.18895785999E+02  0.19144622602E+02  0.00000000000E+00 0. -1.
</event>
<event>
 7    1  0.2328810E-008  0.4614232E+02  0.7816164E-02  0.1320468E+00
        -11   -1    0    0    0    0  0.00000000000E+00  0.00000000000E+00  0.45593999997E+02  0.45594000000E+02  0.51100000000E-03 0.  1.
         11   -1    0    0    0    0 -0.00000000000E+00 -0.00000000000E+00 -0.45593999997E+02  0.45594000000E+02  0.51100000000E-03 0. -1.
    9900012    2    1    2    0    0  0.19176344185E+02 -0.39554069474E+02  0.98415917719E+01  0.46142317445E+02  0.99999971183E+01 0.  0.
         12    1    1    2    0    0 -0.19176344185E+02  0.39554069474E+02 -0.98415917719E+01  0.45045682555E+02  0.00000000000E+00 0. -1.
         11    1    3    3    0    0 -0.18505923471E+00 -0.43538777008E+01  0.72020346115E+00  0.44169210136E+01  0.51100000000E-03 0. -1.
        -11    1    3    3    0    0  0.51372854237E+01 -0.11896436840E+02  0.57763401323E-01  0.12958404527E+02  0.51100000000E-03 0.  1.
        -12    1    3    3    0    0  0.14224117996E+02 -0.23303754933E+02  0.90636249095E+01  0.28766991905E+02  0.00000000000E+00 0.  1.
</event>
<event>
 7    1  0.2328810E-008  0.4614232E+02  0.7816164E-02  0.1320468E+00
        -11   -1    0    0    0    0  0.00000000000E+00  0.00000000000E+00  0.45593999997E+02  0.45594000000E+02  0.51100000000E-03 0. -1.
         11   -1    0    0    0    0 -0.00000000000E+00 -0.00000000000E+00 -0.45593999997E+02  0.45594000000E+02  0.51100000000E-03 0.  1.
    9900012    2    1    2    0    0 -0.13825971497E+02 -0.23464781431E+02 -0.35879795131E+02  0.46142321472E+02  0.10000033841E+02 0.  0.
         12    1    1    2    0    0  0.13825971497E+02  0.23464781431E+02  0.35879795131E+02  0.45045678528E+02  0.00000000000E+00 0. -1.
         11    1    3    3    0    0 -0.34609919843E+01 -0.60564515894E+01 -0.12178548799E+02  0.14034818221E+02  0.51100000000E-03 0. -1.
        -11    1    3    3    0    0 -0.10816780918E+02 -0.11721142236E+02 -0.17148805414E+02  0.23419424676E+02  0.51100000000E-03 0.  1.
         12    1    3    3    0    0  0.45180140555E+00 -0.56871876048E+01 -0.65524409176E+01  0.86880785759E+01  0.00000000000E+00 0. -1.
</event>
<event>
 7    1  0.2328810E-008  0.4614232E+02  0.7816164E-02  0.1320468E+00
        -11   -1    0    0    0    0  0.00000000000E+00  0.00000000000E+00  0.45593999997E+02  0.45594000000E+02  0.51100000000E-03 0. -1.
         11   -1    0    0    0    0 -0.00000000000E+00 -0.00000000000E+00 -0.45593999997E+02  0.45594000000E+02  0.51100000000E-03 0.  1.
    9900012    2    1    2    0    0  0.15130319620E+02 -0.34731553838E+02 -0.24370189333E+02  0.46142317278E+02  0.99999955902E+01 0.  0.
         12    1    1    2    0    0 -0.15130319620E+02  0.34731553838E+02  0.24370189333E+02  0.45045682722E+02  0.00000000000E+00 0. -1.
         11    1    3    3    0    0  0.74867482623E+01 -0.20799540297E+02 -0.18416810553E+02  0.28772403224E+02  0.51100000000E-03 0. -1.
        -11    1    3    3    0    0  0.22240062248E+01 -0.14997711774E+01 -0.38847723720E+00  0.27104302422E+01  0.51100000000E-03 0.  1.
         12    1    3    3    0    0  0.54195651332E+01 -0.12432242364E+02 -0.55649015429E+01  0.14659483811E+02  0.00000000000E+00 0. -1.
</event>
<event>
 7    1  0.2328810E-008  0.4614232E+02  0.7816164E-02  0.1320468E+00
        -11   -1    0    0    0    0  0.00000000000E+00  0.00000000000E+00  0.45593999997E+02  0.45594000000E+02  0.51100000000E-03 0.  1.
         11   -1    0    0    0    0 -0.00000000000E+00 -0.00000000000E+00 -0.45593999997E+02  0.45594000000E+02  0.51100000000E-03 0. -1.
    9900012    2    1    2    0    0 -0.40957694736E+02 -0.23460077986E+01  0.18603144316E+02  0.46142317752E+02  0.99999999192E+01 0.  0.
         12    1    1    2    0    0  0.40957694736E+02  0.23460077986E+01 -0.18603144316E+02  0.45045682248E+02  0.00000000000E+00 0. -1.
         11    1    3    3    0    0 -0.32863149419E+02  0.10856718916E+01  0.12680282228E+02  0.35241379525E+02  0.51100000000E-03 0.  1.
        -11    1    3    3    0    0 -0.68548963677E+01 -0.17839664658E+01  0.47545052928E+01  0.85309707187E+01  0.51100000000E-03 0. -1.
        -12    1    3    3    0    0 -0.12396489493E+01 -0.16477132244E+01  0.11683567957E+01  0.23699675080E+01  0.00000000000E+00 0.  1.
</event>
<event>
 7    1  0.2328810E-008  0.4614232E+02  0.7816164E-02  0.1320468E+00
        -11   -1    0    0    0    0  0.00000000000E+00  0.00000000000E+00  0.45593999997E+02  0.45594000000E+02  0.51100000000E-03 0.  1.
         11   -1    0    0    0    0 -0.00000000000E+00 -0.00000000000E+00 -0.45593999997E+02  0.45594000000E+02  0.51100000000E-03 0. -1.
    9900012    2    1    2    0    0  0.42935231816E+02 -0.12719092538E+02 -0.48891784559E+01  0.46142317499E+02  0.99999976061E+01 0.  0.
         12    1    1    2    0    0 -0.42935231816E+02  0.12719092538E+02  0.48891784559E+01  0.45045682501E+02  0.00000000000E+00 0. -1.
         11    1    3    3    0    0  0.97259826966E+01  0.69140478455E+00  0.11213545131E+01  0.98147957796E+01  0.51100000000E-03 0. -1.
        -11    1    3    3    0    0  0.10910228983E+02 -0.42310424959E+01 -0.15532191248E+01  0.11804546030E+02  0.51100000000E-03 0.  1.
         12    1    3    3    0    0  0.22299020136E+02 -0.91794548263E+01 -0.44573138442E+01  0.24522975689E+02  0.00000000000E+00 0. -1.
</event>
<event>
 7    1  0.2328810E-008  0.4614231E+02  0.7816164E-02  0.1320468E+00
        -11   -1    0    0    0    0  0.00000000000E+00  0.00000000000E+00  0.45593999997E+02  0.45594000000E+02  0.51100000000E-03 0. -1.
         11   -1    0    0    0    0 -0.00000000000E+00 -0.00000000000E+00 -0.45593999997E+02  0.45594000000E+02  0.51100000000E-03 0.  1.
    9900012    2    1    2    0    0 -0.12082662608E+01  0.22402458515E+02 -0.39061284877E+02  0.46142311736E+02  0.99999450625E+01 0.  0.
         12    1    1    2    0    0  0.12082662608E+01 -0.22402458515E+02  0.39061284877E+02  0.45045688264E+02  0.00000000000E+00 0. -1.
         11    1    3    3    0    0 -0.16669411872E+01  0.44011406457E+01 -0.14036647312E+02  0.14804600634E+02  0.51100000000E-03 0. -1.
        -11    1    3    3    0    0 -0.13025311355E+01  0.15019392365E+02 -0.17803265798E+02  0.23328844972E+02  0.51100000000E-03 0.  1.
         12    1    3    3    0    0  0.17612060619E+01  0.29819255047E+01 -0.72213717666E+01  0.80088661307E+01  0.00000000000E+00 0. -1.
</event>
<event>
 7    1  0.2328810E-008  0.4614232E+02  0.7816164E-02  0.1320468E+00
        -11   -1    0    0    0    0  0.00000000000E+00  0.00000000000E+00  0.45593999997E+02  0.45594000000E+02  0.51100000000E-03 0.  1.
         11   -1    0    0    0    0 -0.00000000000E+00 -0.00000000000E+00 -0.45593999997E+02  0.45594000000E+02  0.51100000000E-03 0. -1.
    9900012    2    1    2    0    0  0.37228150862E+01  0.15840995379E+01  0.44863624247E+02  0.46142317587E+02  0.99999984102E+01 0.  0.
         12    1    1    2    0    0 -0.37228150862E+01 -0.15840995379E+01 -0.44863624247E+02  0.45045682413E+02  0.00000000000E+00 0. -1.
         11    1    3    3    0    0 -0.14210615008E+01  0.91784119668E+00  0.24476645524E+02  0.24535036675E+02  0.51100000000E-03 0. -1.
        -11    1    3    3    0    0 -0.57093124900E+00 -0.66592164522E+00  0.60911126510E+01  0.61539473281E+01  0.51100000000E-03 0.  1.
         12    1    3    3    0    0  0.57148078359E+01  0.13321799864E+01  0.14295866072E+02  0.15453333584E+02  0.00000000000E+00 0. -1.
</event>
<event>
 7    1  0.2328810E-008  0.4614232E+02  0.7816164E-02  0.1320468E+00
        -11   -1    0    0    0    0  0.00000000000E+00  0.00000000000E+00  0.45593999997E+02  0.45594000000E+02  0.51100000000E-03 0.  1.
         11   -1    0    0    0    0 -0.00000000000E+00 -0.00000000000E+00 -0.45593999997E+02  0.45594000000E+02  0.51100000000E-03 0. -1.
    9900012    2    1    2    0    0  0.22796830865E+02  0.31019939810E+02  0.23391907956E+02  0.46142317398E+02  0.99999966865E+01 0.  0.
         12    1    1    2    0    0 -0.22796830865E+02 -0.31019939810E+02 -0.23391907956E+02  0.45045682602E+02  0.00000000000E+00 0. -1.
         11    1    3    3    0    0  0.10513118065E+02  0.93114490201E+01  0.83968288836E+01  0.16362624174E+02  0.51100000000E-03 0. -1.
        -11    1    3    3    0    0  0.85947008595E+01  0.88013892636E+01  0.69348816212E+01  0.14121824216E+02  0.51100000000E-03 0.  1.
         12    1    3    3    0    0  0.36890119406E+01  0.12907101526E+02  0.80601974510E+01  0.15657869007E+02  0.00000000000E+00 0. -1.
</event>
<event>
 7    1  0.2328810E-008  0.4614232E+02  0.7816164E-02  0.1320468E+00
        -11   -1    0    0    0    0  0.00000000000E+00  0.00000000000E+00  0.45593999997E+02  0.45594000000E+02  0.51100000000E-03 0.  1.
         11   -1    0    0    0    0 -0.00000000000E+00 -0.00000000000E+00 -0.45593999997E+02  0.45594000000E+02  0.51100000000E-03 0. -1.
    9900012    2    1    2    0    0  0.81189648005E+01 -0.42405817910E+02  0.12842992525E+02  0.46142318308E+02  0.10000004987E+02 0.  0.
         12    1    1    2    0    0 -0.81189648005E+01  0.42405817910E+02 -0.12842992525E+02  0.45045681692E+02  0.00000000000E+00 0. -1.
         11    1    3    3    0    0  0.51238169787E+00 -0.57397149074E-01  0.12884964227E+01  0.13878230181E+01  0.51100000000E-03 0. -1.
        -11    1    3    3    0    0  0.27418982983E+01 -0.11385183382E+02  0.13303458739E+01  0.11786018298E+02  0.51100000000E-03 0.  1.
        -12    1    3    3    0    0  0.48646848043E+01 -0.30963237380E+02  0.10224150229E+02  0.32968476992E+02  0.00000000000E+00 0.  1.
</event>
<event>
 7    1  0.2328810E-008  0.4614232E+02  0.7816164E-02  0.1320468E+00
        -11   -1    0    0    0    0  0.00000000000E+00  0.00000000000E+00  0.45593999997E+02  0.45594000000E+02  0.51100000000E-03 0.  1.
         11   -1    0    0    0    0 -0.00000000000E+00 -0.00000000000E+00 -0.45593999997E+02  0.45594000000E+02  0.51100000000E-03 0. -1.
    9900012    2    1    2    0    0 -0.32906843837E+02  0.19539956316E+02  0.23758014734E+02  0.46142317318E+02  0.99999959636E+01 0.  0.
         12    1    1    2    0    0  0.32906843837E+02 -0.19539956316E+02 -0.23758014734E+02  0.45045682682E+02  0.00000000000E+00 0. -1.
         11    1    3    3    0    0 -0.16322411255E+02  0.11220173323E+02  0.15846084748E+02  0.25365563283E+02  0.51100000000E-03 0. -1.
        -11    1    3    3    0    0 -0.16042871200E+02  0.85136421445E+01  0.84111883545E+01  0.20015092023E+02  0.51100000000E-03 0.  1.
         12    1    3    3    0    0 -0.54156138317E+00 -0.19385915205E+00 -0.49925836861E+00  0.76166201244E+00  0.00000000000E+00 0. -1.
</event>
<event>
 7    1  0.2328810E-008  0.4614232E+02  0.7816164E-02  0.1320468E+00
        -11   -1    0    0    0    0  0.00000000000E+00  0.00000000000E+00  0.45593999997E+02  0.45594000000E+02  0.51100000000E-03 0.  1.
         11   -1    0    0    0    0 -0.00000000000E+00 -0.00000000000E+00 -0.45593999997E+02  0.45594000000E+02  0.51100000000E-03 0. -1.
    9900012    2    1    2    0    0  0.25272171034E+02 -0.14813620679E+02  0.34219694172E+02  0.46142318125E+02  0.10000003315E+02 0.  0.
         12    1    1    2    0    0 -0.25272171034E+02  0.14813620679E+02 -0.34219694172E+02  0.45045681875E+02  0.00000000000E+00 0. -1.
         11    1    3    3    0    0  0.39131026243E+00  0.10163220642E+01  0.97851251416E+00  0.14640769314E+01  0.51100000000E-03 0. -1.
        -11    1    3    3    0    0  0.12386719514E+02 -0.91708962621E+01  0.20374716455E+02  0.25547313547E+02  0.51100000000E-03 0.  1.
         12    1    3    3    0    0  0.12494141257E+02 -0.66590464811E+01  0.12866465202E+02  0.19130927646E+02  0.00000000000E+00 0. -1.
</event>
<event>
 7    1  0.2328810E-008  0.4614232E+02  0.7816164E-02  0.1320468E+00
        -11   -1    0    0    0    0  0.00000000000E+00  0.00000000000E+00  0.45593999997E+02  0.45594000000E+02  0.51100000000E-03 0.  1.
         11   -1    0    0    0    0 -0.00000000000E+00 -0.00000000000E+00 -0.45593999997E+02  0.45594000000E+02  0.51100000000E-03 0. -1.
    9900012    2    1    2    0    0 -0.16430246347E+02  0.20127704099E+02  0.36797227447E+02  0.46142318575E+02  0.10000007417E+02 0.  0.
         12    1    1    2    0    0  0.16430246347E+02 -0.20127704099E+02 -0.36797227447E+02  0.45045681425E+02  0.00000000000E+00 0. -1.
         11    1    3    3    0    0 -0.34404102345E+00  0.77001025718E+00  0.44998028041E+01  0.45781552571E+01  0.51100000000E-03 0. -1.
        -11    1    3    3    0    0 -0.20099220231E+01  0.55799265681E+01  0.11378484386E+02  0.12831417468E+02  0.51100000000E-03 0.  1.
        -12    1    3    3    0    0 -0.14076283300E+02  0.13777767274E+02  0.20918940256E+02  0.28732745850E+02  0.00000000000E+00 0.  1.
</event>
<event>
 7    1  0.2328810E-008  0.4614232E+02  0.7816164E-02  0.1320468E+00
        -11   -1    0    0    0    0  0.00000000000E+00  0.00000000000E+00  0.45593999997E+02  0.45594000000E+02  0.51100000000E-03 0.  1.
         11   -1    0    0    0    0 -0.00000000000E+00 -0.00000000000E+00 -0.45593999997E+02  0.45594000000E+02  0.51100000000E-03 0. -1.
    9900012    2    1    2    0    0 -0.40032342107E+02 -0.20345239928E+02  0.35491363444E+01  0.46142316843E+02  0.99999916280E+01 0.  0.
         12    1    1    2    0    0  0.40032342107E+02  0.20345239928E+02 -0.35491363444E+01  0.45045683157E+02  0.00000000000E+00 0. -1.
         11    1    3    3    0    0 -0.10326366572E+02 -0.29013392613E+01  0.44851734244E+01  0.11626194433E+02  0.51100000000E-03 0. -1.
        -11    1    3    3    0    0 -0.15046321781E+02 -0.87085436706E+01  0.49024585399E+00  0.17391689776E+02  0.51100000000E-03 0.  1.
         12    1    3    3    0    0 -0.14659653755E+02 -0.87353569959E+01 -0.14262829339E+01  0.17124432635E+02  0.00000000000E+00 0. -1.
</event>
<event>
 7    1  0.2328810E-008  0.4614232E+02  0.7816164E-02  0.1320468E+00
        -11   -1    0    0    0    0  0.00000000000E+00  0.00000000000E+00  0.45593999997E+02  0.45594000000E+02  0.51100000000E-03 0.  1.
         11   -1    0    0    0    0 -0.00000000000E+00 -0.00000000000E+00 -0.45593999997E+02  0.45594000000E+02  0.51100000000E-03 0. -1.
    9900012    2    1    2    0    0 -0.30536944045E+02 -0.75657633368E+01  0.32239227212E+02  0.46142317658E+02  0.99999990564E+01 0.  0.
         12    1    1    2    0    0  0.30536944045E+02  0.75657633368E+01 -0.32239227212E+02  0.45045682342E+02  0.00000000000E+00 0. -1.
         11    1    3    3    0    0 -0.18021156626E+02 -0.38214089879E+01  0.12530222008E+02  0.22279401173E+02  0.51100000000E-03 0. -1.
        -11    1    3    3    0    0 -0.10429867630E+02 -0.40318404580E+01  0.15042888049E+02  0.18743701805E+02  0.51100000000E-03 0.  1.
         12    1    3    3    0    0 -0.20859197888E+01  0.28748610915E+00  0.46661171549E+01  0.51192146792E+01  0.00000000000E+00 0. -1.
</event>
<event>
 7    1  0.2328810E-008  0.4614232E+02  0.7816164E-02  0.1320468E+00
        -11   -1    0    0    0    0  0.00000000000E+00  0.00000000000E+00  0.45593999997E+02  0.45594000000E+02  0.51100000000E-03 0.  1.
         11   -1    0    0    0    0 -0.00000000000E+00 -0.00000000000E+00 -0.45593999997E+02  0.45594000000E+02  0.51100000000E-03 0. -1.
    9900012    2    1    2    0    0 -0.21183647518E+02 -0.38342482791E+02 -0.10498596553E+02  0.46142318317E+02  0.10000005067E+02 0.  0.
         12    1    1    2    0    0  0.21183647518E+02  0.38342482791E+02  0.10498596553E+02  0.45045681683E+02  0.00000000000E+00 0. -1.
         11    1    3    3    0    0 -0.40319899270E+01 -0.68416551676E+01 -0.38871123671E+01  0.88416531836E+01  0.51100000000E-03 0. -1.
        -11    1    3    3    0    0 -0.16947219504E+02 -0.31972019329E+02 -0.64116204308E+01  0.36749518986E+02  0.51100000000E-03 0.  1.
        -12    1    3    3    0    0 -0.20443808691E+00  0.47119170574E+00 -0.19986375500E+00  0.55114614714E+00  0.00000000000E+00 0.  1.
</event>
<event>
 7    1  0.2328810E-008  0.4614232E+02  0.7816164E-02  0.1320468E+00
        -11   -1    0    0    0    0  0.00000000000E+00  0.00000000000E+00  0.45593999997E+02  0.45594000000E+02  0.51100000000E-03 0. -1.
         11   -1    0    0    0    0 -0.00000000000E+00 -0.00000000000E+00 -0.45593999997E+02  0.45594000000E+02  0.51100000000E-03 0.  1.
    9900012    2    1    2    0    0  0.10792803667E+02 -0.27317232650E+02 -0.34152563690E+02  0.46142318550E+02  0.10000007197E+02 0.  0.
         12    1    1    2    0    0 -0.10792803667E+02  0.27317232650E+02  0.34152563690E+02  0.45045681450E+02  0.00000000000E+00 0. -1.
         11    1    3    3    0    0  0.36282882926E+01 -0.29769141128E+01 -0.37449422525E+01  0.60042556828E+01  0.51100000000E-03 0. -1.
        -11    1    3    3    0    0  0.69195544496E+01 -0.12576268235E+02 -0.15148963964E+02  0.20869448146E+02  0.51100000000E-03 0.  1.
        -12    1    3    3    0    0  0.24496092508E+00 -0.11764050303E+02 -0.15258657473E+02  0.19268614721E+02  0.00000000000E+00 0.  1.
</event>
<event>
 7    1  0.2328810E-008  0.4614232E+02  0.7816164E-02  0.1320468E+00
        -11   -1    0    0    0    0  0.00000000000E+00  0.00000000000E+00  0.45593999997E+02  0.45594000000E+02  0.51100000000E-03 0. -1.
         11   -1    0    0    0    0 -0.00000000000E+00 -0.00000000000E+00 -0.45593999997E+02  0.45594000000E+02  0.51100000000E-03 0.  1.
    9900012    2    1    2    0    0  0.19315428604E+02  0.40610701943E+02 -0.26074135877E+01  0.46142317631E+02  0.99999988138E+01 0.  0.
         12    1    1    2    0    0 -0.19315428604E+02 -0.40610701943E+02  0.26074135877E+01  0.45045682369E+02  0.00000000000E+00 0. -1.
         11    1    3    3    0    0  0.71182808035E+00  0.13766018890E+01 -0.20881198572E+01  0.26003801214E+01  0.51100000000E-03 0. -1.
        -11    1    3    3    0    0  0.97290923397E+01  0.16820543648E+02 -0.10486083853E+00  0.19431853293E+02  0.51100000000E-03 0.  1.
        -12    1    3    3    0    0  0.88745081837E+01  0.22413556406E+02 -0.41443289195E+00  0.24110084216E+02  0.00000000000E+00 0.  1.
</event>
<event>
 7    1  0.2328810E-008  0.4614232E+02  0.7816164E-02  0.1320468E+00
        -11   -1    0    0    0    0  0.00000000000E+00  0.00000000000E+00  0.45593999997E+02  0.45594000000E+02  0.51100000000E-03 0.  1.
         11   -1    0    0    0    0 -0.00000000000E+00 -0.00000000000E+00 -0.45593999997E+02  0.45594000000E+02  0.51100000000E-03 0. -1.
    9900012    2    1    2    0    0  0.19881106898E+02 -0.14609818566E+02  0.37688303186E+02  0.46142318663E+02  0.10000008228E+02 0.  0.
         12    1    1    2    0    0 -0.19881106898E+02  0.14609818566E+02 -0.37688303186E+02  0.45045681337E+02  0.00000000000E+00 0. -1.
         11    1    3    3    0    0  0.49210772138E+01 -0.31805790590E+01  0.55945294714E+01  0.81013483053E+01  0.51100000000E-03 0. -1.
        -11    1    3    3    0    0  0.87472493944E+01 -0.10941104938E+02  0.19750763548E+02  0.24213938346E+02  0.51100000000E-03 0.  1.
        -12    1    3    3    0    0  0.62127802898E+01 -0.48813456893E+00  0.12343010167E+02  0.13827032012E+02  0.00000000000E+00 0.  1.
</event>
<event>
 7    1  0.2328810E-008  0.4614232E+02  0.7816164E-02  0.1320468E+00
        -11   -1    0    0    0    0  0.00000000000E+00  0.00000000000E+00  0.45593999997E+02  0.45594000000E+02  0.51100000000E-03 0.  1.
         11   -1    0    0    0    0 -0.00000000000E+00 -0.00000000000E+00 -0.45593999997E+02  0.45594000000E+02  0.51100000000E-03 0. -1.
    9900012    2    1    2    0    0  0.22775571384E+02 -0.38770461650E+02  0.26903940348E+01  0.46142316871E+02  0.99999918875E+01 0.  0.
         12    1    1    2    0    0 -0.22775571384E+02  0.38770461650E+02 -0.26903940348E+01  0.45045683129E+02  0.00000000000E+00 0. -1.
         11    1    3    3    0    0  0.47191219021E+01 -0.24015836228E+01  0.57835294660E+00  0.53265568444E+01  0.51100000000E-03 0. -1.
        -11    1    3    3    0    0  0.64849405649E+01 -0.11717003566E+02  0.22687541062E+01  0.13582704891E+02  0.51100000000E-03 0.  1.
         12    1    3    3    0    0  0.11571508917E+02 -0.24651874461E+02 -0.15671301802E+00  0.27233055136E+02  0.00000000000E+00 0. -1.
</event>
<event>
 7    1  0.2328810E-008  0.4614230E+02  0.7816164E-02  0.1320468E+00
        -11   -1    0    0    0    0  0.00000000000E+00  0.00000000000E+00  0.45593999997E+02  0.45594000000E+02  0.51100000000E-03 0.  1.
         11   -1    0    0    0    0 -0.00000000000E+00 -0.00000000000E+00 -0.45593999997E+02  0.45594000000E+02  0.51100000000E-03 0. -1.
    9900012    2    1    2    0    0 -0.31902386349E+00  0.58492332608E+01  0.44663179337E+02  0.46142302153E+02  0.99998576758E+01 0.  0.
         12    1    1    2    0    0  0.31902386349E+00 -0.58492332608E+01 -0.44663179337E+02  0.45045697847E+02  0.00000000000E+00 0. -1.
         11    1    3    3    0    0  0.18777926964E+00  0.26480240890E+01  0.40163869504E+01  0.48144217749E+01  0.51100000000E-03 0. -1.
        -11    1    3    3    0    0 -0.14316661003E+01 -0.98708369918E+00  0.32506102843E+01  0.36865254012E+01  0.51100000000E-03 0.  1.
        -12    1    3    3    0    0  0.92486296716E+00  0.41882928710E+01  0.37396182103E+02  0.37641354977E+02  0.00000000000E+00 0.  1.
</event>
<event>
 7    1  0.2328810E-008  0.4614232E+02  0.7816164E-02  0.1320468E+00
        -11   -1    0    0    0    0  0.00000000000E+00  0.00000000000E+00  0.45593999997E+02  0.45594000000E+02  0.51100000000E-03 0.  1.
         11   -1    0    0    0    0 -0.00000000000E+00 -0.00000000000E+00 -0.45593999997E+02  0.45594000000E+02  0.51100000000E-03 0. -1.
    9900012    2    1    2    0    0 -0.75171100111E+01 -0.40569956835E+02  0.18074433856E+02  0.46142317635E+02  0.99999988505E+01 0.  0.
         12    1    1    2    0    0  0.75171100111E+01  0.40569956835E+02 -0.18074433856E+02  0.45045682365E+02  0.00000000000E+00 0. -1.
         11    1    3    3    0    0 -0.21672452739E+01 -0.17729739234E+02  0.40952844997E+01  0.18325172872E+02  0.51100000000E-03 0. -1.
        -11    1    3    3    0    0 -0.66333926613E+00 -0.10231896674E+02  0.37471238949E+01  0.10916623391E+02  0.51100000000E-03 0.  1.
         12    1    3    3    0    0 -0.46865254710E+01 -0.12608320927E+02  0.10232025462E+02  0.16900521372E+02  0.00000000000E+00 0. -1.
</event>
<event>
 7    1  0.2328810E-008  0.4614232E+02  0.7816164E-02  0.1320468E+00
        -11   -1    0    0    0    0  0.00000000000E+00  0.00000000000E+00  0.45593999997E+02  0.45594000000E+02  0.51100000000E-03 0. -1.
         11   -1    0    0    0    0 -0.00000000000E+00 -0.00000000000E+00 -0.45593999997E+02  0.45594000000E+02  0.51100000000E-03 0.  1.
    9900012    2    1    2    0    0 -0.44619869885E+01  0.32816188766E+02 -0.30533618125E+02  0.46142318644E+02  0.10000008049E+02 0.  0.
         12    1    1    2    0    0  0.44619869885E+01 -0.32816188766E+02  0.30533618125E+02  0.45045681356E+02  0.00000000000E+00 0. -1.
         11    1    3    3    0    0 -0.31827182882E+01  0.62536933557E+01 -0.37955909976E+01  0.79777746002E+01  0.51100000000E-03 0. -1.
        -11    1    3    3    0    0 -0.21279610319E+01  0.91021253071E+01 -0.63102020373E+01  0.11278100606E+02  0.51100000000E-03 0.  1.
        -12    1    3    3    0    0  0.84869233157E+00  0.17460370103E+02 -0.20427825090E+02  0.26886443438E+02  0.00000000000E+00 0.  1.
</event>
<event>
 7    1  0.2328810E-008  0.4614232E+02  0.7816164E-02  0.1320468E+00
        -11   -1    0    0    0    0  0.00000000000E+00  0.00000000000E+00  0.45593999997E+02  0.45594000000E+02  0.51100000000E-03 0. -1.
         11   -1    0    0    0    0 -0.00000000000E+00 -0.00000000000E+00 -0.45593999997E+02  0.45594000000E+02  0.51100000000E-03 0.  1.
    9900012    2    1    2    0    0 -0.24759578160E+01 -0.38473661315E+02  0.23297212372E+02  0.46142322223E+02  0.10000040683E+02 0.  0.
         12    1    1    2    0    0  0.24759578160E+01  0.38473661315E+02 -0.23297212372E+02  0.45045677777E+02  0.00000000000E+00 0. -1.
         11    1    3    3    0    0 -0.65752585612E+00 -0.28941374573E+00  0.55810290017E+00  0.90971406277E+00  0.51100000000E-03 0. -1.
        -11    1    3    3    0    0 -0.15871913228E+01 -0.21510211413E+02  0.17433477253E+02  0.27733274252E+02  0.51100000000E-03 0.  1.
         12    1    3    3    0    0 -0.23124063702E+00 -0.16674036157E+02  0.53056322190E+01  0.17499333908E+02  0.00000000000E+00 0. -1.
</event>
<event>
 7    1  0.2328810E-008  0.4614232E+02  0.7816164E-02  0.1320468E+00
        -11   -1    0    0    0    0  0.00000000000E+00  0.00000000000E+00  0.45593999997E+02  0.45594000000E+02  0.51100000000E-03 0. -1.
         11   -1    0    0    0    0 -0.00000000000E+00 -0.00000000000E+00 -0.45593999997E+02  0.45594000000E+02  0.51100000000E-03 0.  1.
    9900012    2    1    2    0    0  0.18613286140E+02 -0.41007996429E+02  0.10016673948E+01  0.46142317303E+02  0.99999958250E+01 0.  0.
         12    1    1    2    0    0 -0.18613286140E+02  0.41007996429E+02 -0.10016673948E+01  0.45045682697E+02  0.00000000000E+00 0. -1.
         11    1    3    3    0    0  0.90326578761E+01 -0.21946929946E+02 -0.11693927903E+01  0.23761820682E+02  0.51100000000E-03 0.  1.
        -11    1    3    3    0    0  0.83446883520E+01 -0.95466444562E+01  0.13399820686E+01  0.12750207695E+02  0.51100000000E-03 0. -1.
         12    1    3    3    0    0  0.12359399124E+01 -0.95144220260E+01  0.83107811654E+00  0.96302889257E+01  0.00000000000E+00 0. -1.
</event>
<event>
 7    1  0.2328810E-008  0.4614232E+02  0.7816164E-02  0.1320468E+00
        -11   -1    0    0    0    0  0.00000000000E+00  0.00000000000E+00  0.45593999997E+02  0.45594000000E+02  0.51100000000E-03 0.  1.
         11   -1    0    0    0    0 -0.00000000000E+00 -0.00000000000E+00 -0.45593999997E+02  0.45594000000E+02  0.51100000000E-03 0. -1.
    9900012    2    1    2    0    0 -0.41701604120E+02 -0.27079336087E+01  0.16815374600E+02  0.46142317482E+02  0.99999974506E+01 0.  0.
         12    1    1    2    0    0  0.41701604120E+02  0.27079336087E+01 -0.16815374600E+02  0.45045682518E+02  0.00000000000E+00 0. -1.
         11    1    3    3    0    0 -0.30566250109E+02  0.36992088541E-01  0.91617709416E+01  0.31909795693E+02  0.51100000000E-03 0. -1.
        -11    1    3    3    0    0 -0.30486810493E+01 -0.20141649815E+01  0.11538593024E+01  0.38318022214E+01  0.51100000000E-03 0.  1.
         12    1    3    3    0    0 -0.80866729616E+01 -0.73076071573E+00  0.64997443560E+01  0.10400719567E+02  0.00000000000E+00 0. -1.
</event>
<event>
 7    1  0.2328810E-008  0.4614232E+02  0.7816164E-02  0.1320468E+00
        -11   -1    0    0    0    0  0.00000000000E+00  0.00000000000E+00  0.45593999997E+02  0.45594000000E+02  0.51100000000E-03 0. -1.
         11   -1    0    0    0    0 -0.00000000000E+00 -0.00000000000E+00 -0.45593999997E+02  0.45594000000E+02  0.51100000000E-03 0.  1.
    9900012    2    1    2    0    0  0.15966758889E+02 -0.30750590019E+02 -0.28785015768E+02  0.46142319755E+02  0.10000018181E+02 0.  0.
         12    1    1    2    0    0 -0.15966758889E+02  0.30750590019E+02  0.28785015768E+02  0.45045680245E+02  0.00000000000E+00 0. -1.
         11    1    3    3    0    0  0.50905572399E+00 -0.85183835191E+01 -0.62622042062E+01  0.10584762505E+02  0.51100000000E-03 0. -1.
        -11    1    3    3    0    0  0.65736431606E+01 -0.10749378779E+02 -0.74880491340E+01  0.14657176012E+02  0.51100000000E-03 0.  1.
        -12    1    3    3    0    0  0.88840600046E+01 -0.11482827721E+02 -0.15034762428E+02  0.20900381238E+02  0.00000000000E+00 0.  1.
</event>
<event>
 7    1  0.2328810E-008  0.4614232E+02  0.7816164E-02  0.1320468E+00
        -11   -1    0    0    0    0  0.00000000000E+00  0.00000000000E+00  0.45593999997E+02  0.45594000000E+02  0.51100000000E-03 0.  1.
         11   -1    0    0    0    0 -0.00000000000E+00 -0.00000000000E+00 -0.45593999997E+02  0.45594000000E+02  0.51100000000E-03 0. -1.
    9900012    2    1    2    0    0  0.18056549070E+02  0.30379890654E+02  0.27930929807E+02  0.46142316962E+02  0.99999927166E+01 0.  0.
         12    1    1    2    0    0 -0.18056549070E+02 -0.30379890654E+02 -0.27930929807E+02  0.45045683038E+02  0.00000000000E+00 0. -1.
         11    1    3    3    0    0  0.46436064217E+01  0.82958684692E+01  0.13273533790E+02  0.16327008722E+02  0.51100000000E-03 0.  1.
        -11    1    3    3    0    0  0.24822723861E+01  0.43672047902E+01  0.17417299378E+01  0.53167449925E+01  0.51100000000E-03 0. -1.
        -12    1    3    3    0    0  0.10930670262E+02  0.17716817394E+02  0.12915666079E+02  0.24498563248E+02  0.00000000000E+00 0.  1.
</event>
<event>
 7    1  0.2328810E-008  0.4614232E+02  0.7816164E-02  0.1320468E+00
        -11   -1    0    0    0    0  0.00000000000E+00  0.00000000000E+00  0.45593999997E+02  0.45594000000E+02  0.51100000000E-03 0.  1.
         11   -1    0    0    0    0 -0.00000000000E+00 -0.00000000000E+00 -0.45593999997E+02  0.45594000000E+02  0.51100000000E-03 0. -1.
    9900012    2    1    2    0    0  0.33108142234E+02 -0.20367925123E+02  0.22762076317E+02  0.46142316808E+02  0.99999913046E+01 0.  0.
         12    1    1    2    0    0 -0.33108142234E+02  0.20367925123E+02 -0.22762076317E+02  0.45045683192E+02  0.00000000000E+00 0. -1.
         11    1    3    3    0    0  0.55464863072E+01 -0.57525439768E+01  0.22272931962E+01  0.82955474686E+01  0.51100000000E-03 0. -1.
        -11    1    3    3    0    0  0.65487696206E+01 -0.65440209103E+01  0.66559896604E+01  0.11402315196E+02  0.51100000000E-03 0.  1.
        -12    1    3    3    0    0  0.21012886306E+02 -0.80713602363E+01  0.13878793460E+02  0.26444454143E+02  0.00000000000E+00 0.  1.
</event>
<event>
 7    1  0.2328810E-008  0.4614232E+02  0.7816164E-02  0.1320468E+00
        -11   -1    0    0    0    0  0.00000000000E+00  0.00000000000E+00  0.45593999997E+02  0.45594000000E+02  0.51100000000E-03 0.  1.
         11   -1    0    0    0    0 -0.00000000000E+00 -0.00000000000E+00 -0.45593999997E+02  0.45594000000E+02  0.51100000000E-03 0. -1.
    9900012    2    1    2    0    0 -0.97194991616E+01  0.20582106552E+02  0.38871862248E+02  0.46142318202E+02  0.10000004020E+02 0.  0.
         12    1    1    2    0    0  0.97194991616E+01 -0.20582106552E+02 -0.38871862248E+02  0.45045681798E+02  0.00000000000E+00 0. -1.
         11    1    3    3    0    0 -0.67385249380E+01  0.77891139723E+01  0.18959528529E+02  0.21576416225E+02  0.51100000000E-03 0. -1.
        -11    1    3    3    0    0 -0.32728977261E+01  0.25743809499E+01  0.57317630935E+01  0.70846598523E+01  0.51100000000E-03 0.  1.
         12    1    3    3    0    0  0.29192350256E+00  0.10218611630E+02  0.14180570625E+02  0.17481242125E+02  0.00000000000E+00 0. -1.
</event>
<event>
 7    1  0.2328810E-008  0.4614232E+02  0.7816164E-02  0.1320468E+00
        -11   -1    0    0    0    0  0.00000000000E+00  0.00000000000E+00  0.45593999997E+02  0.45594000000E+02  0.51100000000E-03 0.  1.
         11   -1    0    0    0    0 -0.00000000000E+00 -0.00000000000E+00 -0.45593999997E+02  0.45594000000E+02  0.51100000000E-03 0. -1.
    9900012    2    1    2    0    0  0.44041876589E+02  0.88740740835E+01  0.32676256191E+01  0.46142318059E+02  0.10000002720E+02 0.  0.
         12    1    1    2    0    0 -0.44041876589E+02 -0.88740740835E+01 -0.32676256191E+01  0.45045681941E+02  0.00000000000E+00 0. -1.
         11    1    3    3    0    0  0.43729902734E+01 -0.69224607202E+00  0.54136588540E+00  0.44604176753E+01  0.51100000000E-03 0. -1.
        -11    1    3    3    0    0  0.39383574001E+02  0.84516919084E+01  0.32632380804E+01  0.40412197666E+02  0.51100000000E-03 0.  1.
        -12    1    3    3    0    0  0.28531231450E+00  0.11146282472E+01 -0.53697834665E+00  0.12697027176E+01  0.00000000000E+00 0.  1.
</event>
<event>
 7    1  0.2328810E-008  0.4614232E+02  0.7816164E-02  0.1320468E+00
        -11   -1    0    0    0    0  0.00000000000E+00  0.00000000000E+00  0.45593999997E+02  0.45594000000E+02  0.51100000000E-03 0.  1.
         11   -1    0    0    0    0 -0.00000000000E+00 -0.00000000000E+00 -0.45593999997E+02  0.45594000000E+02  0.51100000000E-03 0. -1.
    9900012    2    1    2    0    0 -0.52371492720E+01  0.11438982324E+02  0.43253154830E+02  0.46142318166E+02  0.10000003695E+02 0.  0.
         12    1    1    2    0    0  0.52371492720E+01 -0.11438982324E+02 -0.43253154830E+02  0.45045681834E+02  0.00000000000E+00 0. -1.
         11    1    3    3    0    0  0.78159409843E+00  0.74614639815E+01  0.28439987251E+02  0.29412874888E+02  0.51100000000E-03 0. -1.
        -11    1    3    3    0    0 -0.22586753329E+01  0.30502429803E+01  0.87131088341E+01  0.95038866951E+01  0.51100000000E-03 0.  1.
         12    1    3    3    0    0 -0.37600680376E+01  0.92727536232E+00  0.61000587449E+01  0.72255565831E+01  0.00000000000E+00 0. -1.
</event>
<event>
 7    1  0.2328810E-008  0.4614232E+02  0.7816164E-02  0.1320468E+00
        -11   -1    0    0    0    0  0.00000000000E+00  0.00000000000E+00  0.45593999997E+02  0.45594000000E+02  0.51100000000E-03 0. -1.
         11   -1    0    0    0    0 -0.00000000000E+00 -0.00000000000E+00 -0.45593999997E+02  0.45594000000E+02  0.51100000000E-03 0.  1.
    9900012    2    1    2    0    0  0.39953512307E+02  0.99626677538E+01 -0.18264051115E+02  0.46142318103E+02  0.10000003117E+02 0.  0.
         12    1    1    2    0    0 -0.39953512307E+02 -0.99626677538E+01  0.18264051115E+02  0.45045681897E+02  0.00000000000E+00 0. -1.
         11    1    3    3    0    0  0.95060931877E+01  0.49079780607E+01 -0.44139987060E+01  0.11573134458E+02  0.51100000000E-03 0. -1.
        -11    1    3    3    0    0  0.19137515463E+02  0.50553239909E+01 -0.56027690559E+01  0.20571626579E+02  0.51100000000E-03 0.  1.
         12    1    3    3    0    0  0.11309903656E+02 -0.63429772927E-03 -0.82472833535E+01  0.13997557066E+02  0.00000000000E+00 0. -1.
</event>
<event>
 7    1  0.2328810E-008  0.4614232E+02  0.7816164E-02  0.1320468E+00
        -11   -1    0    0    0    0  0.00000000000E+00  0.00000000000E+00  0.45593999997E+02  0.45594000000E+02  0.51100000000E-03 0. -1.
         11   -1    0    0    0    0 -0.00000000000E+00 -0.00000000000E+00 -0.45593999997E+02  0.45594000000E+02  0.51100000000E-03 0.  1.
    9900012    2    1    2    0    0 -0.26043888122E+02  0.36482004209E+02 -0.44601224838E+01  0.46142318384E+02  0.10000005683E+02 0.  0.
         12    1    1    2    0    0  0.26043888122E+02 -0.36482004209E+02  0.44601224838E+01  0.45045681616E+02  0.00000000000E+00 0. -1.
         11    1    3    3    0    0 -0.10924764372E+02  0.15638318766E+02 -0.69440959832E+00  0.19088994090E+02  0.51100000000E-03 0. -1.
        -11    1    3    3    0    0 -0.14350703443E+02  0.21380471075E+02 -0.31743127651E+01  0.25945009047E+02  0.51100000000E-03 0.  1.
         12    1    3    3    0    0 -0.76842030798E+00 -0.53678563180E+00 -0.59140012037E+00  0.11083152469E+01  0.00000000000E+00 0. -1.
</event>
<event>
 7    1  0.2328810E-008  0.4614232E+02  0.7816164E-02  0.1320468E+00
        -11   -1    0    0    0    0  0.00000000000E+00  0.00000000000E+00  0.45593999997E+02  0.45594000000E+02  0.51100000000E-03 0. -1.
         11   -1    0    0    0    0 -0.00000000000E+00 -0.00000000000E+00 -0.45593999997E+02  0.45594000000E+02  0.51100000000E-03 0.  1.
    9900012    2    1    2    0    0 -0.13953451189E+02 -0.36002611672E+02 -0.23199716961E+02  0.46142315253E+02  0.99999771279E+01 0.  0.
         12    1    1    2    0    0  0.13953451189E+02  0.36002611672E+02  0.23199716961E+02  0.45045684747E+02  0.00000000000E+00 0. -1.
         11    1    3    3    0    0 -0.42012181267E+01 -0.13381637015E+02 -0.76264036820E+01  0.15964976553E+02  0.51100000000E-03 0.  1.
        -11    1    3    3    0    0 -0.30095983358E+01 -0.14361979823E+02 -0.11925487290E+02  0.18908765003E+02  0.51100000000E-03 0. -1.
         12    1    3    3    0    0 -0.67426347262E+01 -0.82589948338E+01 -0.36478259888E+01  0.11268573697E+02  0.00000000000E+00 0. -1.
</event>
<event>
 7    1  0.2328810E-008  0.4614232E+02  0.7816164E-02  0.1320468E+00
        -11   -1    0    0    0    0  0.00000000000E+00  0.00000000000E+00  0.45593999997E+02  0.45594000000E+02  0.51100000000E-03 0. -1.
         11   -1    0    0    0    0 -0.00000000000E+00 -0.00000000000E+00 -0.45593999997E+02  0.45594000000E+02  0.51100000000E-03 0.  1.
    9900012    2    1    2    0    0 -0.17496717154E+00 -0.42320515377E+02 -0.15429095645E+02  0.46142316215E+02  0.99999858989E+01 0.  0.
         12    1    1    2    0    0  0.17496717154E+00  0.42320515377E+02  0.15429095645E+02  0.45045683785E+02  0.00000000000E+00 0. -1.
         11    1    3    3    0    0  0.16423875506E+01 -0.12986568625E+02 -0.78899790743E+01  0.15283984153E+02  0.51100000000E-03 0. -1.
        -11    1    3    3    0    0  0.18561590467E+01 -0.11386828962E+02 -0.39211732418E+01  0.12185269799E+02  0.51100000000E-03 0.  1.
         12    1    3    3    0    0 -0.36735137689E+01 -0.17947117789E+02 -0.36179433290E+01  0.18673062263E+02  0.00000000000E+00 0. -1.
</event>
<event>
 7    1  0.2328810E-008  0.4614232E+02  0.7816164E-02  0.1320468E+00
        -11   -1    0    0    0    0  0.00000000000E+00  0.00000000000E+00  0.45593999997E+02  0.45594000000E+02  0.51100000000E-03 0.  1.
         11   -1    0    0    0    0 -0.00000000000E+00 -0.00000000000E+00 -0.45593999997E+02  0.45594000000E+02  0.51100000000E-03 0. -1.
    9900012    2    1    2    0    0 -0.11935848193E+02  0.10413076024E+02  0.42168908569E+02  0.46142317917E+02  0.10000001424E+02 0.  0.
         12    1    1    2    0    0  0.11935848193E+02 -0.10413076024E+02 -0.42168908569E+02  0.45045682083E+02  0.00000000000E+00 0. -1.
         11    1    3    3    0    0 -0.78387624828E+01  0.40463351944E+01  0.14106817871E+02  0.16637948686E+02  0.51100000000E-03 0. -1.
        -11    1    3    3    0    0 -0.46169994895E+01  0.69200709703E+01  0.26336848713E+02  0.27619443638E+02  0.51100000000E-03 0.  1.
        -12    1    3    3    0    0  0.51991377955E+00 -0.55333014025E+00  0.17252419853E+01  0.18849255927E+01  0.00000000000E+00 0.  1.
</event>
<event>
 7    1  0.2328810E-008  0.4614232E+02  0.7816164E-02  0.1320468E+00
        -11   -1    0    0    0    0  0.00000000000E+00  0.00000000000E+00  0.45593999997E+02  0.45594000000E+02  0.51100000000E-03 0.  1.
         11   -1    0    0    0    0 -0.00000000000E+00 -0.00000000000E+00 -0.45593999997E+02  0.45594000000E+02  0.51100000000E-03 0. -1.
    9900012    2    1    2    0    0  0.13162988310E+02 -0.42099031643E+02  0.91389693505E+01  0.46142317773E+02  0.10000000105E+02 0.  0.
         12    1    1    2    0    0 -0.13162988310E+02  0.42099031643E+02 -0.91389693505E+01  0.45045682227E+02  0.00000000000E+00 0. -1.
         11    1    3    3    0    0 -0.59869610409E+00  0.10803101766E+00  0.19647954960E+00  0.63930603029E+00  0.51100000000E-03 0. -1.
        -11    1    3    3    0    0  0.81569341257E+01 -0.18517911741E+02  0.31292687923E+01  0.20475374307E+02  0.51100000000E-03 0.  1.
        -12    1    3    3    0    0  0.56047502879E+01 -0.23689150920E+02  0.58132210087E+01  0.25027637436E+02  0.00000000000E+00 0.  1.
</event>
<event>
 7    1  0.2328810E-008  0.4614232E+02  0.7816164E-02  0.1320468E+00
        -11   -1    0    0    0    0  0.00000000000E+00  0.00000000000E+00  0.45593999997E+02  0.45594000000E+02  0.51100000000E-03 0. -1.
         11   -1    0    0    0    0 -0.00000000000E+00 -0.00000000000E+00 -0.45593999997E+02  0.45594000000E+02  0.51100000000E-03 0.  1.
    9900012    2    1    2    0    0  0.23364804327E+02 -0.37820353520E+02  0.72677615859E+01  0.46142316743E+02  0.99999907153E+01 0.  0.
         12    1    1    2    0    0 -0.23364804327E+02  0.37820353520E+02 -0.72677615859E+01  0.45045683257E+02  0.00000000000E+00 0. -1.
         11    1    3    3    0    0  0.24126345915E+01 -0.28196461661E+01 -0.72288893083E+00  0.37807114200E+01  0.51100000000E-03 0. -1.
        -11    1    3    3    0    0  0.94391044455E+00 -0.18076225453E+01 -0.14118781387E+01  0.24802956141E+01  0.51100000000E-03 0.  1.
        -12    1    3    3    0    0  0.20008259291E+02 -0.33193084809E+02  0.94025286554E+01  0.39881309709E+02  0.00000000000E+00 0.  1.
</event>
<event>
 7    1  0.2328810E-008  0.4614232E+02  0.7816164E-02  0.1320468E+00
        -11   -1    0    0    0    0  0.00000000000E+00  0.00000000000E+00  0.45593999997E+02  0.45594000000E+02  0.51100000000E-03 0.  1.
         11   -1    0    0    0    0 -0.00000000000E+00 -0.00000000000E+00 -0.45593999997E+02  0.45594000000E+02  0.51100000000E-03 0. -1.
    9900012    2    1    2    0    0 -0.18327221649E+02  0.33566033161E+02  0.23802265991E+02  0.46142317612E+02  0.99999986399E+01 0.  0.
         12    1    1    2    0    0  0.18327221649E+02 -0.33566033161E+02 -0.23802265991E+02  0.45045682388E+02  0.00000000000E+00 0. -1.
         11    1    3    3    0    0 -0.10083489981E+01  0.26791962860E+01  0.50843701073E+01  0.58348676154E+01  0.51100000000E-03 0. -1.
        -11    1    3    3    0    0 -0.92837273409E+01  0.12057792862E+02  0.75534818082E+01  0.16989203917E+02  0.51100000000E-03 0.  1.
        -12    1    3    3    0    0 -0.80351453098E+01  0.18829044013E+02  0.11164414075E+02  0.23318246079E+02  0.00000000000E+00 0.  1.
</event>
<event>
 7    1  0.2401618E-008  0.4614232E+02  0.7816164E-02  0.1320468E+00
        -11   -1    0    0    0    0  0.00000000000E+00  0.00000000000E+00  0.45593999997E+02  0.45594000000E+02  0.51100000000E-03 0.  1.
         11   -1    0    0    0    0 -0.00000000000E+00 -0.00000000000E+00 -0.45593999997E+02  0.45594000000E+02  0.51100000000E-03 0. -1.
    9900012    2    1    2    0    0 -0.71327535361E+01 -0.42074169035E+02 -0.14422259741E+02  0.46142318198E+02  0.10000003983E+02 0.  0.
         12    1    1    2    0    0  0.71327535361E+01  0.42074169035E+02  0.14422259741E+02  0.45045681802E+02  0.00000000000E+00 0. -1.
         11    1    3    3    0    0  0.14316585448E+01 -0.72468032450E+01 -0.34263022270E+01  0.81428097529E+01  0.51100000000E-03 0. -1.
        -11    1    3    3    0    0 -0.28361301239E+00 -0.46944233245E+00 -0.12091391187E+01  0.13277161270E+01  0.51100000000E-03 0.  1.
        -12    1    3    3    0    0 -0.82807990685E+01 -0.34357923457E+02 -0.97868183956E+01  0.36671792318E+02  0.00000000000E+00 0.  1.
</event>
<event>
 7    1  0.2328810E-008  0.4614232E+02  0.7816164E-02  0.1320468E+00
        -11   -1    0    0    0    0  0.00000000000E+00  0.00000000000E+00  0.45593999997E+02  0.45594000000E+02  0.51100000000E-03 0. -1.
         11   -1    0    0    0    0 -0.00000000000E+00 -0.00000000000E+00 -0.45593999997E+02  0.45594000000E+02  0.51100000000E-03 0.  1.
    9900012    2    1    2    0    0  0.12522706253E+01 -0.14848076817E+02 -0.42509763062E+02  0.46142317383E+02  0.99999965511E+01 0.  0.
         12    1    1    2    0    0 -0.12522706253E+01  0.14848076817E+02  0.42509763062E+02  0.45045682617E+02  0.00000000000E+00 0. -1.
         11    1    3    3    0    0  0.23179763075E+01 -0.17960314904E+01 -0.61866061510E+01  0.68463741648E+01  0.51100000000E-03 0. -1.
        -11    1    3    3    0    0  0.84875051508E+00 -0.10629482001E+02 -0.19819955727E+02  0.22506374882E+02  0.51100000000E-03 0.  1.
        -12    1    3    3    0    0 -0.19144561973E+01 -0.24225633252E+01 -0.16503201184E+02  0.16789568336E+02  0.00000000000E+00 0.  1.
</event>
<event>
 7    1  0.2328810E-008  0.4614232E+02  0.7816164E-02  0.1320468E+00
        -11   -1    0    0    0    0  0.00000000000E+00  0.00000000000E+00  0.45593999997E+02  0.45594000000E+02  0.51100000000E-03 0. -1.
         11   -1    0    0    0    0 -0.00000000000E+00 -0.00000000000E+00 -0.45593999997E+02  0.45594000000E+02  0.51100000000E-03 0.  1.
    9900012    2    1    2    0    0 -0.35231059815E+02  0.19735961843E+02 -0.19959392313E+02  0.46142321994E+02  0.10000038598E+02 0.  0.
         12    1    1    2    0    0  0.35231059815E+02 -0.19735961843E+02  0.19959392313E+02  0.45045678006E+02  0.00000000000E+00 0. -1.
         11    1    3    3    0    0 -0.21391991265E+02  0.11170209839E+02 -0.14252901782E+02  0.28027416713E+02  0.51100000000E-03 0. -1.
        -11    1    3    3    0    0 -0.86564873303E+01  0.50590883723E+01 -0.62806876703E+01  0.11831153195E+02  0.51100000000E-03 0.  1.
         12    1    3    3    0    0 -0.51825812196E+01  0.35066636311E+01  0.57419713929E+00  0.62837520857E+01  0.00000000000E+00 0. -1.
</event>
<event>
 7    1  0.2328810E-008  0.4614232E+02  0.7816164E-02  0.1320468E+00
        -11   -1    0    0    0    0  0.00000000000E+00  0.00000000000E+00  0.45593999997E+02  0.45594000000E+02  0.51100000000E-03 0.  1.
         11   -1    0    0    0    0 -0.00000000000E+00 -0.00000000000E+00 -0.45593999997E+02  0.45594000000E+02  0.51100000000E-03 0. -1.
    9900012    2    1    2    0    0  0.41745742573E+01  0.11700524326E+02  0.43298775986E+02  0.46142319391E+02  0.10000014858E+02 0.  0.
         12    1    1    2    0    0 -0.41745742573E+01 -0.11700524326E+02 -0.43298775986E+02  0.45045680609E+02  0.00000000000E+00 0. -1.
         11    1    3    3    0    0 -0.20172188153E+01  0.86718461728E+00  0.13315042488E+02  0.13494870789E+02  0.51100000000E-03 0. -1.
        -11    1    3    3    0    0  0.29137339911E+01  0.21107471497E+01  0.82755920130E+01  0.90238862320E+01  0.51100000000E-03 0.  1.
        -12    1    3    3    0    0  0.32780590815E+01  0.87225925587E+01  0.21708141485E+02  0.23623562369E+02  0.00000000000E+00 0.  1.
</event>
<event>
 7    1  0.2328810E-008  0.4614232E+02  0.7816164E-02  0.1320468E+00
        -11   -1    0    0    0    0  0.00000000000E+00  0.00000000000E+00  0.45593999997E+02  0.45594000000E+02  0.51100000000E-03 0. -1.
         11   -1    0    0    0    0 -0.00000000000E+00 -0.00000000000E+00 -0.45593999997E+02  0.45594000000E+02  0.51100000000E-03 0.  1.
    9900012    2    1    2    0    0 -0.41585302251E+02 -0.91489685041E+01 -0.14699395899E+02  0.46142320653E+02  0.10000026372E+02 0.  0.
         12    1    1    2    0    0  0.41585302251E+02  0.91489685041E+01  0.14699395899E+02  0.45045679347E+02  0.00000000000E+00 0. -1.
         11    1    3    3    0    0 -0.10494603004E+02 -0.23565492070E+01  0.57263496329E+00  0.10771161843E+02  0.51100000000E-03 0. -1.
        -11    1    3    3    0    0 -0.11347178392E+02 -0.14473220203E+01 -0.59230270498E+01  0.12881593387E+02  0.51100000000E-03 0.  1.
         12    1    3    3    0    0 -0.19743520856E+02 -0.53450972768E+01 -0.93490038122E+01  0.22489565424E+02  0.00000000000E+00 0. -1.
</event>
<event>
 7    1  0.2328810E-008  0.4614232E+02  0.7816164E-02  0.1320468E+00
        -11   -1    0    0    0    0  0.00000000000E+00  0.00000000000E+00  0.45593999997E+02  0.45594000000E+02  0.51100000000E-03 0. -1.
         11   -1    0    0    0    0 -0.00000000000E+00 -0.00000000000E+00 -0.45593999997E+02  0.45594000000E+02  0.51100000000E-03 0.  1.
    9900012    2    1    2    0    0  0.44031909318E+02 -0.85511511935E+01  0.41451541928E+01  0.46142317319E+02  0.99999959666E+01 0.  0.
         12    1    1    2    0    0 -0.44031909318E+02  0.85511511935E+01 -0.41451541928E+01  0.45045682681E+02  0.00000000000E+00 0. -1.
         11    1    3    3    0    0  0.79076274752E+01 -0.20799817249E+01 -0.23849448917E+01  0.85173269669E+01  0.51100000000E-03 0. -1.
        -11    1    3    3    0    0  0.12596525547E+02 -0.20401647618E+01 -0.17693132202E+00  0.12761897707E+02  0.51100000000E-03 0.  1.
         12    1    3    3    0    0  0.23527756296E+02 -0.44310047068E+01  0.67070304066E+01  0.24863092645E+02  0.00000000000E+00 0. -1.
</event>
<event>
 7    1  0.2328810E-008  0.4614232E+02  0.7816164E-02  0.1320468E+00
        -11   -1    0    0    0    0  0.00000000000E+00  0.00000000000E+00  0.45593999997E+02  0.45594000000E+02  0.51100000000E-03 0.  1.
         11   -1    0    0    0    0 -0.00000000000E+00 -0.00000000000E+00 -0.45593999997E+02  0.45594000000E+02  0.51100000000E-03 0. -1.
    9900012    2    1    2    0    0 -0.11490635814E+02 -0.94587617693E+01  0.42516003174E+02  0.46142318615E+02  0.10000007784E+02 0.  0.
         12    1    1    2    0    0  0.11490635814E+02  0.94587617693E+01 -0.42516003174E+02  0.45045681385E+02  0.00000000000E+00 0. -1.
         11    1    3    3    0    0 -0.20976126742E+01 -0.32878055607E+00  0.12758653219E+02  0.12934114110E+02  0.51100000000E-03 0. -1.
        -11    1    3    3    0    0 -0.58641863208E+00 -0.48439075191E+01  0.11432150829E+02  0.12429859199E+02  0.51100000000E-03 0.  1.
         12    1    3    3    0    0 -0.88066045072E+01 -0.42860736941E+01  0.18325199125E+02  0.20778345306E+02  0.00000000000E+00 0. -1.
</event>
<event>
 7    1  0.2328810E-008  0.4614232E+02  0.7816164E-02  0.1320468E+00
        -11   -1    0    0    0    0  0.00000000000E+00  0.00000000000E+00  0.45593999997E+02  0.45594000000E+02  0.51100000000E-03 0. -1.
         11   -1    0    0    0    0 -0.00000000000E+00 -0.00000000000E+00 -0.45593999997E+02  0.45594000000E+02  0.51100000000E-03 0.  1.
    9900012    2    1    2    0    0  0.21549477277E+02 -0.19473852310E+02 -0.34431128002E+02  0.46142317963E+02  0.10000001839E+02 0.  0.
         12    1    1    2    0    0 -0.21549477277E+02  0.19473852310E+02  0.34431128002E+02  0.45045682037E+02  0.00000000000E+00 0. -1.
         11    1    3    3    0    0 -0.57538419570E+00 -0.18146280595E+01 -0.10746813462E+01  0.21860654666E+01  0.51100000000E-03 0. -1.
        -11    1    3    3    0    0  0.83169762464E+01 -0.93247613442E+01 -0.14210836495E+02  0.18922767825E+02  0.51100000000E-03 0.  1.
        -12    1    3    3    0    0  0.13807885227E+02 -0.83344629067E+01 -0.19145610161E+02  0.25033484671E+02  0.00000000000E+00 0.  1.
</event>
<event>
 7    1  0.2328810E-008  0.4614231E+02  0.7816164E-02  0.1320468E+00
        -11   -1    0    0    0    0  0.00000000000E+00  0.00000000000E+00  0.45593999997E+02  0.45594000000E+02  0.51100000000E-03 0. -1.
         11   -1    0    0    0    0 -0.00000000000E+00 -0.00000000000E+00 -0.45593999997E+02  0.45594000000E+02  0.51100000000E-03 0.  1.
    9900012    2    1    2    0    0 -0.26376799554E+02 -0.13972270534E+01 -0.36488717709E+02  0.46142308550E+02  0.99999160066E+01 0.  0.
         12    1    1    2    0    0  0.26376799554E+02  0.13972270534E+01  0.36488717709E+02  0.45045691450E+02  0.00000000000E+00 0. -1.
         11    1    3    3    0    0 -0.10035823127E+02 -0.38845359329E+01 -0.20182081316E+02  0.22871899173E+02  0.51100000000E-03 0. -1.
        -11    1    3    3    0    0 -0.66554923994E+01  0.25296799238E+00 -0.66805249743E+01  0.94333973772E+01  0.51100000000E-03 0.  1.
         12    1    3    3    0    0 -0.96854840281E+01  0.22343408871E+01 -0.96261114179E+01  0.13837012000E+02  0.00000000000E+00 0. -1.
</event>
<event>
 7    1  0.2328810E-008  0.4614232E+02  0.7816164E-02  0.1320468E+00
        -11   -1    0    0    0    0  0.00000000000E+00  0.00000000000E+00  0.45593999997E+02  0.45594000000E+02  0.51100000000E-03 0.  1.
         11   -1    0    0    0    0 -0.00000000000E+00 -0.00000000000E+00 -0.45593999997E+02  0.45594000000E+02  0.51100000000E-03 0. -1.
    9900012    2    1    2    0    0  0.44433253520E+02  0.63049413666E+01 -0.38790361545E+01  0.46142320679E+02  0.10000026610E+02 0.  0.
         12    1    1    2    0    0 -0.44433253520E+02 -0.63049413666E+01  0.38790361545E+01  0.45045679321E+02  0.00000000000E+00 0. -1.
         11    1    3    3    0    0  0.19391129427E+02  0.59345488809E+01 -0.33499476091E+01  0.20553756837E+02  0.51100000000E-03 0. -1.
        -11    1    3    3    0    0  0.17832320403E+02  0.10699317254E+01  0.18603154015E+01  0.17960990465E+02  0.51100000000E-03 0.  1.
        -12    1    3    3    0    0  0.72098036902E+01 -0.69953923970E+00 -0.23894039469E+01  0.76275733770E+01  0.00000000000E+00 0.  1.
</event>
<event>
 7    1  0.2328810E-008  0.4614232E+02  0.7816164E-02  0.1320468E+00
        -11   -1    0    0    0    0  0.00000000000E+00  0.00000000000E+00  0.45593999997E+02  0.45594000000E+02  0.51100000000E-03 0. -1.
         11   -1    0    0    0    0 -0.00000000000E+00 -0.00000000000E+00 -0.45593999997E+02  0.45594000000E+02  0.51100000000E-03 0.  1.
    9900012    2    1    2    0    0  0.21159954476E+02  0.22210981753E+02 -0.32985485024E+02  0.46142316453E+02  0.99999880754E+01 0.  0.
         12    1    1    2    0    0 -0.21159954476E+02 -0.22210981753E+02  0.32985485024E+02  0.45045683547E+02  0.00000000000E+00 0. -1.
         11    1    3    3    0    0  0.13889081389E+01  0.28392338502E+01 -0.11942602590E+01  0.33788418876E+01  0.51100000000E-03 0. -1.
        -11    1    3    3    0    0  0.10355107737E+02  0.68877691209E+01 -0.10086671700E+02  0.16012825047E+02  0.51100000000E-03 0.  1.
         12    1    3    3    0    0  0.94159386001E+01  0.12483978782E+02 -0.21704553065E+02  0.26750649519E+02  0.00000000000E+00 0. -1.
</event>
<event>
 7    1  0.2328810E-008  0.4614231E+02  0.7816164E-02  0.1320468E+00
        -11   -1    0    0    0    0  0.00000000000E+00  0.00000000000E+00  0.45593999997E+02  0.45594000000E+02  0.51100000000E-03 0. -1.
         11   -1    0    0    0    0 -0.00000000000E+00 -0.00000000000E+00 -0.45593999997E+02  0.45594000000E+02  0.51100000000E-03 0.  1.
    9900012    2    1    2    0    0  0.32657134881E+02 -0.27330571364E+02 -0.14685555878E+02  0.46142310515E+02  0.99999339244E+01 0.  0.
         12    1    1    2    0    0 -0.32657134881E+02  0.27330571364E+02  0.14685555878E+02  0.45045689485E+02  0.00000000000E+00 0. -1.
         11    1    3    3    0    0  0.15723338656E+01 -0.20709915445E+01 -0.13417440173E+01  0.29260070115E+01  0.51100000000E-03 0. -1.
        -11    1    3    3    0    0  0.30527662864E+02 -0.26003069806E+02 -0.12624628944E+02  0.42041397402E+02  0.51100000000E-03 0.  1.
        -12    1    3    3    0    0  0.55713815148E+00  0.74348998634E+00 -0.71918291718E+00  0.11749061018E+01  0.00000000000E+00 0.  1.
</event>
<event>
 7    1  0.2328810E-008  0.4614232E+02  0.7816164E-02  0.1320468E+00
        -11   -1    0    0    0    0  0.00000000000E+00  0.00000000000E+00  0.45593999997E+02  0.45594000000E+02  0.51100000000E-03 0.  1.
         11   -1    0    0    0    0 -0.00000000000E+00 -0.00000000000E+00 -0.45593999997E+02  0.45594000000E+02  0.51100000000E-03 0. -1.
    9900012    2    1    2    0    0  0.34045081536E+02 -0.26792382097E+02 -0.12337510618E+02  0.46142317815E+02  0.10000000495E+02 0.  0.
         12    1    1    2    0    0 -0.34045081536E+02  0.26792382097E+02  0.12337510618E+02  0.45045682185E+02  0.00000000000E+00 0. -1.
         11    1    3    3    0    0  0.15014250704E+02 -0.12564980885E+02 -0.94633231029E+01  0.21745366248E+02  0.51100000000E-03 0. -1.
        -11    1    3    3    0    0  0.18383023203E+02 -0.14516906153E+02 -0.31519835581E+01  0.23634955193E+02  0.51100000000E-03 0.  1.
         12    1    3    3    0    0  0.64780762869E+00  0.28950494038E+00  0.27779604283E+00  0.76199637512E+00  0.00000000000E+00 0. -1.
</event>
<event>
 7    1  0.2328810E-008  0.4614232E+02  0.7816164E-02  0.1320468E+00
        -11   -1    0    0    0    0  0.00000000000E+00  0.00000000000E+00  0.45593999997E+02  0.45594000000E+02  0.51100000000E-03 0.  1.
         11   -1    0    0    0    0 -0.00000000000E+00 -0.00000000000E+00 -0.45593999997E+02  0.45594000000E+02  0.51100000000E-03 0. -1.
    9900012    2    1    2    0    0  0.39949628782E+02 -0.10541971787E+02  0.17944565129E+02  0.46142318446E+02  0.10000006245E+02 0.  0.
         12    1    1    2    0    0 -0.39949628782E+02  0.10541971787E+02 -0.17944565129E+02  0.45045681554E+02  0.00000000000E+00 0. -1.
         11    1    3    3    0    0  0.15575237323E+02 -0.22217938415E+01  0.52870475155E+01  0.16597507561E+02  0.51100000000E-03 0. -1.
        -11    1    3    3    0    0  0.12094635500E+02 -0.29209378443E+01  0.24326784578E+01  0.12677934000E+02  0.51100000000E-03 0.  1.
        -12    1    3    3    0    0  0.12279755959E+02 -0.53992401015E+01  0.10224839156E+02  0.16866876885E+02  0.00000000000E+00 0.  1.
</event>
<event>
 7    1  0.2328810E-008  0.4614232E+02  0.7816164E-02  0.1320468E+00
        -11   -1    0    0    0    0  0.00000000000E+00  0.00000000000E+00  0.45593999997E+02  0.45594000000E+02  0.51100000000E-03 0.  1.
         11   -1    0    0    0    0 -0.00000000000E+00 -0.00000000000E+00 -0.45593999997E+02  0.45594000000E+02  0.51100000000E-03 0. -1.
    9900012    2    1    2    0    0 -0.44844625793E+01 -0.14283495171E+02  0.42485112687E+02  0.46142318309E+02  0.10000004998E+02 0.  0.
         12    1    1    2    0    0  0.44844625793E+01  0.14283495171E+02 -0.42485112687E+02  0.45045681691E+02  0.00000000000E+00 0. -1.
         11    1    3    3    0    0  0.33987879527E+00 -0.39086216956E+01  0.54524092708E+01  0.67172619625E+01  0.51100000000E-03 0. -1.
        -11    1    3    3    0    0 -0.11898884466E+01 -0.61766479275E+01  0.98951864306E+01  0.11725251762E+02  0.51100000000E-03 0.  1.
         12    1    3    3    0    0 -0.36344529279E+01 -0.41982255479E+01  0.27137516986E+02  0.27699804584E+02  0.00000000000E+00 0. -1.
</event>
<event>
 7    1  0.2328810E-008  0.4614232E+02  0.7816164E-02  0.1320468E+00
        -11   -1    0    0    0    0  0.00000000000E+00  0.00000000000E+00  0.45593999997E+02  0.45594000000E+02  0.51100000000E-03 0.  1.
         11   -1    0    0    0    0 -0.00000000000E+00 -0.00000000000E+00 -0.45593999997E+02  0.45594000000E+02  0.51100000000E-03 0. -1.
    9900012    2    1    2    0    0  0.36767615428E+02  0.11407533598E+02  0.23390682486E+02  0.46142318806E+02  0.10000009529E+02 0.  0.
         12    1    1    2    0    0 -0.36767615428E+02 -0.11407533598E+02 -0.23390682486E+02  0.45045681194E+02  0.00000000000E+00 0. -1.
         11    1    3    3    0    0  0.10703562009E+02 -0.52757205429E-01  0.93661262153E+01  0.14222986450E+02  0.51100000000E-03 0. -1.
        -11    1    3    3    0    0  0.17535920026E+02  0.70273135516E+01  0.10911266983E+02  0.21816218150E+02  0.51100000000E-03 0.  1.
         12    1    3    3    0    0  0.85281333927E+01  0.44329772523E+01  0.31132892874E+01  0.10103114207E+02  0.00000000000E+00 0. -1.
</event>
<event>
 7    1  0.2328810E-008  0.4614231E+02  0.7816164E-02  0.1320468E+00
        -11   -1    0    0    0    0  0.00000000000E+00  0.00000000000E+00  0.45593999997E+02  0.45594000000E+02  0.51100000000E-03 0.  1.
         11   -1    0    0    0    0 -0.00000000000E+00 -0.00000000000E+00 -0.45593999997E+02  0.45594000000E+02  0.51100000000E-03 0. -1.
    9900012    2    1    2    0    0 -0.23415231071E+01 -0.31367334866E+02  0.32244720544E+02  0.46142307309E+02  0.99999046882E+01 0.  0.
         12    1    1    2    0    0  0.23415231071E+01  0.31367334866E+02 -0.32244720544E+02  0.45045692691E+02  0.00000000000E+00 0. -1.
         11    1    3    3    0    0 -0.47179727070E+00 -0.15840787406E+02  0.10665897052E+02  0.19102735367E+02  0.51100000000E-03 0. -1.
        -11    1    3    3    0    0  0.78971448763E+00 -0.36622407457E+00  0.15744072601E+01  0.17990351655E+01  0.51100000000E-03 0.  1.
        -12    1    3    3    0    0 -0.26594403241E+01 -0.15160323385E+02  0.20004416233E+02  0.25240536777E+02  0.00000000000E+00 0.  1.
</event>
<event>
 7    1  0.2328810E-008  0.4614232E+02  0.7816164E-02  0.1320468E+00
        -11   -1    0    0    0    0  0.00000000000E+00  0.00000000000E+00  0.45593999997E+02  0.45594000000E+02  0.51100000000E-03 0.  1.
         11   -1    0    0    0    0 -0.00000000000E+00 -0.00000000000E+00 -0.45593999997E+02  0.45594000000E+02  0.51100000000E-03 0. -1.
    9900012    2    1    2    0    0  0.18773836791E+02  0.18785848501E+02  0.36383352212E+02  0.46142319076E+02  0.10000011986E+02 0.  0.
         12    1    1    2    0    0 -0.18773836791E+02 -0.18785848501E+02 -0.36383352212E+02  0.45045680924E+02  0.00000000000E+00 0. -1.
         11    1    3    3    0    0  0.35710917909E+01  0.28468779032E+01  0.93126985797E+01  0.10372259420E+02  0.51100000000E-03 0. -1.
        -11    1    3    3    0    0  0.24782243223E+01  0.41815364629E+01  0.11465504521E+02  0.12453298245E+02  0.51100000000E-03 0.  1.
        -12    1    3    3    0    0  0.12724520678E+02  0.11757434134E+02  0.15605149111E+02  0.23316761411E+02  0.00000000000E+00 0.  1.
</event>
<event>
 7    1  0.2328810E-008  0.4614232E+02  0.7816164E-02  0.1320468E+00
        -11   -1    0    0    0    0  0.00000000000E+00  0.00000000000E+00  0.45593999997E+02  0.45594000000E+02  0.51100000000E-03 0. -1.
         11   -1    0    0    0    0 -0.00000000000E+00 -0.00000000000E+00 -0.45593999997E+02  0.45594000000E+02  0.51100000000E-03 0.  1.
    9900012    2    1    2    0    0  0.18969068736E+02 -0.37373843054E+02 -0.16507083316E+02  0.46142317488E+02  0.99999975115E+01 0.  0.
         12    1    1    2    0    0 -0.18969068736E+02  0.37373843054E+02  0.16507083316E+02  0.45045682512E+02  0.00000000000E+00 0. -1.
         11    1    3    3    0    0  0.71731233451E+01 -0.16831087869E+02 -0.72865210774E+01  0.19693466101E+02  0.51100000000E-03 0. -1.
        -11    1    3    3    0    0  0.94301974583E+01 -0.18524728954E+02 -0.10245640260E+02  0.23174713623E+02  0.51100000000E-03 0.  1.
         12    1    3    3    0    0  0.23657479323E+01 -0.20180262313E+01  0.10250780216E+01  0.32741377643E+01  0.00000000000E+00 0. -1.
</event>
<event>
 7    1  0.2328810E-008  0.4614232E+02  0.7816164E-02  0.1320468E+00
        -11   -1    0    0    0    0  0.00000000000E+00  0.00000000000E+00  0.45593999997E+02  0.45594000000E+02  0.51100000000E-03 0. -1.
         11   -1    0    0    0    0 -0.00000000000E+00 -0.00000000000E+00 -0.45593999997E+02  0.45594000000E+02  0.51100000000E-03 0.  1.
    9900012    2    1    2    0    0 -0.78508296040E+00  0.39493136682E+02 -0.21651541824E+02  0.46142318036E+02  0.10000002509E+02 0.  0.
         12    1    1    2    0    0  0.78508296040E+00 -0.39493136682E+02  0.21651541824E+02  0.45045681964E+02  0.00000000000E+00 0. -1.
         11    1    3    3    0    0  0.18956692156E+01  0.11990659484E+02 -0.32551719109E+01  0.12568437495E+02  0.51100000000E-03 0. -1.
        -11    1    3    3    0    0 -0.38121907774E+00  0.19625536024E+02 -0.10863557760E+02  0.22434880871E+02  0.51100000000E-03 0.  1.
         12    1    3    3    0    0 -0.22995330983E+01  0.78769411735E+01 -0.75328121527E+01  0.11138999670E+02  0.00000000000E+00 0. -1.
</event>
<event>
 7    1  0.2328810E-008  0.4614231E+02  0.7816164E-02  0.1320468E+00
        -11   -1    0    0    0    0  0.00000000000E+00  0.00000000000E+00  0.45593999997E+02  0.45594000000E+02  0.51100000000E-03 0. -1.
         11   -1    0    0    0    0 -0.00000000000E+00 -0.00000000000E+00 -0.45593999997E+02  0.45594000000E+02  0.51100000000E-03 0.  1.
    9900012    2    1    2    0    0  0.28256224997E+02  0.28765135412E+02  0.20081499504E+02  0.46142313318E+02  0.99999594838E+01 0.  0.
         12    1    1    2    0    0 -0.28256224997E+02 -0.28765135412E+02 -0.20081499504E+02  0.45045686682E+02  0.00000000000E+00 0. -1.
         11    1    3    3    0    0  0.38941970593E+01  0.15017079881E+01  0.42119914742E+01  0.59296517653E+01  0.51100000000E-03 0. -1.
        -11    1    3    3    0    0 -0.36857685080E-01  0.52372665202E+00 -0.25708700448E+00  0.58458710555E+00  0.51100000000E-03 0.  1.
        -12    1    3    3    0    0  0.24398885623E+02  0.26739700772E+02  0.16126595034E+02  0.39628074447E+02  0.00000000000E+00 0.  1.
</event>
<event>
 7    1  0.2328810E-008  0.4614231E+02  0.7816164E-02  0.1320468E+00
        -11   -1    0    0    0    0  0.00000000000E+00  0.00000000000E+00  0.45593999997E+02  0.45594000000E+02  0.51100000000E-03 0. -1.
         11   -1    0    0    0    0 -0.00000000000E+00 -0.00000000000E+00 -0.45593999997E+02  0.45594000000E+02  0.51100000000E-03 0.  1.
    9900012    2    1    2    0    0  0.41575649592E+01 -0.21091463416E+02 -0.39585080084E+02  0.46142314960E+02  0.99999744591E+01 0.  0.
         12    1    1    2    0    0 -0.41575649592E+01  0.21091463416E+02  0.39585080084E+02  0.45045685040E+02  0.00000000000E+00 0. -1.
         11    1    3    3    0    0  0.35088220123E+01 -0.76738712056E+01 -0.17829805275E+02  0.19725670777E+02  0.51100000000E-03 0. -1.
        -11    1    3    3    0    0  0.59733497360E+00 -0.13864764708E+02 -0.18479977020E+02  0.23110561664E+02  0.51100000000E-03 0.  1.
         12    1    3    3    0    0  0.51407973368E-01  0.44717249701E+00 -0.32752977884E+01  0.33060825193E+01  0.00000000000E+00 0. -1.
</event>
<event>
 7    1  0.2328810E-008  0.4614232E+02  0.7816164E-02  0.1320468E+00
        -11   -1    0    0    0    0  0.00000000000E+00  0.00000000000E+00  0.45593999997E+02  0.45594000000E+02  0.51100000000E-03 0. -1.
         11   -1    0    0    0    0 -0.00000000000E+00 -0.00000000000E+00 -0.45593999997E+02  0.45594000000E+02  0.51100000000E-03 0.  1.
    9900012    2    1    2    0    0 -0.30715357778E+02 -0.26140646233E+02 -0.20058586192E+02  0.46142317977E+02  0.10000001968E+02 0.  0.
         12    1    1    2    0    0  0.30715357778E+02  0.26140646233E+02  0.20058586192E+02  0.45045682023E+02  0.00000000000E+00 0. -1.
         11    1    3    3    0    0 -0.32932171317E+01 -0.51627803727E+01 -0.85479701044E+00  0.61830622222E+01  0.51100000000E-03 0. -1.
        -11    1    3    3    0    0 -0.22937448912E+02 -0.15357061295E+02 -0.13227836716E+02  0.30609501117E+02  0.51100000000E-03 0.  1.
        -12    1    3    3    0    0 -0.44846917351E+01 -0.56208045647E+01 -0.59759524657E+01  0.93497546377E+01  0.00000000000E+00 0.  1.
</event>
<event>
 7    1  0.2328810E-008  0.4614232E+02  0.7816164E-02  0.1320468E+00
        -11   -1    0    0    0    0  0.00000000000E+00  0.00000000000E+00  0.45593999997E+02  0.45594000000E+02  0.51100000000E-03 0. -1.
         11   -1    0    0    0    0 -0.00000000000E+00 -0.00000000000E+00 -0.45593999997E+02  0.45594000000E+02  0.51100000000E-03 0.  1.
    9900012    2    1    2    0    0 -0.27935023758E+02 -0.34344498875E+02  0.83188496784E+01  0.46142318572E+02  0.10000007395E+02 0.  0.
         12    1    1    2    0    0  0.27935023758E+02  0.34344498875E+02 -0.83188496784E+01  0.45045681428E+02  0.00000000000E+00 0. -1.
         11    1    3    3    0    0 -0.25368484879E+02 -0.25164291429E+02  0.60302261053E+01  0.36237621546E+02  0.51100000000E-03 0.  1.
        -11    1    3    3    0    0 -0.20464981502E+01 -0.65889116749E+01  0.10248074245E+01  0.69751087630E+01  0.51100000000E-03 0. -1.
        -12    1    3    3    0    0 -0.52004072924E+00 -0.25912957714E+01  0.12638161486E+01  0.29295882633E+01  0.00000000000E+00 0.  1.
</event>
<event>
 7    1  0.2328810E-008  0.4614232E+02  0.7816164E-02  0.1320468E+00
        -11   -1    0    0    0    0  0.00000000000E+00  0.00000000000E+00  0.45593999997E+02  0.45594000000E+02  0.51100000000E-03 0.  1.
         11   -1    0    0    0    0 -0.00000000000E+00 -0.00000000000E+00 -0.45593999997E+02  0.45594000000E+02  0.51100000000E-03 0. -1.
    9900012    2    1    2    0    0  0.19918614335E+02 -0.25344609846E+02  0.31464473966E+02  0.46142316886E+02  0.99999920233E+01 0.  0.
         12    1    1    2    0    0 -0.19918614335E+02  0.25344609846E+02 -0.31464473966E+02  0.45045683114E+02  0.00000000000E+00 0. -1.
         11    1    3    3    0    0  0.44226632608E+00  0.76099915001E+00  0.65975550605E+00  0.10999985447E+01  0.51100000000E-03 0. -1.
        -11    1    3    3    0    0  0.11984960672E+02 -0.17234132482E+02  0.22465754649E+02  0.30746784172E+02  0.51100000000E-03 0.  1.
        -12    1    3    3    0    0  0.74913873366E+01 -0.88714765134E+01  0.83389638107E+01  0.14295534169E+02  0.00000000000E+00 0.  1.
</event>
<event>
 7    1  0.2328810E-008  0.4614232E+02  0.7816164E-02  0.1320468E+00
        -11   -1    0    0    0    0  0.00000000000E+00  0.00000000000E+00  0.45593999997E+02  0.45594000000E+02  0.51100000000E-03 0.  1.
         11   -1    0    0    0    0 -0.00000000000E+00 -0.00000000000E+00 -0.45593999997E+02  0.45594000000E+02  0.51100000000E-03 0. -1.
    9900012    2    1    2    0    0  0.51742527617E+01 -0.31297362080E+02  0.31981491416E+02  0.46142316988E+02  0.99999929538E+01 0.  0.
         12    1    1    2    0    0 -0.51742527617E+01  0.31297362080E+02 -0.31981491416E+02  0.45045683012E+02  0.00000000000E+00 0. -1.
         11    1    3    3    0    0  0.39349791185E+01 -0.67621137776E+01  0.75030906852E+01  0.10840046748E+02  0.51100000000E-03 0. -1.
        -11    1    3    3    0    0  0.29999645765E+01 -0.22625933006E+02  0.22346789524E+02  0.31942317295E+02  0.51100000000E-03 0.  1.
         12    1    3    3    0    0 -0.17606909333E+01 -0.19093152968E+01  0.21316112060E+01  0.33599529459E+01  0.00000000000E+00 0. -1.
</event>
<event>
 7    1  0.2328810E-008  0.4614232E+02  0.7816164E-02  0.1320468E+00
        -11   -1    0    0    0    0  0.00000000000E+00  0.00000000000E+00  0.45593999997E+02  0.45594000000E+02  0.51100000000E-03 0.  1.
         11   -1    0    0    0    0 -0.00000000000E+00 -0.00000000000E+00 -0.45593999997E+02  0.45594000000E+02  0.51100000000E-03 0. -1.
    9900012    2    1    2    0    0  0.34780707087E+02  0.18841161301E+02  0.21550557206E+02  0.46142318070E+02  0.10000002820E+02 0.  0.
         12    1    1    2    0    0 -0.34780707087E+02 -0.18841161301E+02 -0.21550557206E+02  0.45045681930E+02  0.00000000000E+00 0. -1.
         11    1    3    3    0    0  0.68482078287E+01  0.54291063592E+01  0.29349355765E+01  0.92188390497E+01  0.51100000000E-03 0.  1.
        -11    1    3    3    0    0  0.78751383217E+01  0.56295697734E+01  0.94823199506E+01  0.13550802608E+02  0.51100000000E-03 0. -1.
         12    1    3    3    0    0  0.20057360936E+02  0.77824851685E+01  0.91333016786E+01  0.23372676413E+02  0.00000000000E+00 0. -1.
</event>
<event>
 7    1  0.2328810E-008  0.4614232E+02  0.7816164E-02  0.1320468E+00
        -11   -1    0    0    0    0  0.00000000000E+00  0.00000000000E+00  0.45593999997E+02  0.45594000000E+02  0.51100000000E-03 0.  1.
         11   -1    0    0    0    0 -0.00000000000E+00 -0.00000000000E+00 -0.45593999997E+02  0.45594000000E+02  0.51100000000E-03 0. -1.
    9900012    2    1    2    0    0 -0.24631040429E+02  0.20065689396E+02  0.31934203763E+02  0.46142318592E+02  0.10000007574E+02 0.  0.
         12    1    1    2    0    0  0.24631040429E+02 -0.20065689396E+02 -0.31934203763E+02  0.45045681408E+02  0.00000000000E+00 0. -1.
         11    1    3    3    0    0 -0.96995865001E+01  0.24641989694E+01  0.87177938280E+01  0.13272308930E+02  0.51100000000E-03 0. -1.
        -11    1    3    3    0    0 -0.33584648947E+01  0.22988807910E+01  0.36564021076E+01  0.54711439365E+01  0.51100000000E-03 0.  1.
         12    1    3    3    0    0 -0.11572989035E+02  0.15302609636E+02  0.19560007827E+02  0.27398865726E+02  0.00000000000E+00 0. -1.
</event>
<event>
 7    1  0.2328810E-008  0.4614232E+02  0.7816164E-02  0.1320468E+00
        -11   -1    0    0    0    0  0.00000000000E+00  0.00000000000E+00  0.45593999997E+02  0.45594000000E+02  0.51100000000E-03 0. -1.
         11   -1    0    0    0    0 -0.00000000000E+00 -0.00000000000E+00 -0.45593999997E+02  0.45594000000E+02  0.51100000000E-03 0.  1.
    9900012    2    1    2    0    0  0.11773114522E+02  0.19365929678E+02 -0.38929013178E+02  0.46142317356E+02  0.99999963038E+01 0.  0.
         12    1    1    2    0    0 -0.11773114522E+02 -0.19365929678E+02  0.38929013178E+02  0.45045682644E+02  0.00000000000E+00 0. -1.
         11    1    3    3    0    0  0.15022904399E+01 -0.51512589743E+00 -0.18241726549E+01  0.24186437092E+01  0.51100000000E-03 0. -1.
        -11    1    3    3    0    0  0.27243596477E+01  0.61873786829E+01 -0.66147729825E+01  0.94583831772E+01  0.51100000000E-03 0.  1.
        -12    1    3    3    0    0  0.75464644340E+01  0.13693676893E+02 -0.30490067541E+02  0.34265290469E+02  0.00000000000E+00 0.  1.
</event>
<event>
 7    1  0.2328810E-008  0.4614232E+02  0.7816164E-02  0.1320468E+00
        -11   -1    0    0    0    0  0.00000000000E+00  0.00000000000E+00  0.45593999997E+02  0.45594000000E+02  0.51100000000E-03 0.  1.
         11   -1    0    0    0    0 -0.00000000000E+00 -0.00000000000E+00 -0.45593999997E+02  0.45594000000E+02  0.51100000000E-03 0. -1.
    9900012    2    1    2    0    0 -0.20001199067E+02 -0.23019650314E+02  0.33153592849E+02  0.46142323366E+02  0.10000051106E+02 0.  0.
         12    1    1    2    0    0  0.20001199067E+02  0.23019650314E+02 -0.33153592849E+02  0.45045676634E+02  0.00000000000E+00 0. -1.
         11    1    3    3    0    0 -0.24375994620E+01 -0.86876843473E+01  0.99251100403E+01  0.13413633364E+02  0.51100000000E-03 0. -1.
        -11    1    3    3    0    0 -0.11196567013E+01 -0.49784252465E+00  0.21857045504E+00  0.12446893641E+01  0.51100000000E-03 0.  1.
        -12    1    3    3    0    0 -0.16443942903E+02 -0.13834123442E+02  0.23009912354E+02  0.31484000637E+02  0.00000000000E+00 0.  1.
</event>
<event>
 7    1  0.2328810E-008  0.4614232E+02  0.7816164E-02  0.1320468E+00
        -11   -1    0    0    0    0  0.00000000000E+00  0.00000000000E+00  0.45593999997E+02  0.45594000000E+02  0.51100000000E-03 0.  1.
         11   -1    0    0    0    0 -0.00000000000E+00 -0.00000000000E+00 -0.45593999997E+02  0.45594000000E+02  0.51100000000E-03 0. -1.
    9900012    2    1    2    0    0  0.17914201183E+02  0.14758590149E+02  0.38605425643E+02  0.46142317895E+02  0.10000001225E+02 0.  0.
         12    1    1    2    0    0 -0.17914201183E+02 -0.14758590149E+02 -0.38605425643E+02  0.45045682105E+02  0.00000000000E+00 0. -1.
         11    1    3    3    0    0  0.45507263644E+01  0.12383404570E+01  0.43567842533E+01  0.64206048642E+01  0.51100000000E-03 0. -1.
        -11    1    3    3    0    0  0.13035794597E+02  0.10632686755E+02  0.25917539933E+02  0.30898298414E+02  0.51100000000E-03 0.  1.
        -12    1    3    3    0    0  0.32768022165E+00  0.28875629375E+01  0.83311014557E+01  0.88234146174E+01  0.00000000000E+00 0.  1.
</event>
<event>
 7    1  0.2328810E-008  0.4614232E+02  0.7816164E-02  0.1320468E+00
        -11   -1    0    0    0    0  0.00000000000E+00  0.00000000000E+00  0.45593999997E+02  0.45594000000E+02  0.51100000000E-03 0.  1.
         11   -1    0    0    0    0 -0.00000000000E+00 -0.00000000000E+00 -0.45593999997E+02  0.45594000000E+02  0.51100000000E-03 0. -1.
    9900012    2    1    2    0    0 -0.22098036603E+02  0.19540783384E+02  0.34043325729E+02  0.46142318035E+02  0.10000002498E+02 0.  0.
         12    1    1    2    0    0  0.22098036603E+02 -0.19540783384E+02 -0.34043325729E+02  0.45045681965E+02  0.00000000000E+00 0. -1.
         11    1    3    3    0    0 -0.50402154759E+01  0.56189758028E+01  0.88123139642E+01  0.11603169342E+02  0.51100000000E-03 0. -1.
        -11    1    3    3    0    0 -0.44621887718E+01  0.63989886539E+01  0.14133575121E+02  0.16143609584E+02  0.51100000000E-03 0.  1.
        -12    1    3    3    0    0 -0.12595632355E+02  0.75228189278E+01  0.11097436644E+02  0.18395539109E+02  0.00000000000E+00 0.  1.
</event>
<event>
 7    1  0.2328810E-008  0.4614232E+02  0.7816164E-02  0.1320468E+00
        -11   -1    0    0    0    0  0.00000000000E+00  0.00000000000E+00  0.45593999997E+02  0.45594000000E+02  0.51100000000E-03 0. -1.
         11   -1    0    0    0    0 -0.00000000000E+00 -0.00000000000E+00 -0.45593999997E+02  0.45594000000E+02  0.51100000000E-03 0.  1.
    9900012    2    1    2    0    0  0.32642322137E+02  0.16880129480E+02 -0.26050980115E+02  0.46142317291E+02  0.99999957156E+01 0.  0.
         12    1    1    2    0    0 -0.32642322137E+02 -0.16880129480E+02  0.26050980115E+02  0.45045682709E+02  0.00000000000E+00 0. -1.
         11    1    3    3    0    0  0.20919669037E+02  0.61703541874E+01 -0.13431169489E+02  0.25614490772E+02  0.51100000000E-03 0. -1.
        -11    1    3    3    0    0  0.38419178782E+01  0.20912772149E+01 -0.46804952249E+01  0.64063101067E+01  0.51100000000E-03 0.  1.
         12    1    3    3    0    0  0.78807352221E+01  0.86184980777E+01 -0.79393154014E+01  0.14121516413E+02  0.00000000000E+00 0. -1.
</event>
<event>
 7    1  0.2328810E-008  0.4614232E+02  0.7816164E-02  0.1320468E+00
        -11   -1    0    0    0    0  0.00000000000E+00  0.00000000000E+00  0.45593999997E+02  0.45594000000E+02  0.51100000000E-03 0.  1.
         11   -1    0    0    0    0 -0.00000000000E+00 -0.00000000000E+00 -0.45593999997E+02  0.45594000000E+02  0.51100000000E-03 0. -1.
    9900012    2    1    2    0    0 -0.37612846728E+02  0.23250248389E+02  0.85914589528E+01  0.46142318120E+02  0.10000003270E+02 0.  0.
         12    1    1    2    0    0  0.37612846728E+02 -0.23250248389E+02 -0.85914589528E+01  0.45045681880E+02  0.00000000000E+00 0. -1.
         11    1    3    3    0    0 -0.31556897355E+02  0.19265139325E+02  0.10338074532E+02  0.38390873254E+02  0.51100000000E-03 0. -1.
        -11    1    3    3    0    0 -0.37927971209E+01  0.15038583242E+01 -0.28858550727E+00  0.40902544805E+01  0.51100000000E-03 0.  1.
         12    1    3    3    0    0 -0.22631522516E+01  0.24812507397E+01 -0.14580300717E+01  0.36611903853E+01  0.00000000000E+00 0. -1.
</event>
<event>
 7    1  0.2328810E-008  0.4614232E+02  0.7816164E-02  0.1320468E+00
        -11   -1    0    0    0    0  0.00000000000E+00  0.00000000000E+00  0.45593999997E+02  0.45594000000E+02  0.51100000000E-03 0.  1.
         11   -1    0    0    0    0 -0.00000000000E+00 -0.00000000000E+00 -0.45593999997E+02  0.45594000000E+02  0.51100000000E-03 0. -1.
    9900012    2    1    2    0    0 -0.23610440541E+02 -0.16193369197E+02  0.34776937881E+02  0.46142317444E+02  0.99999971098E+01 0.  0.
         12    1    1    2    0    0  0.23610440541E+02  0.16193369197E+02 -0.34776937881E+02  0.45045682556E+02  0.00000000000E+00 0. -1.
         11    1    3    3    0    0 -0.21515087163E+01  0.11725840348E+01  0.20301079941E+01  0.31820247962E+01  0.51100000000E-03 0. -1.
        -11    1    3    3    0    0 -0.24760715753E+01 -0.29028390744E+01  0.32019806529E+01  0.49809723449E+01  0.51100000000E-03 0.  1.
         12    1    3    3    0    0 -0.18982860250E+02 -0.14463114158E+02  0.29544849234E+02  0.37979320303E+02  0.00000000000E+00 0. -1.
</event>
<event>
 7    1  0.2328810E-008  0.4614232E+02  0.7816164E-02  0.1320468E+00
        -11   -1    0    0    0    0  0.00000000000E+00  0.00000000000E+00  0.45593999997E+02  0.45594000000E+02  0.51100000000E-03 0.  1.
         11   -1    0    0    0    0 -0.00000000000E+00 -0.00000000000E+00 -0.45593999997E+02  0.45594000000E+02  0.51100000000E-03 0. -1.
    9900012    2    1    2    0    0 -0.67336874903E+01  0.37096224958E+02  0.24650378650E+02  0.46142316289E+02  0.99999865773E+01 0.  0.
         12    1    1    2    0    0  0.67336874903E+01 -0.37096224958E+02 -0.24650378650E+02  0.45045683711E+02  0.00000000000E+00 0. -1.
         11    1    3    3    0    0 -0.98267023704E+00  0.16874681333E+02  0.11166998448E+02  0.20258883619E+02  0.51100000000E-03 0. -1.
        -11    1    3    3    0    0 -0.14556951062E+01  0.10140729390E+02  0.28952304163E+01  0.10645928810E+02  0.51100000000E-03 0.  1.
        -12    1    3    3    0    0 -0.42953221471E+01  0.10080814235E+02  0.10588149786E+02  0.15237503860E+02  0.00000000000E+00 0.  1.
</event>
<event>
 7    1  0.2328810E-008  0.4614231E+02  0.7816164E-02  0.1320468E+00
        -11   -1    0    0    0    0  0.00000000000E+00  0.00000000000E+00  0.45593999997E+02  0.45594000000E+02  0.51100000000E-03 0. -1.
         11   -1    0    0    0    0 -0.00000000000E+00 -0.00000000000E+00 -0.45593999997E+02  0.45594000000E+02  0.51100000000E-03 0.  1.
    9900012    2    1    2    0    0 -0.37730096755E+02  0.22029014908E+02 -0.10967056135E+02  0.46142311868E+02  0.99999462648E+01 0.  0.
         12    1    1    2    0    0  0.37730096755E+02 -0.22029014908E+02  0.10967056135E+02  0.45045688132E+02  0.00000000000E+00 0. -1.
         11    1    3    3    0    0 -0.14169536959E+02  0.11211411108E+02 -0.46544498947E+01  0.18658387410E+02  0.51100000000E-03 0. -1.
        -11    1    3    3    0    0 -0.18414852954E+02  0.54538899829E+01 -0.34179359216E+01  0.19507280986E+02  0.51100000000E-03 0.  1.
        -12    1    3    3    0    0 -0.51457068424E+01  0.53637138176E+01 -0.28946703186E+01  0.79766434720E+01  0.00000000000E+00 0.  1.
</event>
<event>
 7    1  0.2328810E-008  0.4614232E+02  0.7816164E-02  0.1320468E+00
        -11   -1    0    0    0    0  0.00000000000E+00  0.00000000000E+00  0.45593999997E+02  0.45594000000E+02  0.51100000000E-03 0.  1.
         11   -1    0    0    0    0 -0.00000000000E+00 -0.00000000000E+00 -0.45593999997E+02  0.45594000000E+02  0.51100000000E-03 0. -1.
    9900012    2    1    2    0    0  0.15487568039E+02 -0.37299581036E+02  0.19949686897E+02  0.46142317448E+02  0.99999971493E+01 0.  0.
         12    1    1    2    0    0 -0.15487568039E+02  0.37299581036E+02 -0.19949686897E+02  0.45045682552E+02  0.00000000000E+00 0. -1.
         11    1    3    3    0    0  0.30646672895E+01 -0.51147427800E+01  0.65376443563E+01  0.88483655717E+01  0.51100000000E-03 0. -1.
        -11    1    3    3    0    0  0.75695938361E+01 -0.24307747147E+02  0.86519017155E+01  0.26889044717E+02  0.51100000000E-03 0.  1.
        -12    1    3    3    0    0  0.48533069131E+01 -0.78770911090E+01  0.47601408251E+01  0.10404907160E+02  0.00000000000E+00 0.  1.
</event>
<event>
 7    1  0.2328810E-008  0.4614231E+02  0.7816164E-02  0.1320468E+00
        -11   -1    0    0    0    0  0.00000000000E+00  0.00000000000E+00  0.45593999997E+02  0.45594000000E+02  0.51100000000E-03 0. -1.
         11   -1    0    0    0    0 -0.00000000000E+00 -0.00000000000E+00 -0.45593999997E+02  0.45594000000E+02  0.51100000000E-03 0.  1.
    9900012    2    1    2    0    0 -0.26945101983E+02 -0.94974365007E+01  0.34826339945E+02  0.46142314581E+02  0.99999709992E+01 0.  0.
         12    1    1    2    0    0  0.26945101983E+02  0.94974365007E+01 -0.34826339945E+02  0.45045685419E+02  0.00000000000E+00 0. -1.
         11    1    3    3    0    0 -0.18529280374E+02 -0.36539499306E+01  0.19144205128E+02  0.26892120993E+02  0.51100000000E-03 0. -1.
        -11    1    3    3    0    0 -0.67170471673E+01 -0.21087050595E+01  0.10469584961E+02  0.12616559325E+02  0.51100000000E-03 0.  1.
         12    1    3    3    0    0 -0.16987744415E+01 -0.37347815106E+01  0.52125498556E+01  0.66336342627E+01  0.00000000000E+00 0. -1.
</event>
<event>
 7    1  0.2328810E-008  0.4614232E+02  0.7816164E-02  0.1320468E+00
        -11   -1    0    0    0    0  0.00000000000E+00  0.00000000000E+00  0.45593999997E+02  0.45594000000E+02  0.51100000000E-03 0.  1.
         11   -1    0    0    0    0 -0.00000000000E+00 -0.00000000000E+00 -0.45593999997E+02  0.45594000000E+02  0.51100000000E-03 0. -1.
    9900012    2    1    2    0    0  0.26435069529E+02  0.35766759561E+02  0.71441830713E+01  0.46142319383E+02  0.10000014792E+02 0.  0.
         12    1    1    2    0    0 -0.26435069529E+02 -0.35766759561E+02 -0.71441830713E+01  0.45045680617E+02  0.00000000000E+00 0. -1.
         11    1    3    3    0    0 -0.30398028911E+00  0.15303646714E+01  0.13919953184E+00  0.15664599626E+01  0.51100000000E-03 0. -1.
        -11    1    3    3    0    0  0.20623427236E+02  0.21860164511E+02  0.30037057907E+01  0.30202893771E+02  0.51100000000E-03 0.  1.
        -12    1    3    3    0    0  0.61156225824E+01  0.12376230378E+02  0.40012777488E+01  0.14372965650E+02  0.00000000000E+00 0.  1.
</event>
<event>
 7    1  0.2328810E-008  0.4614232E+02  0.7816164E-02  0.1320468E+00
        -11   -1    0    0    0    0  0.00000000000E+00  0.00000000000E+00  0.45593999997E+02  0.45594000000E+02  0.51100000000E-03 0.  1.
         11   -1    0    0    0    0 -0.00000000000E+00 -0.00000000000E+00 -0.45593999997E+02  0.45594000000E+02  0.51100000000E-03 0. -1.
    9900012    2    1    2    0    0 -0.36338481711E+01  0.37307392198E+02  0.24981337927E+02  0.46142316414E+02  0.99999877140E+01 0.  0.
         12    1    1    2    0    0  0.36338481711E+01 -0.37307392198E+02 -0.24981337927E+02  0.45045683586E+02  0.00000000000E+00 0. -1.
         11    1    3    3    0    0 -0.57247531061E+01  0.16779383303E+02  0.93011787385E+01  0.20020799893E+02  0.51100000000E-03 0. -1.
        -11    1    3    3    0    0 -0.34564483308E+00  0.12219950826E+02  0.88012502750E+01  0.15063488149E+02  0.51100000000E-03 0.  1.
        -12    1    3    3    0    0  0.24365497681E+01  0.83080580686E+01  0.68789089135E+01  0.11058028372E+02  0.00000000000E+00 0.  1.
</event>
<event>
 7    1  0.2328810E-008  0.4614232E+02  0.7816164E-02  0.1320468E+00
        -11   -1    0    0    0    0  0.00000000000E+00  0.00000000000E+00  0.45593999997E+02  0.45594000000E+02  0.51100000000E-03 0. -1.
         11   -1    0    0    0    0 -0.00000000000E+00 -0.00000000000E+00 -0.45593999997E+02  0.45594000000E+02  0.51100000000E-03 0.  1.
    9900012    2    1    2    0    0 -0.15268127566E+02 -0.28969062368E+02 -0.30932042106E+02  0.46142317380E+02  0.99999965280E+01 0.  0.
         12    1    1    2    0    0  0.15268127566E+02  0.28969062368E+02  0.30932042106E+02  0.45045682620E+02  0.00000000000E+00 0. -1.
         11    1    3    3    0    0 -0.86454780884E+00 -0.48488070028E+01 -0.32247647969E+01  0.58870604312E+01  0.51100000000E-03 0.  1.
        -11    1    3    3    0    0 -0.46986206104E+00 -0.15406251951E+01  0.34032132991E+00  0.16462427576E+01  0.51100000000E-03 0. -1.
         12    1    3    3    0    0 -0.13933717696E+02 -0.22579630170E+02 -0.28047598639E+02  0.38609014192E+02  0.00000000000E+00 0. -1.
</event>
<event>
 7    1  0.2328810E-008  0.4614232E+02  0.7816164E-02  0.1320468E+00
        -11   -1    0    0    0    0  0.00000000000E+00  0.00000000000E+00  0.45593999997E+02  0.45594000000E+02  0.51100000000E-03 0.  1.
         11   -1    0    0    0    0 -0.00000000000E+00 -0.00000000000E+00 -0.45593999997E+02  0.45594000000E+02  0.51100000000E-03 0. -1.
    9900012    2    1    2    0    0  0.37761842689E+02  0.23356825384E+02  0.75904827718E+01  0.46142317809E+02  0.10000000438E+02 0.  0.
         12    1    1    2    0    0 -0.37761842689E+02 -0.23356825384E+02 -0.75904827718E+01  0.45045682191E+02  0.00000000000E+00 0. -1.
         11    1    3    3    0    0  0.16298478523E+02  0.10745923931E+02  0.80083151950E+00  0.19538592956E+02  0.51100000000E-03 0. -1.
        -11    1    3    3    0    0  0.10825017851E+02  0.27566645991E+01  0.21245502829E+01  0.11370748672E+02  0.51100000000E-03 0.  1.
         12    1    3    3    0    0  0.10638346315E+02  0.98542368541E+01  0.46651009694E+01  0.15232976182E+02  0.00000000000E+00 0. -1.
</event>
<event>
 7    1  0.2328810E-008  0.4614232E+02  0.7816164E-02  0.1320468E+00
        -11   -1    0    0    0    0  0.00000000000E+00  0.00000000000E+00  0.45593999997E+02  0.45594000000E+02  0.51100000000E-03 0. -1.
         11   -1    0    0    0    0 -0.00000000000E+00 -0.00000000000E+00 -0.45593999997E+02  0.45594000000E+02  0.51100000000E-03 0.  1.
    9900012    2    1    2    0    0  0.26240202837E+02  0.28977856531E+02 -0.22379659152E+02  0.46142316991E+02  0.99999929732E+01 0.  0.
         12    1    1    2    0    0 -0.26240202837E+02 -0.28977856531E+02  0.22379659152E+02  0.45045683009E+02  0.00000000000E+00 0. -1.
         11    1    3    3    0    0  0.25913006681E+00  0.30584833837E+01 -0.53388492837E+00  0.31155260194E+01  0.51100000000E-03 0. -1.
        -11    1    3    3    0    0  0.17734180798E+02  0.19335588239E+02 -0.17897113437E+02  0.31759609739E+02  0.51100000000E-03 0.  1.
        -12    1    3    3    0    0  0.82468919717E+01  0.65837849083E+01 -0.39486607860E+01  0.11267181232E+02  0.00000000000E+00 0.  1.
</event>
<event>
 7    1  0.2328810E-008  0.4614232E+02  0.7816164E-02  0.1320468E+00
        -11   -1    0    0    0    0  0.00000000000E+00  0.00000000000E+00  0.45593999997E+02  0.45594000000E+02  0.51100000000E-03 0.  1.
         11   -1    0    0    0    0 -0.00000000000E+00 -0.00000000000E+00 -0.45593999997E+02  0.45594000000E+02  0.51100000000E-03 0. -1.
    9900012    2    1    2    0    0 -0.22927033926E+02 -0.64930132055E+01  0.38227024649E+02  0.46142317425E+02  0.99999969310E+01 0.  0.
         12    1    1    2    0    0  0.22927033926E+02  0.64930132055E+01 -0.38227024649E+02  0.45045682575E+02  0.00000000000E+00 0. -1.
         11    1    3    3    0    0 -0.81140383987E+01 -0.69973292029E+01  0.17874670572E+02  0.20839963614E+02  0.51100000000E-03 0. -1.
        -11    1    3    3    0    0 -0.47771526075E+01 -0.73368783790E+00  0.79029565532E+01  0.92637037637E+01  0.51100000000E-03 0.  1.
        -12    1    3    3    0    0 -0.10035842920E+02  0.12380038353E+01  0.12449397524E+02  0.16038650047E+02  0.00000000000E+00 0.  1.
</event>
<event>
 7    1  0.2328810E-008  0.4614232E+02  0.7816164E-02  0.1320468E+00
        -11   -1    0    0    0    0  0.00000000000E+00  0.00000000000E+00  0.45593999997E+02  0.45594000000E+02  0.51100000000E-03 0.  1.
         11   -1    0    0    0    0 -0.00000000000E+00 -0.00000000000E+00 -0.45593999997E+02  0.45594000000E+02  0.51100000000E-03 0. -1.
    9900012    2    1    2    0    0 -0.39353044149E+02  0.92722995514E+01  0.19861416579E+02  0.46142317729E+02  0.99999997036E+01 0.  0.
         12    1    1    2    0    0  0.39353044149E+02 -0.92722995514E+01 -0.19861416579E+02  0.45045682271E+02  0.00000000000E+00 0. -1.
         11    1    3    3    0    0 -0.43420412462E+01  0.13038742021E+00  0.32952752832E+01  0.54524455537E+01  0.51100000000E-03 0. -1.
        -11    1    3    3    0    0 -0.32550436688E+02  0.87893062240E+01  0.12568876413E+02  0.35982766529E+02  0.51100000000E-03 0.  1.
         12    1    3    3    0    0 -0.24605662144E+01  0.35260590720E+00  0.39972648829E+01  0.47071056463E+01  0.00000000000E+00 0. -1.
</event>
<event>
 7    1  0.2328810E-008  0.4614232E+02  0.7816164E-02  0.1320468E+00
        -11   -1    0    0    0    0  0.00000000000E+00  0.00000000000E+00  0.45593999997E+02  0.45594000000E+02  0.51100000000E-03 0.  1.
         11   -1    0    0    0    0 -0.00000000000E+00 -0.00000000000E+00 -0.45593999997E+02  0.45594000000E+02  0.51100000000E-03 0. -1.
    9900012    2    1    2    0    0 -0.27403730774E+02  0.10727609621E+02  0.34103773890E+02  0.46142318053E+02  0.10000002663E+02 0.  0.
         12    1    1    2    0    0  0.27403730774E+02 -0.10727609621E+02 -0.34103773890E+02  0.45045681947E+02  0.00000000000E+00 0. -1.
         11    1    3    3    0    0 -0.21760620436E+02  0.68954897104E+01  0.27938967002E+02  0.36078501320E+02  0.51100000000E-03 0. -1.
        -11    1    3    3    0    0 -0.27425540397E+01  0.42884709501E+00  0.45100002886E+01  0.52958111141E+01  0.51100000000E-03 0.  1.
         12    1    3    3    0    0 -0.29005562987E+01  0.34032728159E+01  0.16548065991E+01  0.47680056189E+01  0.00000000000E+00 0. -1.
</event>
<event>
 7    1  0.2328810E-008  0.4614232E+02  0.7816164E-02  0.1320468E+00
        -11   -1    0    0    0    0  0.00000000000E+00  0.00000000000E+00  0.45593999997E+02  0.45594000000E+02  0.51100000000E-03 0.  1.
         11   -1    0    0    0    0 -0.00000000000E+00 -0.00000000000E+00 -0.45593999997E+02  0.45594000000E+02  0.51100000000E-03 0. -1.
    9900012    2    1    2    0    0  0.18017745612E+02  0.36058636594E+02  0.20105945573E+02  0.46142317884E+02  0.10000001117E+02 0.  0.
         12    1    1    2    0    0 -0.18017745612E+02 -0.36058636594E+02 -0.20105945573E+02  0.45045682116E+02  0.00000000000E+00 0. -1.
         11    1    3    3    0    0  0.17617039442E+01  0.72540166766E+01  0.11750127497E+01  0.75567859540E+01  0.51100000000E-03 0. -1.
        -11    1    3    3    0    0  0.65222848880E+01  0.63354790123E+01  0.42731537809E+01  0.10046807352E+02  0.51100000000E-03 0.  1.
        -12    1    3    3    0    0  0.97337567798E+01  0.22469140905E+02  0.14657779042E+02  0.28538724577E+02  0.00000000000E+00 0.  1.
</event>
<event>
 7    1  0.2328810E-008  0.4614232E+02  0.7816164E-02  0.1320468E+00
        -11   -1    0    0    0    0  0.00000000000E+00  0.00000000000E+00  0.45593999997E+02  0.45594000000E+02  0.51100000000E-03 0.  1.
         11   -1    0    0    0    0 -0.00000000000E+00 -0.00000000000E+00 -0.45593999997E+02  0.45594000000E+02  0.51100000000E-03 0. -1.
    9900012    2    1    2    0    0  0.27787782488E+01  0.34866961379E+02  0.28384624237E+02  0.46142317661E+02  0.99999990843E+01 0.  0.
         12    1    1    2    0    0 -0.27787782488E+01 -0.34866961379E+02 -0.28384624237E+02  0.45045682339E+02  0.00000000000E+00 0. -1.
         11    1    3    3    0    0 -0.59041463367E-01  0.11013780525E+01  0.20361358365E+01  0.23156789317E+01  0.51100000000E-03 0. -1.
        -11    1    3    3    0    0 -0.26455375522E+01  0.18983045786E+02  0.16000363024E+02  0.24967308894E+02  0.51100000000E-03 0.  1.
         12    1    3    3    0    0  0.54833572644E+01  0.14782537540E+02  0.10348125377E+02  0.18859329835E+02  0.00000000000E+00 0. -1.
</event>
<event>
 7    1  0.2328810E-008  0.4614232E+02  0.7816164E-02  0.1320468E+00
        -11   -1    0    0    0    0  0.00000000000E+00  0.00000000000E+00  0.45593999997E+02  0.45594000000E+02  0.51100000000E-03 0.  1.
         11   -1    0    0    0    0 -0.00000000000E+00 -0.00000000000E+00 -0.45593999997E+02  0.45594000000E+02  0.51100000000E-03 0. -1.
    9900012    2    1    2    0    0  0.21414730218E+02  0.35797557286E+02  0.17001696161E+02  0.46142318184E+02  0.10000003857E+02 0.  0.
         12    1    1    2    0    0 -0.21414730218E+02 -0.35797557286E+02 -0.17001696161E+02  0.45045681816E+02  0.00000000000E+00 0. -1.
         11    1    3    3    0    0  0.15905087895E+02  0.24348439619E+02  0.10004136857E+02  0.30755504993E+02  0.51100000000E-03 0. -1.
        -11    1    3    3    0    0  0.36966054118E+01  0.11276918513E+02  0.63060561258E+01  0.13438754662E+02  0.51100000000E-03 0.  1.
         12    1    3    3    0    0  0.18130369116E+01  0.17219915273E+00  0.69150317774E+00  0.19480585299E+01  0.00000000000E+00 0. -1.
</event>
<event>
 7    1  0.2328810E-008  0.4614232E+02  0.7816164E-02  0.1320468E+00
        -11   -1    0    0    0    0  0.00000000000E+00  0.00000000000E+00  0.45593999997E+02  0.45594000000E+02  0.51100000000E-03 0. -1.
         11   -1    0    0    0    0 -0.00000000000E+00 -0.00000000000E+00 -0.45593999997E+02  0.45594000000E+02  0.51100000000E-03 0.  1.
    9900012    2    1    2    0    0 -0.21411558544E+02  0.20711719777E+02 -0.33788803858E+02  0.46142318280E+02  0.10000004735E+02 0.  0.
         12    1    1    2    0    0  0.21411558544E+02 -0.20711719777E+02  0.33788803858E+02  0.45045681720E+02  0.00000000000E+00 0. -1.
         11    1    3    3    0    0 -0.77675218907E+01  0.80222370298E+01 -0.17448770186E+02  0.20715942280E+02  0.51100000000E-03 0. -1.
        -11    1    3    3    0    0 -0.12305742795E+02  0.87891288733E+01 -0.14352374016E+02  0.20848758530E+02  0.51100000000E-03 0.  1.
        -12    1    3    3    0    0 -0.13382938583E+01  0.39003538744E+01 -0.19876596561E+01  0.45776174704E+01  0.00000000000E+00 0.  1.
</event>
<event>
 7    1  0.2328810E-008  0.4614232E+02  0.7816164E-02  0.1320468E+00
        -11   -1    0    0    0    0  0.00000000000E+00  0.00000000000E+00  0.45593999997E+02  0.45594000000E+02  0.51100000000E-03 0. -1.
         11   -1    0    0    0    0 -0.00000000000E+00 -0.00000000000E+00 -0.45593999997E+02  0.45594000000E+02  0.51100000000E-03 0.  1.
    9900012    2    1    2    0    0  0.33772892624E+02  0.22539916093E+02 -0.19505315820E+02  0.46142318310E+02  0.10000005010E+02 0.  0.
         12    1    1    2    0    0 -0.33772892624E+02 -0.22539916093E+02  0.19505315820E+02  0.45045681690E+02  0.00000000000E+00 0. -1.
         11    1    3    3    0    0  0.45992895745E+01  0.35771309346E+01 -0.60330978866E+01  0.83873476549E+01  0.51100000000E-03 0. -1.
        -11    1    3    3    0    0  0.86509242221E+01  0.89018621679E+01 -0.46552746753E+01  0.13257195123E+02  0.51100000000E-03 0.  1.
         12    1    3    3    0    0  0.20522678827E+02  0.10060922991E+02 -0.88169432577E+01  0.24497775533E+02  0.00000000000E+00 0. -1.
</event>
<event>
 7    1  0.2328810E-008  0.4614232E+02  0.7816164E-02  0.1320468E+00
        -11   -1    0    0    0    0  0.00000000000E+00  0.00000000000E+00  0.45593999997E+02  0.45594000000E+02  0.51100000000E-03 0.  1.
         11   -1    0    0    0    0 -0.00000000000E+00 -0.00000000000E+00 -0.45593999997E+02  0.45594000000E+02  0.51100000000E-03 0. -1.
    9900012    2    1    2    0    0 -0.11676454047E+02  0.39677790407E+02  0.17845076337E+02  0.46142318962E+02  0.10000010951E+02 0.  0.
         12    1    1    2    0    0  0.11676454047E+02 -0.39677790407E+02 -0.17845076337E+02  0.45045681038E+02  0.00000000000E+00 0. -1.
         11    1    3    3    0    0 -0.15340644242E+01  0.78934786626E+00  0.19334572496E+01  0.25912701342E+01  0.51100000000E-03 0. -1.
        -11    1    3    3    0    0 -0.10856348843E+01  0.10632289055E+02  0.60607925556E+01  0.12286471435E+02  0.51100000000E-03 0.  1.
        -12    1    3    3    0    0 -0.90567547387E+01  0.28256153485E+02  0.98508265321E+01  0.31264577393E+02  0.00000000000E+00 0.  1.
</event>
<event>
 7    1  0.2328810E-008  0.4614232E+02  0.7816164E-02  0.1320468E+00
        -11   -1    0    0    0    0  0.00000000000E+00  0.00000000000E+00  0.45593999997E+02  0.45594000000E+02  0.51100000000E-03 0. -1.
         11   -1    0    0    0    0 -0.00000000000E+00 -0.00000000000E+00 -0.45593999997E+02  0.45594000000E+02  0.51100000000E-03 0.  1.
    9900012    2    1    2    0    0 -0.76629756664E+01 -0.24621467313E+02  0.36934748114E+02  0.46142317999E+02  0.10000002169E+02 0.  0.
         12    1    1    2    0    0  0.76629756664E+01  0.24621467313E+02 -0.36934748114E+02  0.45045682001E+02  0.00000000000E+00 0. -1.
         11    1    3    3    0    0 -0.67734219324E+01 -0.17431713546E+02  0.24802611742E+02  0.31063055730E+02  0.51100000000E-03 0. -1.
        -11    1    3    3    0    0 -0.23117844944E+01 -0.68321687411E+01  0.11263094867E+02  0.13374609658E+02  0.51100000000E-03 0.  1.
         12    1    3    3    0    0  0.14222307604E+01 -0.35758502569E+00  0.86904150561E+00  0.17046526112E+01  0.00000000000E+00 0. -1.
</event>
<event>
 7    1  0.2328810E-008  0.4614232E+02  0.7816164E-02  0.1320468E+00
        -11   -1    0    0    0    0  0.00000000000E+00  0.00000000000E+00  0.45593999997E+02  0.45594000000E+02  0.51100000000E-03 0. -1.
         11   -1    0    0    0    0 -0.00000000000E+00 -0.00000000000E+00 -0.45593999997E+02  0.45594000000E+02  0.51100000000E-03 0.  1.
    9900012    2    1    2    0    0  0.13818950182E+02  0.37493108326E+02  0.20794636785E+02  0.46142317909E+02  0.10000001346E+02 0.  0.
         12    1    1    2    0    0 -0.13818950182E+02 -0.37493108326E+02 -0.20794636785E+02  0.45045682091E+02  0.00000000000E+00 0. -1.
         11    1    3    3    0    0  0.36968021576E+01  0.74227556943E+01  0.38490425290E+01  0.91421429075E+01  0.51100000000E-03 0. -1.
        -11    1    3    3    0    0  0.70781928388E+01  0.86162556222E+01  0.46112245045E+01  0.12066651006E+02  0.51100000000E-03 0.  1.
        -12    1    3    3    0    0  0.30439551856E+01  0.21454097009E+02  0.12334369751E+02  0.24933523995E+02  0.00000000000E+00 0.  1.
</event>
<event>
 7    1  0.2328810E-008  0.4614231E+02  0.7816164E-02  0.1320468E+00
        -11   -1    0    0    0    0  0.00000000000E+00  0.00000000000E+00  0.45593999997E+02  0.45594000000E+02  0.51100000000E-03 0. -1.
         11   -1    0    0    0    0 -0.00000000000E+00 -0.00000000000E+00 -0.45593999997E+02  0.45594000000E+02  0.51100000000E-03 0.  1.
    9900012    2    1    2    0    0 -0.14855473073E+02  0.30645999158E+02 -0.29483075620E+02  0.46142311054E+02  0.99999388390E+01 0.  0.
         12    1    1    2    0    0  0.14855473073E+02 -0.30645999158E+02  0.29483075620E+02  0.45045688946E+02  0.00000000000E+00 0. -1.
         11    1    3    3    0    0  0.19199733983E+00  0.34505566242E+01 -0.27423042186E+01  0.44117385103E+01  0.51100000000E-03 0. -1.
        -11    1    3    3    0    0 -0.13673636278E+02  0.21333985028E+02 -0.24666281991E+02  0.35362871968E+02  0.51100000000E-03 0.  1.
        -12    1    3    3    0    0 -0.13738341345E+01  0.58614575052E+01 -0.20744894104E+01  0.63677005762E+01  0.00000000000E+00 0.  1.
</event>
<event>
 7    1  0.2328810E-008  0.4614232E+02  0.7816164E-02  0.1320468E+00
        -11   -1    0    0    0    0  0.00000000000E+00  0.00000000000E+00  0.45593999997E+02  0.45594000000E+02  0.51100000000E-03 0.  1.
         11   -1    0    0    0    0 -0.00000000000E+00 -0.00000000000E+00 -0.45593999997E+02  0.45594000000E+02  0.51100000000E-03 0. -1.
    9900012    2    1    2    0    0 -0.18726218540E+02 -0.23720497253E+02  0.33403297440E+02  0.46142317293E+02  0.99999957287E+01 0.  0.
         12    1    1    2    0    0  0.18726218540E+02  0.23720497253E+02 -0.33403297440E+02  0.45045682707E+02  0.00000000000E+00 0. -1.
         11    1    3    3    0    0 -0.34357709013E+01 -0.26778593117E+01  0.55457294799E+01  0.70519903506E+01  0.51100000000E-03 0. -1.
        -11    1    3    3    0    0 -0.13143591434E+02 -0.14785107971E+02  0.15724171197E+02  0.25270595039E+02  0.51100000000E-03 0.  1.
        -12    1    3    3    0    0 -0.21468562047E+01 -0.62575299699E+01  0.12133396763E+02  0.13819731904E+02  0.00000000000E+00 0.  1.
</event>
<event>
 7    1  0.2328810E-008  0.4614232E+02  0.7816164E-02  0.1320468E+00
        -11   -1    0    0    0    0  0.00000000000E+00  0.00000000000E+00  0.45593999997E+02  0.45594000000E+02  0.51100000000E-03 0.  1.
         11   -1    0    0    0    0 -0.00000000000E+00 -0.00000000000E+00 -0.45593999997E+02  0.45594000000E+02  0.51100000000E-03 0. -1.
    9900012    2    1    2    0    0 -0.39512695430E+02 -0.57736329431E+01  0.20845276168E+02  0.46142317898E+02  0.10000001247E+02 0.  0.
         12    1    1    2    0    0  0.39512695430E+02  0.57736329431E+01 -0.20845276168E+02  0.45045682102E+02  0.00000000000E+00 0. -1.
         11    1    3    3    0    0 -0.86895769109E+01 -0.28771379680E+01  0.72269096385E+01  0.11662542303E+02  0.51100000000E-03 0. -1.
        -11    1    3    3    0    0 -0.11909210933E+02 -0.31557851576E+00  0.87445370385E+01  0.14778221243E+02  0.51100000000E-03 0.  1.
         12    1    3    3    0    0 -0.18913907587E+02 -0.25809164593E+01  0.48738294909E+01  0.19701554352E+02  0.00000000000E+00 0. -1.
</event>
<event>
 7    1  0.2328810E-008  0.4614232E+02  0.7816164E-02  0.1320468E+00
        -11   -1    0    0    0    0  0.00000000000E+00  0.00000000000E+00  0.45593999997E+02  0.45594000000E+02  0.51100000000E-03 0.  1.
         11   -1    0    0    0    0 -0.00000000000E+00 -0.00000000000E+00 -0.45593999997E+02  0.45594000000E+02  0.51100000000E-03 0. -1.
    9900012    2    1    2    0    0  0.16444137509E+02  0.25265068550E+01  0.41860728231E+02  0.46142318039E+02  0.10000002532E+02 0.  0.
         12    1    1    2    0    0 -0.16444137509E+02 -0.25265068550E+01 -0.41860728231E+02  0.45045681961E+02  0.00000000000E+00 0. -1.
         11    1    3    3    0    0  0.13341306423E+02  0.74251517937E+00  0.27205723568E+02  0.30309951847E+02  0.51100000000E-03 0. -1.
        -11    1    3    3    0    0  0.43983859403E+01  0.15834685432E+01  0.11157212176E+02  0.12096964715E+02  0.51100000000E-03 0.  1.
         12    1    3    3    0    0 -0.12955548546E+01  0.20052313247E+00  0.34977924876E+01  0.37354014770E+01  0.00000000000E+00 0. -1.
</event>
<event>
 7    1  0.2328810E-008  0.4614231E+02  0.7816164E-02  0.1320468E+00
        -11   -1    0    0    0    0  0.00000000000E+00  0.00000000000E+00  0.45593999997E+02  0.45594000000E+02  0.51100000000E-03 0. -1.
         11   -1    0    0    0    0 -0.00000000000E+00 -0.00000000000E+00 -0.45593999997E+02  0.45594000000E+02  0.51100000000E-03 0.  1.
    9900012    2    1    2    0    0 -0.44837510419E+02  0.43243876907E+01  0.10534529079E+00  0.46142314667E+02  0.99999717890E+01 0.  0.
         12    1    1    2    0    0  0.44837510419E+02 -0.43243876907E+01 -0.10534529079E+00  0.45045685333E+02  0.00000000000E+00 0. -1.
         11    1    3    3    0    0 -0.18189515284E+00  0.72243831640E+00 -0.44404712696E+00  0.86728373657E+00  0.51100000000E-03 0. -1.
        -11    1    3    3    0    0 -0.15473114493E+02 -0.16893264066E+01  0.11829184050E+01  0.15609945293E+02  0.51100000000E-03 0.  1.
         12    1    3    3    0    0 -0.29182500773E+02  0.52912757809E+01 -0.63352598726E+00  0.29665085638E+02  0.00000000000E+00 0. -1.
</event>
<event>
 7    1  0.2328810E-008  0.4614232E+02  0.7816164E-02  0.1320468E+00
        -11   -1    0    0    0    0  0.00000000000E+00  0.00000000000E+00  0.45593999997E+02  0.45594000000E+02  0.51100000000E-03 0.  1.
         11   -1    0    0    0    0 -0.00000000000E+00 -0.00000000000E+00 -0.45593999997E+02  0.45594000000E+02  0.51100000000E-03 0. -1.
    9900012    2    1    2    0    0 -0.10310406411E+02  0.42637147671E+01  0.43642063153E+02  0.46142318517E+02  0.10000006896E+02 0.  0.
         12    1    1    2    0    0  0.10310406411E+02 -0.42637147671E+01 -0.43642063153E+02  0.45045681483E+02  0.00000000000E+00 0. -1.
         11    1    3    3    0    0 -0.15271047945E+00  0.38453517634E+00  0.10320868526E+02  0.10329158494E+02  0.51100000000E-03 0. -1.
        -11    1    3    3    0    0 -0.95670003877E+01  0.34142840200E+01  0.33528430194E+02  0.35033419235E+02  0.51100000000E-03 0.  1.
        -12    1    3    3    0    0 -0.59069554365E+00  0.46489557076E+00 -0.20723556689E+00  0.77974078846E+00  0.00000000000E+00 0.  1.
</event>
<event>
 7    1  0.2328810E-008  0.4614231E+02  0.7816164E-02  0.1320468E+00
        -11   -1    0    0    0    0  0.00000000000E+00  0.00000000000E+00  0.45593999997E+02  0.45594000000E+02  0.51100000000E-03 0. -1.
         11   -1    0    0    0    0 -0.00000000000E+00 -0.00000000000E+00 -0.45593999997E+02  0.45594000000E+02  0.51100000000E-03 0.  1.
    9900012    2    1    2    0    0  0.14818944549E+02 -0.52945977710E+00 -0.42535073460E+02  0.46142312976E+02  0.99999563652E+01 0.  0.
         12    1    1    2    0    0 -0.14818944549E+02  0.52945977710E+00  0.42535073460E+02  0.45045687024E+02  0.00000000000E+00 0. -1.
         11    1    3    3    0    0  0.10607190903E+02 -0.14402347769E+01 -0.21108627878E+02  0.23667719498E+02  0.51100000000E-03 0. -1.
        -11    1    3    3    0    0  0.19247766938E+01 -0.16441462298E+01 -0.14785527426E+02  0.15000660108E+02  0.51100000000E-03 0.  1.
         12    1    3    3    0    0  0.22869769521E+01  0.25549212297E+01 -0.66409181561E+01  0.74739333704E+01  0.00000000000E+00 0. -1.
</event>
<event>
 7    1  0.2328810E-008  0.4614231E+02  0.7816164E-02  0.1320468E+00
        -11   -1    0    0    0    0  0.00000000000E+00  0.00000000000E+00  0.45593999997E+02  0.45594000000E+02  0.51100000000E-03 0. -1.
         11   -1    0    0    0    0 -0.00000000000E+00 -0.00000000000E+00 -0.45593999997E+02  0.45594000000E+02  0.51100000000E-03 0.  1.
    9900012    2    1    2    0    0  0.21212148693E+02 -0.30765691996E+02 -0.25152154151E+02  0.46142313030E+02  0.99999568579E+01 0.  0.
         12    1    1    2    0    0 -0.21212148693E+02  0.30765691996E+02  0.25152154151E+02  0.45045686970E+02  0.00000000000E+00 0. -1.
         11    1    3    3    0    0  0.21791624176E+01 -0.10810426228E+01 -0.22478782856E+01  0.33121532335E+01  0.51100000000E-03 0. -1.
        -11    1    3    3    0    0  0.88339053972E+01 -0.81616736651E+01 -0.49597867007E+01  0.13009622822E+02  0.51100000000E-03 0.  1.
        -12    1    3    3    0    0  0.10199080878E+02 -0.21522975708E+02 -0.17944489165E+02  0.29820536975E+02  0.00000000000E+00 0.  1.
</event>
<event>
 7    1  0.2328810E-008  0.4614232E+02  0.7816164E-02  0.1320468E+00
        -11   -1    0    0    0    0  0.00000000000E+00  0.00000000000E+00  0.45593999997E+02  0.45594000000E+02  0.51100000000E-03 0.  1.
         11   -1    0    0    0    0 -0.00000000000E+00 -0.00000000000E+00 -0.45593999997E+02  0.45594000000E+02  0.51100000000E-03 0. -1.
    9900012    2    1    2    0    0  0.19418263824E+02 -0.40162771045E+02  0.62447095427E+01  0.46142317130E+02  0.99999942444E+01 0.  0.
         12    1    1    2    0    0 -0.19418263824E+02  0.40162771045E+02 -0.62447095427E+01  0.45045682870E+02  0.00000000000E+00 0. -1.
         11    1    3    3    0    0  0.48486828708E+01 -0.59190501270E+01  0.26027921196E+01  0.80820422584E+01  0.51100000000E-03 0. -1.
        -11    1    3    3    0    0  0.13080575478E+02 -0.24723263489E+02  0.47132990601E+01  0.28364703430E+02  0.51100000000E-03 0.  1.
        -12    1    3    3    0    0  0.14890054750E+01 -0.95204574293E+01 -0.10713816370E+01  0.96955714417E+01  0.00000000000E+00 0.  1.
</event>
<event>
 7    1  0.2328810E-008  0.4614232E+02  0.7816164E-02  0.1320468E+00
        -11   -1    0    0    0    0  0.00000000000E+00  0.00000000000E+00  0.45593999997E+02  0.45594000000E+02  0.51100000000E-03 0. -1.
         11   -1    0    0    0    0 -0.00000000000E+00 -0.00000000000E+00 -0.45593999997E+02  0.45594000000E+02  0.51100000000E-03 0.  1.
    9900012    2    1    2    0    0 -0.34997765859E+02 -0.39839599189E+00 -0.28356854856E+02  0.46142317057E+02  0.99999935830E+01 0.  0.
         12    1    1    2    0    0  0.34997765859E+02  0.39839599189E+00  0.28356854856E+02  0.45045682943E+02  0.00000000000E+00 0. -1.
         11    1    3    3    0    0 -0.89760257076E+01 -0.55251648219E+00 -0.54273829337E+01  0.10503846807E+02  0.51100000000E-03 0. -1.
        -11    1    3    3    0    0 -0.22704815668E+02 -0.27539032884E+01 -0.19173642087E+02  0.29844952488E+02  0.51100000000E-03 0.  1.
         12    1    3    3    0    0 -0.33169244827E+01  0.29080237787E+01 -0.37558298353E+01  0.57935177633E+01  0.00000000000E+00 0. -1.
</event>
<event>
 7    1  0.2328810E-008  0.4614232E+02  0.7816164E-02  0.1320468E+00
        -11   -1    0    0    0    0  0.00000000000E+00  0.00000000000E+00  0.45593999997E+02  0.45594000000E+02  0.51100000000E-03 0.  1.
         11   -1    0    0    0    0 -0.00000000000E+00 -0.00000000000E+00 -0.45593999997E+02  0.45594000000E+02  0.51100000000E-03 0. -1.
    9900012    2    1    2    0    0 -0.32729440546E+02  0.21293574693E+02  0.22460655797E+02  0.46142315851E+02  0.99999825822E+01 0.  0.
         12    1    1    2    0    0  0.32729440546E+02 -0.21293574693E+02 -0.22460655797E+02  0.45045684149E+02  0.00000000000E+00 0. -1.
         11    1    3    3    0    0 -0.15476106261E+01 -0.60924157273E+00  0.72494028764E+00  0.18143353123E+01  0.51100000000E-03 0. -1.
        -11    1    3    3    0    0 -0.13193933388E+02  0.66245093236E+01  0.58575155581E+01  0.15883151161E+02  0.51100000000E-03 0.  1.
         12    1    3    3    0    0 -0.17987896531E+02  0.15278306942E+02  0.15878199951E+02  0.28444829378E+02  0.00000000000E+00 0. -1.
</event>
<event>
 7    1  0.2328810E-008  0.4614232E+02  0.7816164E-02  0.1320468E+00
        -11   -1    0    0    0    0  0.00000000000E+00  0.00000000000E+00  0.45593999997E+02  0.45594000000E+02  0.51100000000E-03 0.  1.
         11   -1    0    0    0    0 -0.00000000000E+00 -0.00000000000E+00 -0.45593999997E+02  0.45594000000E+02  0.51100000000E-03 0. -1.
    9900012    2    1    2    0    0 -0.52957460522E+01  0.32532609406E+02  0.30703383722E+02  0.46142319042E+02  0.10000011679E+02 0.  0.
         12    1    1    2    0    0  0.52957460522E+01 -0.32532609406E+02 -0.30703383722E+02  0.45045680958E+02  0.00000000000E+00 0. -1.
         11    1    3    3    0    0 -0.25947344024E+01  0.20178687514E+02  0.21218363233E+02  0.29396105438E+02  0.51100000000E-03 0. -1.
        -11    1    3    3    0    0  0.11186340500E+01  0.76736501184E+01  0.51019457184E+01  0.92825696148E+01  0.51100000000E-03 0.  1.
        -12    1    3    3    0    0 -0.38196456999E+01  0.46802717733E+01  0.43830747708E+01  0.74636439888E+01  0.00000000000E+00 0.  1.
</event>
<event>
 7    1  0.2328810E-008  0.4614232E+02  0.7816164E-02  0.1320468E+00
        -11   -1    0    0    0    0  0.00000000000E+00  0.00000000000E+00  0.45593999997E+02  0.45594000000E+02  0.51100000000E-03 0.  1.
         11   -1    0    0    0    0 -0.00000000000E+00 -0.00000000000E+00 -0.45593999997E+02  0.45594000000E+02  0.51100000000E-03 0. -1.
    9900012    2    1    2    0    0 -0.36479872814E+02  0.25933607938E+02 -0.50774543970E+01  0.46142315585E+02  0.99999801598E+01 0.  0.
         12    1    1    2    0    0  0.36479872814E+02 -0.25933607938E+02  0.50774543970E+01  0.45045684415E+02  0.00000000000E+00 0. -1.
         11    1    3    3    0    0 -0.17647880779E+01  0.14657299169E+00  0.91047512471E+00  0.19912121473E+01  0.51100000000E-03 0. -1.
        -11    1    3    3    0    0 -0.47311946419E+01  0.30387108415E+01  0.14034833356E+01  0.57954923909E+01  0.51100000000E-03 0.  1.
        -12    1    3    3    0    0 -0.29983890094E+02  0.22748324105E+02 -0.73914128574E+01  0.38355611047E+02  0.00000000000E+00 0.  1.
</event>
<event>
 7    1  0.2328810E-008  0.4614233E+02  0.7816164E-02  0.1320468E+00
        -11   -1    0    0    0    0  0.00000000000E+00  0.00000000000E+00  0.45593999997E+02  0.45594000000E+02  0.51100000000E-03 0.  1.
         11   -1    0    0    0    0 -0.00000000000E+00 -0.00000000000E+00 -0.45593999997E+02  0.45594000000E+02  0.51100000000E-03 0. -1.
    9900012    2    1    2    0    0  0.10407841926E+02  0.33913958220E+02  0.27760277932E+02  0.46142325773E+02  0.10000073060E+02 0.  0.
         12    1    1    2    0    0 -0.10407841926E+02 -0.33913958220E+02 -0.27760277932E+02  0.45045674227E+02  0.00000000000E+00 0. -1.
         11    1    3    3    0    0  0.40920315799E+01  0.94211623233E+01  0.81057576094E+01  0.13084583626E+02  0.51100000000E-03 0. -1.
        -11    1    3    3    0    0  0.71536884030E+01  0.23468023484E+02  0.16310041676E+02  0.29460835761E+02  0.51100000000E-03 0.  1.
         12    1    3    3    0    0 -0.83787805697E+00  0.10247724126E+01  0.33444786465E+01  0.35969063864E+01  0.00000000000E+00 0. -1.
</event>
<event>
 7    1  0.2328810E-008  0.4614232E+02  0.7816164E-02  0.1320468E+00
        -11   -1    0    0    0    0  0.00000000000E+00  0.00000000000E+00  0.45593999997E+02  0.45594000000E+02  0.51100000000E-03 0.  1.
         11   -1    0    0    0    0 -0.00000000000E+00 -0.00000000000E+00 -0.45593999997E+02  0.45594000000E+02  0.51100000000E-03 0. -1.
    9900012    2    1    2    0    0  0.90994279293E+01 -0.26366826069E+02  0.35370952079E+02  0.46142319224E+02  0.10000013340E+02 0.  0.
         12    1    1    2    0    0 -0.90994279293E+01  0.26366826069E+02 -0.35370952079E+02  0.45045680776E+02  0.00000000000E+00 0. -1.
         11    1    3    3    0    0 -0.30763329344E+00 -0.22534027281E+01  0.85374432239E+00  0.24292677348E+01  0.51100000000E-03 0. -1.
        -11    1    3    3    0    0 -0.94236955001E+00 -0.15903816975E+01  0.39319724764E+01  0.43448569745E+01  0.51100000000E-03 0.  1.
        -12    1    3    3    0    0  0.10349430773E+02 -0.22523041643E+02  0.30585235281E+02  0.39368194515E+02  0.00000000000E+00 0.  1.
</event>
<event>
 7    1  0.2328810E-008  0.4614232E+02  0.7816164E-02  0.1320468E+00
        -11   -1    0    0    0    0  0.00000000000E+00  0.00000000000E+00  0.45593999997E+02  0.45594000000E+02  0.51100000000E-03 0. -1.
         11   -1    0    0    0    0 -0.00000000000E+00 -0.00000000000E+00 -0.45593999997E+02  0.45594000000E+02  0.51100000000E-03 0.  1.
    9900012    2    1    2    0    0  0.26701650723E+02 -0.33257380342E+02  0.14494203643E+02  0.46142318322E+02  0.10000005114E+02 0.  0.
         12    1    1    2    0    0 -0.26701650723E+02  0.33257380342E+02 -0.14494203643E+02  0.45045681678E+02  0.00000000000E+00 0. -1.
         11    1    3    3    0    0  0.10542509961E+01 -0.38218684660E+01  0.25602653320E+01  0.47194366789E+01  0.51100000000E-03 0. -1.
        -11    1    3    3    0    0  0.23096626353E+02 -0.25281744331E+02  0.12631080639E+02  0.36498834827E+02  0.51100000000E-03 0.  1.
         12    1    3    3    0    0  0.25507733741E+01 -0.41537675449E+01 -0.69714232821E+00  0.49240468162E+01  0.00000000000E+00 0. -1.
</event>
<event>
 7    1  0.2328810E-008  0.4614232E+02  0.7816164E-02  0.1320468E+00
        -11   -1    0    0    0    0  0.00000000000E+00  0.00000000000E+00  0.45593999997E+02  0.45594000000E+02  0.51100000000E-03 0.  1.
         11   -1    0    0    0    0 -0.00000000000E+00 -0.00000000000E+00 -0.45593999997E+02  0.45594000000E+02  0.51100000000E-03 0. -1.
    9900012    2    1    2    0    0 -0.26039615411E+02  0.33863444498E+02  0.14294016282E+02  0.46142319347E+02  0.10000014462E+02 0.  0.
         12    1    1    2    0    0  0.26039615411E+02 -0.33863444498E+02 -0.14294016282E+02  0.45045680653E+02  0.00000000000E+00 0. -1.
         11    1    3    3    0    0 -0.63474531690E+01  0.54939198091E+01  0.28932502955E+01  0.88794264530E+01  0.51100000000E-03 0. -1.
        -11    1    3    3    0    0 -0.70743404758E+01  0.11719717985E+02  0.86463911210E+01  0.16191298975E+02  0.51100000000E-03 0.  1.
         12    1    3    3    0    0 -0.12617821766E+02  0.16649806703E+02  0.27543748657E+01  0.21071593919E+02  0.00000000000E+00 0. -1.
</event>
<event>
 7    1  0.2328810E-008  0.4614232E+02  0.7816164E-02  0.1320468E+00
        -11   -1    0    0    0    0  0.00000000000E+00  0.00000000000E+00  0.45593999997E+02  0.45594000000E+02  0.51100000000E-03 0.  1.
         11   -1    0    0    0    0 -0.00000000000E+00 -0.00000000000E+00 -0.45593999997E+02  0.45594000000E+02  0.51100000000E-03 0. -1.
    9900012    2    1    2    0    0 -0.13555831560E+02 -0.23999943104E+02  0.35628016865E+02  0.46142318476E+02  0.10000006517E+02 0.  0.
         12    1    1    2    0    0  0.13555831560E+02  0.23999943104E+02 -0.35628016865E+02  0.45045681524E+02  0.00000000000E+00 0. -1.
         11    1    3    3    0    0 -0.29500359975E+01 -0.65781831819E+00  0.53290568601E+01  0.61265230437E+01  0.51100000000E-03 0. -1.
        -11    1    3    3    0    0 -0.91191205348E+01 -0.20218153066E+02  0.28508792914E+02  0.36120400695E+02  0.51100000000E-03 0.  1.
        -12    1    3    3    0    0 -0.14866750277E+01 -0.31239717195E+01  0.17901670910E+01  0.38953947368E+01  0.00000000000E+00 0.  1.
</event>
<event>
 7    1  0.2328810E-008  0.4614232E+02  0.7816164E-02  0.1320468E+00
        -11   -1    0    0    0    0  0.00000000000E+00  0.00000000000E+00  0.45593999997E+02  0.45594000000E+02  0.51100000000E-03 0.  1.
         11   -1    0    0    0    0 -0.00000000000E+00 -0.00000000000E+00 -0.45593999997E+02  0.45594000000E+02  0.51100000000E-03 0. -1.
    9900012    2    1    2    0    0  0.51764350167E+01 -0.28493061914E+02  0.34503091886E+02  0.46142318670E+02  0.10000008292E+02 0.  0.
         12    1    1    2    0    0 -0.51764350167E+01  0.28493061914E+02 -0.34503091886E+02  0.45045681330E+02  0.00000000000E+00 0. -1.
         11    1    3    3    0    0  0.31232012454E+00 -0.21881816259E+01  0.28086243043E+00  0.22281307533E+01  0.51100000000E-03 0.  1.
        -11    1    3    3    0    0  0.43676568941E+00 -0.13566013839E+02  0.13167780650E+02  0.18910789070E+02  0.51100000000E-03 0. -1.
        -12    1    3    3    0    0  0.44273492027E+01 -0.12738866449E+02  0.21054448806E+02  0.25003398847E+02  0.00000000000E+00 0.  1.
</event>
<event>
 7    1  0.2328810E-008  0.4614232E+02  0.7816164E-02  0.1320468E+00
        -11   -1    0    0    0    0  0.00000000000E+00  0.00000000000E+00  0.45593999997E+02  0.45594000000E+02  0.51100000000E-03 0. -1.
         11   -1    0    0    0    0 -0.00000000000E+00 -0.00000000000E+00 -0.45593999997E+02  0.45594000000E+02  0.51100000000E-03 0.  1.
    9900012    2    1    2    0    0  0.22989789712E+01  0.37378111986E+02 -0.25034074601E+02  0.46142318175E+02  0.10000003772E+02 0.  0.
         12    1    1    2    0    0 -0.22989789712E+01 -0.37378111986E+02  0.25034074601E+02  0.45045681825E+02  0.00000000000E+00 0. -1.
         11    1    3    3    0    0 -0.11519205343E-01  0.43049932554E+00 -0.10969737560E+00  0.44440537431E+00  0.51100000000E-03 0. -1.
        -11    1    3    3    0    0  0.61804598777E-03  0.35197337096E+02 -0.24189364463E+02  0.42708054186E+02  0.51100000000E-03 0.  1.
        -12    1    3    3    0    0  0.23098801306E+01  0.17502755648E+01 -0.73501276322E+00  0.29898586141E+01  0.00000000000E+00 0.  1.
</event>
<event>
 7    1  0.2328810E-008  0.4614232E+02  0.7816164E-02  0.1320468E+00
        -11   -1    0    0    0    0  0.00000000000E+00  0.00000000000E+00  0.45593999997E+02  0.45594000000E+02  0.51100000000E-03 0. -1.
         11   -1    0    0    0    0 -0.00000000000E+00 -0.00000000000E+00 -0.45593999997E+02  0.45594000000E+02  0.51100000000E-03 0.  1.
    9900012    2    1    2    0    0  0.17172374725E+02  0.38519650404E+02  0.15825896258E+02  0.46142324144E+02  0.10000058201E+02 0.  0.
         12    1    1    2    0    0 -0.17172374725E+02 -0.38519650404E+02 -0.15825896258E+02  0.45045675856E+02  0.00000000000E+00 0. -1.
         11    1    3    3    0    0  0.79642170889E+01  0.14756913454E+02  0.77078374303E+01  0.18455514261E+02  0.51100000000E-03 0.  1.
        -11    1    3    3    0    0  0.74535331051E+01  0.10851112042E+02  0.60703775429E+01  0.14496595189E+02  0.51100000000E-03 0. -1.
        -12    1    3    3    0    0  0.17546245312E+01  0.12911624909E+02  0.20476812850E+01  0.13190214694E+02  0.00000000000E+00 0.  1.
</event>
<event>
 7    1  0.2328810E-008  0.4614231E+02  0.7816164E-02  0.1320468E+00
        -11   -1    0    0    0    0  0.00000000000E+00  0.00000000000E+00  0.45593999997E+02  0.45594000000E+02  0.51100000000E-03 0.  1.
         11   -1    0    0    0    0 -0.00000000000E+00 -0.00000000000E+00 -0.45593999997E+02  0.45594000000E+02  0.51100000000E-03 0. -1.
    9900012    2    1    2    0    0  0.48217768691E+01 -0.44784314017E+02  0.47928035266E+00  0.46142311817E+02  0.99999457999E+01 0.  0.
         12    1    1    2    0    0 -0.48217768691E+01  0.44784314017E+02 -0.47928035266E+00  0.45045688183E+02  0.00000000000E+00 0. -1.
         11    1    3    3    0    0  0.12782399850E+00 -0.17998787521E+02  0.39964259062E+00  0.18003677559E+02  0.51100000000E-03 0. -1.
        -11    1    3    3    0    0  0.12808443036E+01 -0.20552968261E+02  0.22331256995E+01  0.20713568430E+02  0.51100000000E-03 0.  1.
         12    1    3    3    0    0  0.34131085670E+01 -0.62325582360E+01 -0.21534879375E+01  0.74250658281E+01  0.00000000000E+00 0. -1.
</event>
<event>
 7    1  0.2328810E-008  0.4614232E+02  0.7816164E-02  0.1320468E+00
        -11   -1    0    0    0    0  0.00000000000E+00  0.00000000000E+00  0.45593999997E+02  0.45594000000E+02  0.51100000000E-03 0.  1.
         11   -1    0    0    0    0 -0.00000000000E+00 -0.00000000000E+00 -0.45593999997E+02  0.45594000000E+02  0.51100000000E-03 0. -1.
    9900012    2    1    2    0    0 -0.95040733334E-01 -0.90590428908E+01  0.44125256052E+02  0.46142317493E+02  0.99999975584E+01 0.  0.
         12    1    1    2    0    0  0.95040733334E-01  0.90590428908E+01 -0.44125256052E+02  0.45045682507E+02  0.00000000000E+00 0. -1.
         11    1    3    3    0    0  0.30062448669E+01 -0.35900927818E+01  0.30890215574E+02  0.31243106325E+02  0.51100000000E-03 0. -1.
        -11    1    3    3    0    0 -0.27133930692E+01 -0.51087626830E+01  0.13146018328E+02  0.14362442558E+02  0.51100000000E-03 0.  1.
         12    1    3    3    0    0 -0.38789253104E+00 -0.36018742601E+00  0.89022150199E-01  0.53676861004E+00  0.00000000000E+00 0. -1.
</event>
<event>
 7    1  0.2328810E-008  0.4614232E+02  0.7816164E-02  0.1320468E+00
        -11   -1    0    0    0    0  0.00000000000E+00  0.00000000000E+00  0.45593999997E+02  0.45594000000E+02  0.51100000000E-03 0. -1.
         11   -1    0    0    0    0 -0.00000000000E+00 -0.00000000000E+00 -0.45593999997E+02  0.45594000000E+02  0.51100000000E-03 0.  1.
    9900012    2    1    2    0    0 -0.22119064961E+02 -0.97861087341E+00 -0.39228848304E+02  0.46142320371E+02  0.10000023801E+02 0.  0.
         12    1    1    2    0    0  0.22119064961E+02  0.97861087341E+00  0.39228848304E+02  0.45045679629E+02  0.00000000000E+00 0. -1.
         11    1    3    3    0    0 -0.13363733192E+02 -0.20538075923E+01 -0.23160268952E+02  0.26818007917E+02  0.51100000000E-03 0. -1.
        -11    1    3    3    0    0 -0.46312412813E+01  0.14976502403E+01 -0.13724001439E+02  0.14561578479E+02  0.51100000000E-03 0.  1.
         12    1    3    3    0    0 -0.41240904878E+01 -0.42245352132E+00 -0.23445779130E+01  0.47627339753E+01  0.00000000000E+00 0. -1.
</event>
<event>
 7    1  0.2328810E-008  0.4614232E+02  0.7816164E-02  0.1320468E+00
        -11   -1    0    0    0    0  0.00000000000E+00  0.00000000000E+00  0.45593999997E+02  0.45594000000E+02  0.51100000000E-03 0.  1.
         11   -1    0    0    0    0 -0.00000000000E+00 -0.00000000000E+00 -0.45593999997E+02  0.45594000000E+02  0.51100000000E-03 0. -1.
    9900012    2    1    2    0    0  0.17906842672E+02 -0.93491160231E+01  0.40262295223E+02  0.46142318725E+02  0.10000008793E+02 0.  0.
         12    1    1    2    0    0 -0.17906842672E+02  0.93491160231E+01 -0.40262295223E+02  0.45045681275E+02  0.00000000000E+00 0. -1.
         11    1    3    3    0    0  0.94067885313E+01 -0.33379456136E+01  0.24772956095E+02  0.26708217936E+02  0.51100000000E-03 0. -1.
        -11    1    3    3    0    0  0.80179722546E+01 -0.38627344759E+01  0.93348644672E+01  0.12897607979E+02  0.51100000000E-03 0.  1.
        -12    1    3    3    0    0  0.48208188654E+00 -0.21484359336E+01  0.61544746605E+01  0.65364928099E+01  0.00000000000E+00 0.  1.
</event>
<event>
 7    1  0.2328810E-008  0.4614232E+02  0.7816164E-02  0.1320468E+00
        -11   -1    0    0    0    0  0.00000000000E+00  0.00000000000E+00  0.45593999997E+02  0.45594000000E+02  0.51100000000E-03 0.  1.
         11   -1    0    0    0    0 -0.00000000000E+00 -0.00000000000E+00 -0.45593999997E+02  0.45594000000E+02  0.51100000000E-03 0. -1.
    9900012    2    1    2    0    0  0.19430434491E+02  0.37539525315E+02  0.15567778372E+02  0.46142317978E+02  0.10000001976E+02 0.  0.
         12    1    1    2    0    0 -0.19430434491E+02 -0.37539525315E+02 -0.15567778372E+02  0.45045682022E+02  0.00000000000E+00 0. -1.
         11    1    3    3    0    0  0.15228899875E+01  0.84943365992E+01  0.93522210669E+00  0.86802988902E+01  0.51100000000E-03 0. -1.
        -11    1    3    3    0    0  0.25254794888E+01  0.22011797211E+01  0.26969387072E+01  0.43007810296E+01  0.51100000000E-03 0.  1.
         12    1    3    3    0    0  0.15382065015E+02  0.26844008995E+02  0.11935617559E+02  0.33161238058E+02  0.00000000000E+00 0. -1.
</event>
<event>
 7    1  0.2328810E-008  0.4614232E+02  0.7816164E-02  0.1320468E+00
        -11   -1    0    0    0    0  0.00000000000E+00  0.00000000000E+00  0.45593999997E+02  0.45594000000E+02  0.51100000000E-03 0.  1.
         11   -1    0    0    0    0 -0.00000000000E+00 -0.00000000000E+00 -0.45593999997E+02  0.45594000000E+02  0.51100000000E-03 0. -1.
    9900012    2    1    2    0    0  0.23650853889E+02  0.31845615996E+02  0.21344959985E+02  0.46142318025E+02  0.10000002404E+02 0.  0.
         12    1    1    2    0    0 -0.23650853889E+02 -0.31845615996E+02 -0.21344959985E+02  0.45045681975E+02  0.00000000000E+00 0. -1.
         11    1    3    3    0    0  0.63230821788E+01  0.41502190698E+01  0.53635810810E+01  0.92721997843E+01  0.51100000000E-03 0. -1.
        -11    1    3    3    0    0  0.14397152690E+02  0.18846241790E+02  0.96654831802E+01  0.25610162056E+02  0.51100000000E-03 0.  1.
         12    1    3    3    0    0  0.29306190196E+01  0.88491551369E+01  0.63158957237E+01  0.11259956184E+02  0.00000000000E+00 0. -1.
</event>
<event>
 7    1  0.2328810E-008  0.4614232E+02  0.7816164E-02  0.1320468E+00
        -11   -1    0    0    0    0  0.00000000000E+00  0.00000000000E+00  0.45593999997E+02  0.45594000000E+02  0.51100000000E-03 0. -1.
         11   -1    0    0    0    0 -0.00000000000E+00 -0.00000000000E+00 -0.45593999997E+02  0.45594000000E+02  0.51100000000E-03 0.  1.
    9900012    2    1    2    0    0  0.14640373088E+02 -0.34525127450E+01 -0.42460020441E+02  0.46142315365E+02  0.99999781466E+01 0.  0.
         12    1    1    2    0    0 -0.14640373088E+02  0.34525127450E+01  0.42460020441E+02  0.45045684635E+02  0.00000000000E+00 0. -1.
         11    1    3    3    0    0  0.12383651702E+00 -0.49038831453E+00 -0.13259905844E+02  0.13269548577E+02  0.51100000000E-03 0. -1.
        -11    1    3    3    0    0  0.43697123038E+01 -0.19813740925E+01 -0.75972862079E+01  0.89854875716E+01  0.51100000000E-03 0.  1.
         12    1    3    3    0    0  0.10146824267E+02 -0.98075033795E+00 -0.21602828389E+02  0.23887279216E+02  0.00000000000E+00 0. -1.
</event>
<event>
 7    1  0.2328810E-008  0.4614232E+02  0.7816164E-02  0.1320468E+00
        -11   -1    0    0    0    0  0.00000000000E+00  0.00000000000E+00  0.45593999997E+02  0.45594000000E+02  0.51100000000E-03 0. -1.
         11   -1    0    0    0    0 -0.00000000000E+00 -0.00000000000E+00 -0.45593999997E+02  0.45594000000E+02  0.51100000000E-03 0.  1.
    9900012    2    1    2    0    0 -0.39938181689E+01 -0.45622320538E+01 -0.44635735993E+02  0.46142317937E+02  0.10000001605E+02 0.  0.
         12    1    1    2    0    0  0.39938181689E+01  0.45622320538E+01  0.44635735993E+02  0.45045682063E+02  0.00000000000E+00 0. -1.
         11    1    3    3    0    0 -0.25935463415E+01 -0.16714702731E+01 -0.68167827981E+01  0.74825679734E+01  0.51100000000E-03 0. -1.
        -11    1    3    3    0    0 -0.40524742177E+01 -0.34328895579E+01 -0.25311292281E+02  0.25862497853E+02  0.51100000000E-03 0.  1.
        -12    1    3    3    0    0  0.26522023904E+01  0.54212777723E+00 -0.12507660914E+02  0.12797252111E+02  0.00000000000E+00 0.  1.
</event>
<event>
 7    1  0.2328810E-008  0.4614232E+02  0.7816164E-02  0.1320468E+00
        -11   -1    0    0    0    0  0.00000000000E+00  0.00000000000E+00  0.45593999997E+02  0.45594000000E+02  0.51100000000E-03 0. -1.
         11   -1    0    0    0    0 -0.00000000000E+00 -0.00000000000E+00 -0.45593999997E+02  0.45594000000E+02  0.51100000000E-03 0.  1.
    9900012    2    1    2    0    0 -0.20431988665E+02 -0.39613048827E+02 -0.65156540283E+01  0.46142317126E+02  0.99999942107E+01 0.  0.
         12    1    1    2    0    0  0.20431988665E+02  0.39613048827E+02  0.65156540283E+01  0.45045682874E+02  0.00000000000E+00 0. -1.
         11    1    3    3    0    0 -0.89327948517E+01 -0.98533343563E+01 -0.15285106304E+01  0.13387283773E+02  0.51100000000E-03 0. -1.
        -11    1    3    3    0    0 -0.20997214975E+01 -0.59590299636E+01 -0.32541306504E+01  0.71069145925E+01  0.51100000000E-03 0.  1.
         12    1    3    3    0    0 -0.93994723160E+01 -0.23800684507E+02 -0.17330127476E+01  0.25648118761E+02  0.00000000000E+00 0. -1.
</event>
<event>
 7    1  0.2328810E-008  0.4614232E+02  0.7816164E-02  0.1320468E+00
        -11   -1    0    0    0    0  0.00000000000E+00  0.00000000000E+00  0.45593999997E+02  0.45594000000E+02  0.51100000000E-03 0.  1.
         11   -1    0    0    0    0 -0.00000000000E+00 -0.00000000000E+00 -0.45593999997E+02  0.45594000000E+02  0.51100000000E-03 0. -1.
    9900012    2    1    2    0    0 -0.18176317632E+02  0.41095509718E+02  0.31454598253E+01  0.46142319195E+02  0.10000013080E+02 0.  0.
         12    1    1    2    0    0  0.18176317632E+02 -0.41095509718E+02 -0.31454598253E+01  0.45045680805E+02  0.00000000000E+00 0. -1.
         11    1    3    3    0    0 -0.29676748811E+01  0.35712067143E+01 -0.74124504150E+00  0.47021331403E+01  0.51100000000E-03 0. -1.
        -11    1    3    3    0    0 -0.55574613529E+00  0.67786075117E+01  0.28252277492E+01  0.73648004495E+01  0.51100000000E-03 0.  1.
        -12    1    3    3    0    0 -0.14652896616E+02  0.30745695492E+02  0.10614771177E+01  0.34075385606E+02  0.00000000000E+00 0.  1.
</event>
<event>
 7    1  0.2328810E-008  0.4614231E+02  0.7816164E-02  0.1320468E+00
        -11   -1    0    0    0    0  0.00000000000E+00  0.00000000000E+00  0.45593999997E+02  0.45594000000E+02  0.51100000000E-03 0.  1.
         11   -1    0    0    0    0 -0.00000000000E+00 -0.00000000000E+00 -0.45593999997E+02  0.45594000000E+02  0.51100000000E-03 0. -1.
    9900012    2    1    2    0    0 -0.67968614643E+00 -0.25953874562E+02  0.36810981554E+02  0.46142312737E+02  0.99999541826E+01 0.  0.
         12    1    1    2    0    0  0.67968614643E+00  0.25953874562E+02 -0.36810981554E+02  0.45045687263E+02  0.00000000000E+00 0. -1.
         11    1    3    3    0    0 -0.12410911547E+01 -0.21311868788E+01  0.10579352705E+01  0.26835595884E+01  0.51100000000E-03 0. -1.
        -11    1    3    3    0    0 -0.18664574757E+00 -0.12615498670E+02  0.24508092274E+02  0.27565054517E+02  0.51100000000E-03 0.  1.
        -12    1    3    3    0    0  0.74805075579E+00 -0.11207189013E+02  0.11244954009E+02  0.15893698631E+02  0.00000000000E+00 0.  1.
</event>
<event>
 7    1  0.2328810E-008  0.4614232E+02  0.7816164E-02  0.1320468E+00
        -11   -1    0    0    0    0  0.00000000000E+00  0.00000000000E+00  0.45593999997E+02  0.45594000000E+02  0.51100000000E-03 0.  1.
         11   -1    0    0    0    0 -0.00000000000E+00 -0.00000000000E+00 -0.45593999997E+02  0.45594000000E+02  0.51100000000E-03 0. -1.
    9900012    2    1    2    0    0  0.44071884613E+02  0.45536265405E+01 -0.81269294898E+01  0.46142317510E+02  0.99999977142E+01 0.  0.
         12    1    1    2    0    0 -0.44071884613E+02 -0.45536265405E+01  0.81269294898E+01  0.45045682490E+02  0.00000000000E+00 0. -1.
         11    1    3    3    0    0  0.19818187199E+02  0.48254776028E+01 -0.47939952231E+01  0.20952999031E+02  0.51100000000E-03 0. -1.
        -11    1    3    3    0    0  0.13494540627E+02  0.14147357983E+01 -0.43566241739E+01  0.14250764140E+02  0.51100000000E-03 0.  1.
         12    1    3    3    0    0  0.10759156788E+02 -0.16865868606E+01  0.10236899072E+01  0.10938554340E+02  0.00000000000E+00 0. -1.
</event>
<event>
 7    1  0.2328810E-008  0.4614232E+02  0.7816164E-02  0.1320468E+00
        -11   -1    0    0    0    0  0.00000000000E+00  0.00000000000E+00  0.45593999997E+02  0.45594000000E+02  0.51100000000E-03 0.  1.
         11   -1    0    0    0    0 -0.00000000000E+00 -0.00000000000E+00 -0.45593999997E+02  0.45594000000E+02  0.51100000000E-03 0. -1.
    9900012    2    1    2    0    0  0.92902530016E+01 -0.24722561866E+02  0.36491090858E+02  0.46142316766E+02  0.99999909214E+01 0.  0.
         12    1    1    2    0    0 -0.92902530016E+01  0.24722561866E+02 -0.36491090858E+02  0.45045683234E+02  0.00000000000E+00 0. -1.
         11    1    3    3    0    0  0.13197607526E+01 -0.97002270830E+00  0.50197450502E+01  0.52802038909E+01  0.51100000000E-03 0. -1.
        -11    1    3    3    0    0  0.66195389900E+01 -0.11261496959E+02  0.12311344913E+02  0.17950176156E+02  0.51100000000E-03 0.  1.
        -12    1    3    3    0    0  0.13509532590E+01 -0.12491042198E+02  0.19160000895E+02  0.22911936719E+02  0.00000000000E+00 0.  1.
</event>
<event>
 7    1  0.2328810E-008  0.4614232E+02  0.7816164E-02  0.1320468E+00
        -11   -1    0    0    0    0  0.00000000000E+00  0.00000000000E+00  0.45593999997E+02  0.45594000000E+02  0.51100000000E-03 0.  1.
         11   -1    0    0    0    0 -0.00000000000E+00 -0.00000000000E+00 -0.45593999997E+02  0.45594000000E+02  0.51100000000E-03 0. -1.
    9900012    2    1    2    0    0 -0.33269510351E+01  0.49328398549E+01  0.44651001887E+02  0.46142317834E+02  0.10000000669E+02 0.  0.
         12    1    1    2    0    0  0.33269510351E+01 -0.49328398549E+01 -0.44651001887E+02  0.45045682166E+02  0.00000000000E+00 0. -1.
         11    1    3    3    0    0 -0.10818694109E+00  0.48374974305E+01  0.15435028240E+02  0.16175697290E+02  0.51100000000E-03 0.  1.
        -11    1    3    3    0    0  0.98216422789E+00 -0.14198755006E+00  0.17320721896E+02  0.17349127192E+02  0.51100000000E-03 0. -1.
         12    1    3    3    0    0 -0.42009283219E+01  0.23732997449E+00  0.11895251751E+02  0.12617493353E+02  0.00000000000E+00 0. -1.
</event>
<event>
 7    1  0.2328810E-008  0.4614232E+02  0.7816164E-02  0.1320468E+00
        -11   -1    0    0    0    0  0.00000000000E+00  0.00000000000E+00  0.45593999997E+02  0.45594000000E+02  0.51100000000E-03 0.  1.
         11   -1    0    0    0    0 -0.00000000000E+00 -0.00000000000E+00 -0.45593999997E+02  0.45594000000E+02  0.51100000000E-03 0. -1.
    9900012    2    1    2    0    0 -0.18313783259E+02 -0.39907400318E+02  0.10055755124E+02  0.46142317981E+02  0.10000002008E+02 0.  0.
         12    1    1    2    0    0  0.18313783259E+02  0.39907400318E+02 -0.10055755124E+02  0.45045682019E+02  0.00000000000E+00 0. -1.
         11    1    3    3    0    0 -0.31872459077E+01 -0.77593450884E+01 -0.64262692618E+00  0.84130221862E+01  0.51100000000E-03 0. -1.
        -11    1    3    3    0    0  0.30650328497E+00 -0.14296105098E+01  0.16018797255E+01  0.21688128987E+01  0.51100000000E-03 0.  1.
        -12    1    3    3    0    0 -0.15433040636E+02 -0.30718444720E+02  0.90965023247E+01  0.35560482897E+02  0.00000000000E+00 0.  1.
</event>
<event>
 7    1  0.2328810E-008  0.4614232E+02  0.7816164E-02  0.1320468E+00
        -11   -1    0    0    0    0  0.00000000000E+00  0.00000000000E+00  0.45593999997E+02  0.45594000000E+02  0.51100000000E-03 0.  1.
         11   -1    0    0    0    0 -0.00000000000E+00 -0.00000000000E+00 -0.45593999997E+02  0.45594000000E+02  0.51100000000E-03 0. -1.
    9900012    2    1    2    0    0 -0.33462248860E+02  0.24834348532E+02  0.17106912177E+02  0.46142318631E+02  0.10000007928E+02 0.  0.
         12    1    1    2    0    0  0.33462248860E+02 -0.24834348532E+02 -0.17106912177E+02  0.45045681369E+02  0.00000000000E+00 0. -1.
         11    1    3    3    0    0 -0.87669444924E+01  0.24239200578E+01  0.16496618936E+01  0.92442462539E+01  0.51100000000E-03 0. -1.
        -11    1    3    3    0    0 -0.20650564253E+02  0.17163913533E+02  0.12985636934E+02  0.29827378339E+02  0.51100000000E-03 0.  1.
         12    1    3    3    0    0 -0.40447401155E+01  0.52465149409E+01  0.24716133498E+01  0.70706940379E+01  0.00000000000E+00 0. -1.
</event>
<event>
 7    1  0.2328810E-008  0.4614232E+02  0.7816164E-02  0.1320468E+00
        -11   -1    0    0    0    0  0.00000000000E+00  0.00000000000E+00  0.45593999997E+02  0.45594000000E+02  0.51100000000E-03 0.  1.
         11   -1    0    0    0    0 -0.00000000000E+00 -0.00000000000E+00 -0.45593999997E+02  0.45594000000E+02  0.51100000000E-03 0. -1.
    9900012    2    1    2    0    0  0.27911327142E+02 -0.25595010191E+02  0.24391942954E+02  0.46142316404E+02  0.99999876283E+01 0.  0.
         12    1    1    2    0    0 -0.27911327142E+02  0.25595010191E+02 -0.24391942954E+02  0.45045683596E+02  0.00000000000E+00 0. -1.
         11    1    3    3    0    0  0.22734401478E+01  0.26608055834E+00  0.10968317804E+01  0.25381822600E+01  0.51100000000E-03 0. -1.
        -11    1    3    3    0    0  0.21357082086E+02 -0.20234972180E+02  0.21088835072E+02  0.36198315144E+02  0.51100000000E-03 0.  1.
        -12    1    3    3    0    0  0.42808049081E+01 -0.56261185698E+01  0.22062761019E+01  0.74058190000E+01  0.00000000000E+00 0.  1.
</event>
<event>
 7    1  0.2328810E-008  0.4614232E+02  0.7816164E-02  0.1320468E+00
        -11   -1    0    0    0    0  0.00000000000E+00  0.00000000000E+00  0.45593999997E+02  0.45594000000E+02  0.51100000000E-03 0.  1.
         11   -1    0    0    0    0 -0.00000000000E+00 -0.00000000000E+00 -0.45593999997E+02  0.45594000000E+02  0.51100000000E-03 0. -1.
    9900012    2    1    2    0    0 -0.18180466509E+02 -0.19687234266E+02  0.36207691719E+02  0.46142317686E+02  0.99999993125E+01 0.  0.
         12    1    1    2    0    0  0.18180466509E+02  0.19687234266E+02 -0.36207691719E+02  0.45045682314E+02  0.00000000000E+00 0. -1.
         11    1    3    3    0    0 -0.37425619272E+01 -0.52821118094E+00  0.51724429292E+01  0.64062424983E+01  0.51100000000E-03 0. -1.
        -11    1    3    3    0    0 -0.94499365521E+01 -0.10108866082E+02  0.13203738320E+02  0.19126661501E+02  0.51100000000E-03 0.  1.
        -12    1    3    3    0    0 -0.49879680301E+01 -0.90501570032E+01  0.17831510470E+02  0.20609413686E+02  0.00000000000E+00 0.  1.
</event>
<event>
 7    1  0.2328810E-008  0.4614232E+02  0.7816164E-02  0.1320468E+00
        -11   -1    0    0    0    0  0.00000000000E+00  0.00000000000E+00  0.45593999997E+02  0.45594000000E+02  0.51100000000E-03 0.  1.
         11   -1    0    0    0    0 -0.00000000000E+00 -0.00000000000E+00 -0.45593999997E+02  0.45594000000E+02  0.51100000000E-03 0. -1.
    9900012    2    1    2    0    0 -0.23429157774E+02  0.40700904742E+01  0.38257321332E+02  0.46142315346E+02  0.99999779726E+01 0.  0.
         12    1    1    2    0    0  0.23429157774E+02 -0.40700904742E+01 -0.38257321332E+02  0.45045684654E+02  0.00000000000E+00 0. -1.
         11    1    3    3    0    0 -0.30722491674E+01 -0.95111895153E+00  0.30986495887E+01  0.44659793709E+01  0.51100000000E-03 0. -1.
        -11    1    3    3    0    0 -0.10459207459E+02  0.22029331339E+01  0.10622450159E+02  0.15069319251E+02  0.51100000000E-03 0.  1.
        -12    1    3    3    0    0 -0.98977011480E+01  0.28182762918E+01  0.24536221584E+02  0.26607016723E+02  0.00000000000E+00 0.  1.
</event>
<event>
 7    1  0.2328810E-008  0.4614232E+02  0.7816164E-02  0.1320468E+00
        -11   -1    0    0    0    0  0.00000000000E+00  0.00000000000E+00  0.45593999997E+02  0.45594000000E+02  0.51100000000E-03 0.  1.
         11   -1    0    0    0    0 -0.00000000000E+00 -0.00000000000E+00 -0.45593999997E+02  0.45594000000E+02  0.51100000000E-03 0. -1.
    9900012    2    1    2    0    0 -0.29578062147E+02  0.33637665345E+02  0.47706486381E+01  0.46142318979E+02  0.10000011109E+02 0.  0.
         12    1    1    2    0    0  0.29578062147E+02 -0.33637665345E+02 -0.47706486381E+01  0.45045681021E+02  0.00000000000E+00 0. -1.
         11    1    3    3    0    0 -0.26019195409E+01  0.29487965927E+01  0.21762978101E+01  0.44946255753E+01  0.51100000000E-03 0. -1.
        -11    1    3    3    0    0 -0.24044842183E+02  0.22740614267E+02  0.21001581790E+01  0.33161734537E+02  0.51100000000E-03 0.  1.
        -12    1    3    3    0    0 -0.29313004226E+01  0.79482544845E+01  0.49419264905E+00  0.84859588670E+01  0.00000000000E+00 0.  1.
</event>
<event>
 7    1  0.2328810E-008  0.4614232E+02  0.7816164E-02  0.1320468E+00
        -11   -1    0    0    0    0  0.00000000000E+00  0.00000000000E+00  0.45593999997E+02  0.45594000000E+02  0.51100000000E-03 0.  1.
         11   -1    0    0    0    0 -0.00000000000E+00 -0.00000000000E+00 -0.45593999997E+02  0.45594000000E+02  0.51100000000E-03 0. -1.
    9900012    2    1    2    0    0 -0.20109167622E+02 -0.34432273771E+02  0.20955986072E+02  0.46142318168E+02  0.10000003708E+02 0.  0.
         12    1    1    2    0    0  0.20109167622E+02  0.34432273771E+02 -0.20955986072E+02  0.45045681832E+02  0.00000000000E+00 0. -1.
         11    1    3    3    0    0 -0.46505462706E+01 -0.30943499854E+01  0.47168311300E+01  0.73110244574E+01  0.51100000000E-03 0. -1.
        -11    1    3    3    0    0 -0.66342321304E+01 -0.18681437375E+02  0.97647636937E+01  0.22098863061E+02  0.51100000000E-03 0.  1.
         12    1    3    3    0    0 -0.88243892215E+01 -0.12656486410E+02  0.64743912482E+01  0.16732430649E+02  0.00000000000E+00 0. -1.
</event>
<event>
 7    1  0.2328810E-008  0.4614232E+02  0.7816164E-02  0.1320468E+00
        -11   -1    0    0    0    0  0.00000000000E+00  0.00000000000E+00  0.45593999997E+02  0.45594000000E+02  0.51100000000E-03 0. -1.
         11   -1    0    0    0    0 -0.00000000000E+00 -0.00000000000E+00 -0.45593999997E+02  0.45594000000E+02  0.51100000000E-03 0.  1.
    9900012    2    1    2    0    0  0.10943394410E+02  0.39779519039E+02 -0.18081633327E+02  0.46142317855E+02  0.10000000855E+02 0.  0.
         12    1    1    2    0    0 -0.10943394410E+02 -0.39779519039E+02  0.18081633327E+02  0.45045682145E+02  0.00000000000E+00 0. -1.
         11    1    3    3    0    0  0.28477529383E+01  0.92526063644E+01 -0.68581442056E+01  0.11864002846E+02  0.51100000000E-03 0. -1.
        -11    1    3    3    0    0  0.55218681016E+01  0.24939852470E+02 -0.11725482659E+02  0.28106479901E+02  0.51100000000E-03 0.  1.
         12    1    3    3    0    0  0.25737733705E+01  0.55870602040E+01  0.50199353784E+00  0.61718351078E+01  0.00000000000E+00 0. -1.
</event>
<event>
 7    1  0.2328810E-008  0.4614232E+02  0.7816164E-02  0.1320468E+00
        -11   -1    0    0    0    0  0.00000000000E+00  0.00000000000E+00  0.45593999997E+02  0.45594000000E+02  0.51100000000E-03 0.  1.
         11   -1    0    0    0    0 -0.00000000000E+00 -0.00000000000E+00 -0.45593999997E+02  0.45594000000E+02  0.51100000000E-03 0. -1.
    9900012    2    1    2    0    0  0.41420047528E+01 -0.41055739867E+02  0.18066083929E+02  0.46142319098E+02  0.10000012187E+02 0.  0.
         12    1    1    2    0    0 -0.41420047528E+01  0.41055739867E+02 -0.18066083929E+02  0.45045680902E+02  0.00000000000E+00 0. -1.
         11    1    3    3    0    0  0.34424002128E+01 -0.31172438436E+02  0.16329801313E+02  0.35358640364E+02  0.51100000000E-03 0.  1.
        -11    1    3    3    0    0  0.89296621726E+00 -0.10217727868E+02  0.16713030519E+01  0.10391949077E+02  0.51100000000E-03 0. -1.
        -12    1    3    3    0    0 -0.19336167725E+00  0.33442643688E+00  0.64979564944E-01  0.39172965649E+00  0.00000000000E+00 0.  1.
</event>
<event>
 7    1  0.2328810E-008  0.4614232E+02  0.7816164E-02  0.1320468E+00
        -11   -1    0    0    0    0  0.00000000000E+00  0.00000000000E+00  0.45593999997E+02  0.45594000000E+02  0.51100000000E-03 0. -1.
         11   -1    0    0    0    0 -0.00000000000E+00 -0.00000000000E+00 -0.45593999997E+02  0.45594000000E+02  0.51100000000E-03 0.  1.
    9900012    2    1    2    0    0 -0.25513188538E+02 -0.32461397447E+02 -0.18012443724E+02  0.46142320490E+02  0.10000024886E+02 0.  0.
         12    1    1    2    0    0  0.25513188538E+02  0.32461397447E+02  0.18012443724E+02  0.45045679510E+02  0.00000000000E+00 0. -1.
         11    1    3    3    0    0  0.20562284320E+00 -0.79304540126E+00 -0.18909851556E+01  0.20608315996E+01  0.51100000000E-03 0. -1.
        -11    1    3    3    0    0 -0.14919141744E+02 -0.20710922601E+02 -0.11664471569E+02  0.28063909254E+02  0.51100000000E-03 0.  1.
         12    1    3    3    0    0 -0.10799669637E+02 -0.10957429446E+02 -0.44569869992E+01  0.16017579637E+02  0.00000000000E+00 0. -1.
</event>
<event>
 7    1  0.2328810E-008  0.4614232E+02  0.7816164E-02  0.1320468E+00
        -11   -1    0    0    0    0  0.00000000000E+00  0.00000000000E+00  0.45593999997E+02  0.45594000000E+02  0.51100000000E-03 0.  1.
         11   -1    0    0    0    0 -0.00000000000E+00 -0.00000000000E+00 -0.45593999997E+02  0.45594000000E+02  0.51100000000E-03 0. -1.
    9900012    2    1    2    0    0 -0.21749592806E+02  0.38937745334E+02  0.63182815602E+01  0.46142317845E+02  0.10000000762E+02 0.  0.
         12    1    1    2    0    0  0.21749592806E+02 -0.38937745334E+02 -0.63182815602E+01  0.45045682155E+02  0.00000000000E+00 0. -1.
         11    1    3    3    0    0 -0.10223635067E+02  0.22563899540E+02  0.61962144083E+01  0.25535178670E+02  0.51100000000E-03 0.  1.
        -11    1    3    3    0    0 -0.59525121483E+01  0.12358898998E+02 -0.34782735059E+00  0.13722090564E+02  0.51100000000E-03 0. -1.
        -12    1    3    3    0    0 -0.55734455911E+01  0.40149467963E+01  0.46989450243E+00  0.68850486111E+01  0.00000000000E+00 0.  1.
</event>
<event>
 7    1  0.2328810E-008  0.4614232E+02  0.7816164E-02  0.1320468E+00
        -11   -1    0    0    0    0  0.00000000000E+00  0.00000000000E+00  0.45593999997E+02  0.45594000000E+02  0.51100000000E-03 0.  1.
         11   -1    0    0    0    0 -0.00000000000E+00 -0.00000000000E+00 -0.45593999997E+02  0.45594000000E+02  0.51100000000E-03 0. -1.
    9900012    2    1    2    0    0  0.20403474684E+02 -0.25447837406E+02  0.31067979035E+02  0.46142317309E+02  0.99999958764E+01 0.  0.
         12    1    1    2    0    0 -0.20403474684E+02  0.25447837406E+02 -0.31067979035E+02  0.45045682691E+02  0.00000000000E+00 0. -1.
         11    1    3    3    0    0  0.12128828607E+01  0.34463202661E+00  0.63213679664E+00  0.14104797972E+01  0.51100000000E-03 0. -1.
        -11    1    3    3    0    0  0.22999546944E+01 -0.65456533435E+01  0.44123828773E+01  0.82221950966E+01  0.51100000000E-03 0.  1.
        -12    1    3    3    0    0  0.16890637129E+02 -0.19246816089E+02  0.26023459361E+02  0.36509642415E+02  0.00000000000E+00 0.  1.
</event>
<event>
 7    1  0.2328810E-008  0.4614232E+02  0.7816164E-02  0.1320468E+00
        -11   -1    0    0    0    0  0.00000000000E+00  0.00000000000E+00  0.45593999997E+02  0.45594000000E+02  0.51100000000E-03 0. -1.
         11   -1    0    0    0    0 -0.00000000000E+00 -0.00000000000E+00 -0.45593999997E+02  0.45594000000E+02  0.51100000000E-03 0.  1.
    9900012    2    1    2    0    0 -0.28759272419E+02 -0.24302316008E+02 -0.24726809608E+02  0.46142318444E+02  0.10000006230E+02 0.  0.
         12    1    1    2    0    0  0.28759272419E+02  0.24302316008E+02  0.24726809608E+02  0.45045681556E+02  0.00000000000E+00 0. -1.
         11    1    3    3    0    0 -0.10802725756E+01 -0.27036709151E+01 -0.19849884357E+01  0.35237770369E+01  0.51100000000E-03 0.  1.
        -11    1    3    3    0    0 -0.14711931383E+02 -0.63519600815E+01 -0.97985493366E+01  0.18782968117E+02  0.51100000000E-03 0. -1.
        -12    1    3    3    0    0 -0.12967068460E+02 -0.15246685012E+02 -0.12943271835E+02  0.23835573291E+02  0.00000000000E+00 0.  1.
</event>
<event>
 7    1  0.2328810E-008  0.4614232E+02  0.7816164E-02  0.1320468E+00
        -11   -1    0    0    0    0  0.00000000000E+00  0.00000000000E+00  0.45593999997E+02  0.45594000000E+02  0.51100000000E-03 0.  1.
         11   -1    0    0    0    0 -0.00000000000E+00 -0.00000000000E+00 -0.45593999997E+02  0.45594000000E+02  0.51100000000E-03 0. -1.
    9900012    2    1    2    0    0  0.25643708046E+02 -0.31815946010E+02  0.18954135311E+02  0.46142318428E+02  0.10000006085E+02 0.  0.
         12    1    1    2    0    0 -0.25643708046E+02  0.31815946010E+02 -0.18954135311E+02  0.45045681572E+02  0.00000000000E+00 0. -1.
         11    1    3    3    0    0  0.10870925358E+02 -0.15700728885E+02  0.58183551180E+01  0.19963545833E+02  0.51100000000E-03 0. -1.
        -11    1    3    3    0    0  0.99874645073E+01 -0.14382486212E+02  0.94727069895E+01  0.19908227819E+02  0.51100000000E-03 0.  1.
         12    1    3    3    0    0  0.47853181802E+01 -0.17327309129E+01  0.36630732037E+01  0.62705447768E+01  0.00000000000E+00 0. -1.
</event>
<event>
 7    1  0.2328810E-008  0.4614232E+02  0.7816164E-02  0.1320468E+00
        -11   -1    0    0    0    0  0.00000000000E+00  0.00000000000E+00  0.45593999997E+02  0.45594000000E+02  0.51100000000E-03 0.  1.
         11   -1    0    0    0    0 -0.00000000000E+00 -0.00000000000E+00 -0.45593999997E+02  0.45594000000E+02  0.51100000000E-03 0. -1.
    9900012    2    1    2    0    0  0.73433073021E+01  0.41879836373E+02 -0.14875100606E+02  0.46142317912E+02  0.10000001372E+02 0.  0.
         12    1    1    2    0    0 -0.73433073021E+01 -0.41879836373E+02  0.14875100606E+02  0.45045682088E+02  0.00000000000E+00 0. -1.
         11    1    3    3    0    0  0.78527512046E+01  0.26719432908E+02 -0.68704589471E+01  0.28684438339E+02  0.51100000000E-03 0.  1.
        -11    1    3    3    0    0  0.66925520891E+00  0.50435615615E+01 -0.41569708821E+01  0.65700702382E+01  0.51100000000E-03 0. -1.
        -12    1    3    3    0    0 -0.11786991115E+01  0.10116841903E+02 -0.38476707767E+01  0.10887809334E+02  0.00000000000E+00 0.  1.
</event>
<event>
 7    1  0.2328810E-008  0.4614231E+02  0.7816164E-02  0.1320468E+00
        -11   -1    0    0    0    0  0.00000000000E+00  0.00000000000E+00  0.45593999997E+02  0.45594000000E+02  0.51100000000E-03 0.  1.
         11   -1    0    0    0    0 -0.00000000000E+00 -0.00000000000E+00 -0.45593999997E+02  0.45594000000E+02  0.51100000000E-03 0. -1.
    9900012    2    1    2    0    0 -0.95641933394E+01  0.25525695130E+02  0.35861941843E+02  0.46142314537E+02  0.99999706031E+01 0.  0.
         12    1    1    2    0    0  0.95641933394E+01 -0.25525695130E+02 -0.35861941843E+02  0.45045685463E+02  0.00000000000E+00 0. -1.
         11    1    3    3    0    0  0.36589101088E+00  0.68159840499E+01  0.61265445767E+01  0.91720261399E+01  0.51100000000E-03 0. -1.
        -11    1    3    3    0    0 -0.29263202289E+01  0.11599997158E+02  0.17085078460E+02  0.20857209554E+02  0.51100000000E-03 0.  1.
         12    1    3    3    0    0 -0.70037641213E+01  0.71097139221E+01  0.12650318806E+02  0.16113078844E+02  0.00000000000E+00 0. -1.
</event>
<event>
 7    1  0.2328810E-008  0.4614232E+02  0.7816164E-02  0.1320468E+00
        -11   -1    0    0    0    0  0.00000000000E+00  0.00000000000E+00  0.45593999997E+02  0.45594000000E+02  0.51100000000E-03 0.  1.
         11   -1    0    0    0    0 -0.00000000000E+00 -0.00000000000E+00 -0.45593999997E+02  0.45594000000E+02  0.51100000000E-03 0. -1.
    9900012    2    1    2    0    0  0.30623896842E+02  0.12432892146E+02  0.30605778076E+02  0.46142317449E+02  0.99999971504E+01 0.  0.
         12    1    1    2    0    0 -0.30623896842E+02 -0.12432892146E+02 -0.30605778076E+02  0.45045682551E+02  0.00000000000E+00 0. -1.
         11    1    3    3    0    0  0.16714547553E+02  0.80275911903E+01  0.21286494833E+02  0.28230005009E+02  0.51100000000E-03 0. -1.
        -11    1    3    3    0    0  0.86507089507E+01  0.42539566351E+01  0.78995278834E+01  0.12463284216E+02  0.51100000000E-03 0.  1.
         12    1    3    3    0    0  0.52586403381E+01  0.15134432042E+00  0.14197553587E+01  0.54490282241E+01  0.00000000000E+00 0. -1.
</event>
<event>
 7    1  0.2328810E-008  0.4614232E+02  0.7816164E-02  0.1320468E+00
        -11   -1    0    0    0    0  0.00000000000E+00  0.00000000000E+00  0.45593999997E+02  0.45594000000E+02  0.51100000000E-03 0. -1.
         11   -1    0    0    0    0 -0.00000000000E+00 -0.00000000000E+00 -0.45593999997E+02  0.45594000000E+02  0.51100000000E-03 0.  1.
    9900012    2    1    2    0    0 -0.41913538385E+02  0.10165631374E+02  0.13001103267E+02  0.46142318216E+02  0.10000004149E+02 0.  0.
         12    1    1    2    0    0  0.41913538385E+02 -0.10165631374E+02 -0.13001103267E+02  0.45045681784E+02  0.00000000000E+00 0. -1.
         11    1    3    3    0    0 -0.18252320479E+02  0.59550336286E+01  0.69214953673E+01  0.20408741430E+02  0.51100000000E-03 0.  1.
        -11    1    3    3    0    0 -0.25149033856E+01  0.91684914963E-01 -0.14590579989E+01  0.29089509566E+01  0.51100000000E-03 0. -1.
         12    1    3    3    0    0 -0.21146314521E+02  0.41189128301E+01  0.75386658988E+01  0.22824625829E+02  0.00000000000E+00 0. -1.
</event>
<event>
 7    1  0.2328810E-008  0.4614232E+02  0.7816164E-02  0.1320468E+00
        -11   -1    0    0    0    0  0.00000000000E+00  0.00000000000E+00  0.45593999997E+02  0.45594000000E+02  0.51100000000E-03 0.  1.
         11   -1    0    0    0    0 -0.00000000000E+00 -0.00000000000E+00 -0.45593999997E+02  0.45594000000E+02  0.51100000000E-03 0. -1.
    9900012    2    1    2    0    0 -0.19389141264E+02 -0.25782064148E+02  0.31439782057E+02  0.46142317338E+02  0.99999961428E+01 0.  0.
         12    1    1    2    0    0  0.19389141264E+02  0.25782064148E+02 -0.31439782057E+02  0.45045682662E+02  0.00000000000E+00 0. -1.
         11    1    3    3    0    0  0.56602545664E+00  0.38328758971E+00  0.57204484464E+00  0.89136398816E+00  0.51100000000E-03 0. -1.
        -11    1    3    3    0    0 -0.12210001426E+02 -0.13165294877E+02  0.16695378511E+02  0.24518254178E+02  0.51100000000E-03 0.  1.
        -12    1    3    3    0    0 -0.77451652946E+01 -0.13000056861E+02  0.14172358701E+02  0.20732699172E+02  0.00000000000E+00 0.  1.
</event>
<event>
 7    1  0.2328810E-008  0.4614232E+02  0.7816164E-02  0.1320468E+00
        -11   -1    0    0    0    0  0.00000000000E+00  0.00000000000E+00  0.45593999997E+02  0.45594000000E+02  0.51100000000E-03 0. -1.
         11   -1    0    0    0    0 -0.00000000000E+00 -0.00000000000E+00 -0.45593999997E+02  0.45594000000E+02  0.51100000000E-03 0.  1.
    9900012    2    1    2    0    0  0.33278918669E+02  0.22272840868E+02 -0.20628805927E+02  0.46142317609E+02  0.99999986165E+01 0.  0.
         12    1    1    2    0    0 -0.33278918669E+02 -0.22272840868E+02  0.20628805927E+02  0.45045682391E+02  0.00000000000E+00 0. -1.
         11    1    3    3    0    0  0.43058556559E+01  0.22596318111E+01 -0.14983030519E+01  0.50883436547E+01  0.51100000000E-03 0. -1.
        -11    1    3    3    0    0  0.18767084230E+02  0.17831341721E+02 -0.13698774781E+02  0.29288506770E+02  0.51100000000E-03 0.  1.
        -12    1    3    3    0    0  0.10205978782E+02  0.21818673353E+01 -0.54317280942E+01  0.11765467184E+02  0.00000000000E+00 0.  1.
</event>
<event>
 7    1  0.2328810E-008  0.4614231E+02  0.7816164E-02  0.1320468E+00
        -11   -1    0    0    0    0  0.00000000000E+00  0.00000000000E+00  0.45593999997E+02  0.45594000000E+02  0.51100000000E-03 0.  1.
         11   -1    0    0    0    0 -0.00000000000E+00 -0.00000000000E+00 -0.45593999997E+02  0.45594000000E+02  0.51100000000E-03 0. -1.
    9900012    2    1    2    0    0  0.18942658805E+02 -0.39898378853E+02 -0.88548744069E+01  0.46142314763E+02  0.99999726626E+01 0.  0.
         12    1    1    2    0    0 -0.18942658805E+02  0.39898378853E+02  0.88548744069E+01  0.45045685237E+02  0.00000000000E+00 0. -1.
         11    1    3    3    0    0  0.68557577249E+00 -0.37225710569E+01 -0.16540823457E+01  0.41308035636E+01  0.51100000000E-03 0. -1.
        -11    1    3    3    0    0  0.14687898918E+02 -0.31223042599E+02 -0.89763451363E+01  0.35653717002E+02  0.51100000000E-03 0.  1.
         12    1    3    3    0    0  0.35691841151E+01 -0.49527651964E+01  0.17755530751E+01  0.63577941977E+01  0.00000000000E+00 0. -1.
</event>
<event>
 7    1  0.2328810E-008  0.4614232E+02  0.7816164E-02  0.1320468E+00
        -11   -1    0    0    0    0  0.00000000000E+00  0.00000000000E+00  0.45593999997E+02  0.45594000000E+02  0.51100000000E-03 0.  1.
         11   -1    0    0    0    0 -0.00000000000E+00 -0.00000000000E+00 -0.45593999997E+02  0.45594000000E+02  0.51100000000E-03 0. -1.
    9900012    2    1    2    0    0 -0.61479319080E+01  0.55424780177E+00  0.44620726716E+02  0.46142317520E+02  0.99999978052E+01 0.  0.
         12    1    1    2    0    0  0.61479319080E+01 -0.55424780177E+00 -0.44620726716E+02  0.45045682480E+02  0.00000000000E+00 0. -1.
         11    1    3    3    0    0  0.18415111442E+01 -0.97279237354E+00  0.12332155253E+02  0.12506779831E+02  0.51100000000E-03 0. -1.
        -11    1    3    3    0    0 -0.35909921283E+00  0.16711402529E+01  0.78109283454E+01  0.79957653709E+01  0.51100000000E-03 0.  1.
        -12    1    3    3    0    0 -0.76303438394E+01 -0.14410007759E+00  0.24477643118E+02  0.25639772319E+02  0.00000000000E+00 0.  1.
</event>
<event>
 7    1  0.2328810E-008  0.4614232E+02  0.7816164E-02  0.1320468E+00
        -11   -1    0    0    0    0  0.00000000000E+00  0.00000000000E+00  0.45593999997E+02  0.45594000000E+02  0.51100000000E-03 0.  1.
         11   -1    0    0    0    0 -0.00000000000E+00 -0.00000000000E+00 -0.45593999997E+02  0.45594000000E+02  0.51100000000E-03 0. -1.
    9900012    2    1    2    0    0 -0.41110549131E+02  0.55792571223E+01 -0.17547313287E+02  0.46142316927E+02  0.99999923984E+01 0.  0.
         12    1    1    2    0    0  0.41110549131E+02 -0.55792571223E+01  0.17547313287E+02  0.45045683073E+02  0.00000000000E+00 0. -1.
         11    1    3    3    0    0 -0.18455116231E+02  0.37242518172E+01 -0.44603106966E+01  0.19348274819E+02  0.51100000000E-03 0. -1.
        -11    1    3    3    0    0 -0.16594739647E+02  0.74375013185E+00 -0.66779886483E+01  0.17903465610E+02  0.51100000000E-03 0.  1.
        -12    1    3    3    0    0 -0.60606932534E+01  0.11112551733E+01 -0.64090139420E+01  0.88905764988E+01  0.00000000000E+00 0.  1.
</event>
<event>
 7    1  0.2328810E-008  0.4614233E+02  0.7816164E-02  0.1320468E+00
        -11   -1    0    0    0    0  0.00000000000E+00  0.00000000000E+00  0.45593999997E+02  0.45594000000E+02  0.51100000000E-03 0.  1.
         11   -1    0    0    0    0 -0.00000000000E+00 -0.00000000000E+00 -0.45593999997E+02  0.45594000000E+02  0.51100000000E-03 0. -1.
    9900012    2    1    2    0    0  0.27554185493E+02  0.12627693402E+02  0.33322979493E+02  0.46142326055E+02  0.10000075629E+02 0.  0.
         12    1    1    2    0    0 -0.27554185493E+02 -0.12627693402E+02 -0.33322979493E+02  0.45045673945E+02  0.00000000000E+00 0. -1.
         11    1    3    3    0    0  0.40591304337E+01  0.23150191350E+01  0.79019417748E+01  0.91802253538E+01  0.51100000000E-03 0. -1.
        -11    1    3    3    0    0  0.48051832188E+01  0.38546467067E+00  0.88719015373E+01  0.10096980040E+02  0.51100000000E-03 0.  1.
         12    1    3    3    0    0  0.18689871841E+02  0.99272095966E+01  0.16549136181E+02  0.26865120661E+02  0.00000000000E+00 0. -1.
</event>
<event>
 7    1  0.2328810E-008  0.4614232E+02  0.7816164E-02  0.1320468E+00
        -11   -1    0    0    0    0  0.00000000000E+00  0.00000000000E+00  0.45593999997E+02  0.45594000000E+02  0.51100000000E-03 0.  1.
         11   -1    0    0    0    0 -0.00000000000E+00 -0.00000000000E+00 -0.45593999997E+02  0.45594000000E+02  0.51100000000E-03 0. -1.
    9900012    2    1    2    0    0  0.15486008617E+02 -0.87862093599E+00  0.42290955505E+02  0.46142319239E+02  0.10000013480E+02 0.  0.
         12    1    1    2    0    0 -0.15486008617E+02  0.87862093599E+00 -0.42290955505E+02  0.45045680761E+02  0.00000000000E+00 0. -1.
         11    1    3    3    0    0  0.63052625896E+01 -0.46671233427E+01  0.13084942725E+02  0.15256280772E+02  0.51100000000E-03 0. -1.
        -11    1    3    3    0    0  0.53085538762E+01  0.27788335796E+01  0.15910528984E+02  0.17001399741E+02  0.51100000000E-03 0.  1.
         12    1    3    3    0    0  0.38721921511E+01  0.10096688271E+01  0.13295483797E+02  0.13884638727E+02  0.00000000000E+00 0. -1.
</event>
<event>
 7    1  0.2328810E-008  0.4614232E+02  0.7816164E-02  0.1320468E+00
        -11   -1    0    0    0    0  0.00000000000E+00  0.00000000000E+00  0.45593999997E+02  0.45594000000E+02  0.51100000000E-03 0. -1.
         11   -1    0    0    0    0 -0.00000000000E+00 -0.00000000000E+00 -0.45593999997E+02  0.45594000000E+02  0.51100000000E-03 0.  1.
    9900012    2    1    2    0    0 -0.17923329634E+02 -0.10517191053E+02 -0.39965690631E+02  0.46142317850E+02  0.10000000808E+02 0.  0.
         12    1    1    2    0    0  0.17923329634E+02  0.10517191053E+02  0.39965690631E+02  0.45045682150E+02  0.00000000000E+00 0. -1.
         11    1    3    3    0    0 -0.12371481844E+02 -0.38743373745E+01 -0.22668878384E+02  0.26114021149E+02  0.51100000000E-03 0. -1.
        -11    1    3    3    0    0 -0.10425950493E+01 -0.16893229793E+00 -0.68819441420E+01  0.69625209510E+01  0.51100000000E-03 0.  1.
        -12    1    3    3    0    0 -0.45092527407E+01 -0.64739213801E+01 -0.10414868104E+02  0.13065775750E+02  0.00000000000E+00 0.  1.
</event>
<event>
 7    1  0.2328810E-008  0.4614232E+02  0.7816164E-02  0.1320468E+00
        -11   -1    0    0    0    0  0.00000000000E+00  0.00000000000E+00  0.45593999997E+02  0.45594000000E+02  0.51100000000E-03 0. -1.
         11   -1    0    0    0    0 -0.00000000000E+00 -0.00000000000E+00 -0.45593999997E+02  0.45594000000E+02  0.51100000000E-03 0.  1.
    9900012    2    1    2    0    0 -0.15284383458E+02  0.18751939286E+02 -0.37998233965E+02  0.46142318862E+02  0.10000010040E+02 0.  0.
         12    1    1    2    0    0  0.15284383458E+02 -0.18751939286E+02  0.37998233965E+02  0.45045681138E+02  0.00000000000E+00 0. -1.
         11    1    3    3    0    0 -0.17186663048E+01  0.18087955977E+01 -0.30957300176E+00  0.25142376750E+01  0.51100000000E-03 0. -1.
        -11    1    3    3    0    0 -0.88790072271E+01  0.94422003625E+01 -0.19680539350E+02  0.23565134127E+02  0.51100000000E-03 0.  1.
         12    1    3    3    0    0 -0.46867099261E+01  0.75009433260E+01 -0.18008121613E+02  0.20062947061E+02  0.00000000000E+00 0. -1.
</event>
<event>
 7    1  0.2328810E-008  0.4614232E+02  0.7816164E-02  0.1320468E+00
        -11   -1    0    0    0    0  0.00000000000E+00  0.00000000000E+00  0.45593999997E+02  0.45594000000E+02  0.51100000000E-03 0.  1.
         11   -1    0    0    0    0 -0.00000000000E+00 -0.00000000000E+00 -0.45593999997E+02  0.45594000000E+02  0.51100000000E-03 0. -1.
    9900012    2    1    2    0    0 -0.19212432691E+01  0.25758243374E+02  0.36904406680E+02  0.46142317523E+02  0.99999978293E+01 0.  0.
         12    1    1    2    0    0  0.19212432691E+01 -0.25758243374E+02 -0.36904406680E+02  0.45045682477E+02  0.00000000000E+00 0. -1.
         11    1    3    3    0    0  0.13036835198E+01  0.43247592151E+01  0.37104356229E+01  0.58455509373E+01  0.51100000000E-03 0. -1.
        -11    1    3    3    0    0 -0.61724144346E+00  0.99080648135E+01  0.91268962708E+01  0.13485213055E+02  0.51100000000E-03 0.  1.
        -12    1    3    3    0    0 -0.26076853455E+01  0.11525419346E+02  0.24067074786E+02  0.26811553530E+02  0.00000000000E+00 0.  1.
</event>
<event>
 7    1  0.2328810E-008  0.4614232E+02  0.7816164E-02  0.1320468E+00
        -11   -1    0    0    0    0  0.00000000000E+00  0.00000000000E+00  0.45593999997E+02  0.45594000000E+02  0.51100000000E-03 0.  1.
         11   -1    0    0    0    0 -0.00000000000E+00 -0.00000000000E+00 -0.45593999997E+02  0.45594000000E+02  0.51100000000E-03 0. -1.
    9900012    2    1    2    0    0 -0.42655022460E+02 -0.15712057086E+01  0.14394232475E+02  0.46142317000E+02  0.99999930578E+01 0.  0.
         12    1    1    2    0    0  0.42655022460E+02  0.15712057086E+01 -0.14394232475E+02  0.45045683000E+02  0.00000000000E+00 0. -1.
         11    1    3    3    0    0 -0.10239922532E+02 -0.28716001357E+01  0.18033373589E+01  0.10786757005E+02  0.51100000000E-03 0. -1.
        -11    1    3    3    0    0 -0.25092896200E+01 -0.31260369003E+00 -0.64842729503E+00  0.26105006574E+01  0.51100000000E-03 0.  1.
        -12    1    3    3    0    0 -0.29905810308E+02  0.16129981172E+01  0.13239322412E+02  0.32745059337E+02  0.00000000000E+00 0.  1.
</event>
<event>
 7    1  0.2328810E-008  0.4614231E+02  0.7816164E-02  0.1320468E+00
        -11   -1    0    0    0    0  0.00000000000E+00  0.00000000000E+00  0.45593999997E+02  0.45594000000E+02  0.51100000000E-03 0. -1.
         11   -1    0    0    0    0 -0.00000000000E+00 -0.00000000000E+00 -0.45593999997E+02  0.45594000000E+02  0.51100000000E-03 0.  1.
    9900012    2    1    2    0    0  0.10077275485E+01  0.17891870299E+02 -0.41327706427E+02  0.46142313680E+02  0.99999627806E+01 0.  0.
         12    1    1    2    0    0 -0.10077275485E+01 -0.17891870299E+02  0.41327706427E+02  0.45045686320E+02  0.00000000000E+00 0. -1.
         11    1    3    3    0    0  0.17912401498E+01  0.48288252175E+01 -0.72946713176E+01  0.89296318037E+01  0.51100000000E-03 0. -1.
        -11    1    3    3    0    0  0.55834342585E+00  0.13207566958E+02 -0.27133886350E+02  0.30182765961E+02  0.51100000000E-03 0.  1.
        -12    1    3    3    0    0 -0.13418560271E+01 -0.14452187723E+00 -0.68991487590E+01  0.70299159148E+01  0.00000000000E+00 0.  1.
</event>
<event>
 7    1  0.2328810E-008  0.4614232E+02  0.7816164E-02  0.1320468E+00
        -11   -1    0    0    0    0  0.00000000000E+00  0.00000000000E+00  0.45593999997E+02  0.45594000000E+02  0.51100000000E-03 0.  1.
         11   -1    0    0    0    0 -0.00000000000E+00 -0.00000000000E+00 -0.45593999997E+02  0.45594000000E+02  0.51100000000E-03 0. -1.
    9900012    2    1    2    0    0  0.42802968588E+02 -0.10340325629E+01  0.13998226174E+02  0.46142315642E+02  0.99999806776E+01 0.  0.
         12    1    1    2    0    0 -0.42802968588E+02  0.10340325629E+01 -0.13998226174E+02  0.45045684358E+02  0.00000000000E+00 0. -1.
         11    1    3    3    0    0  0.43079367331E+01  0.21156181152E+01 -0.57959432968E+00  0.48342619658E+01  0.51100000000E-03 0. -1.
        -11    1    3    3    0    0  0.65851672087E+01 -0.10625435583E+01  0.23628151114E+01  0.70764624985E+01  0.51100000000E-03 0.  1.
        -12    1    3    3    0    0  0.31909864646E+02 -0.20871071197E+01  0.12215005392E+02  0.34231591178E+02  0.00000000000E+00 0.  1.
</event>
<event>
 7    1  0.2328810E-008  0.4614232E+02  0.7816164E-02  0.1320468E+00
        -11   -1    0    0    0    0  0.00000000000E+00  0.00000000000E+00  0.45593999997E+02  0.45594000000E+02  0.51100000000E-03 0. -1.
         11   -1    0    0    0    0 -0.00000000000E+00 -0.00000000000E+00 -0.45593999997E+02  0.45594000000E+02  0.51100000000E-03 0.  1.
    9900012    2    1    2    0    0  0.30813918580E+02 -0.81210415646E+01 -0.31838099815E+02  0.46142317697E+02  0.99999994119E+01 0.  0.
         12    1    1    2    0    0 -0.30813918580E+02  0.81210415646E+01  0.31838099815E+02  0.45045682303E+02  0.00000000000E+00 0. -1.
         11    1    3    3    0    0  0.33061156843E+01 -0.32925882786E+00 -0.86425106796E+01  0.92591470127E+01  0.51100000000E-03 0. -1.
        -11    1    3    3    0    0  0.99896009793E+01 -0.26797544460E+01 -0.97713605184E+01  0.14228587360E+02  0.51100000000E-03 0.  1.
        -12    1    3    3    0    0  0.17518201916E+02 -0.51120282907E+01 -0.13424228617E+02  0.22654583324E+02  0.00000000000E+00 0.  1.
</event>
<event>
 7    1  0.2328810E-008  0.4614232E+02  0.7816164E-02  0.1320468E+00
        -11   -1    0    0    0    0  0.00000000000E+00  0.00000000000E+00  0.45593999997E+02  0.45594000000E+02  0.51100000000E-03 0.  1.
         11   -1    0    0    0    0 -0.00000000000E+00 -0.00000000000E+00 -0.45593999997E+02  0.45594000000E+02  0.51100000000E-03 0. -1.
    9900012    2    1    2    0    0  0.88831233127E+01 -0.44160656141E+02  0.20048285148E+00  0.46142316256E+02  0.99999862752E+01 0.  0.
         12    1    1    2    0    0 -0.88831233127E+01  0.44160656141E+02 -0.20048285148E+00  0.45045683744E+02  0.00000000000E+00 0. -1.
         11    1    3    3    0    0 -0.40828732894E+00 -0.48844154510E+01  0.25571525014E+01  0.55284032068E+01  0.51100000000E-03 0. -1.
        -11    1    3    3    0    0  0.78869602072E+01 -0.36214361775E+02 -0.13098233082E+01  0.37086382642E+02  0.51100000000E-03 0.  1.
        -12    1    3    3    0    0  0.14044504344E+01 -0.30618789147E+01 -0.10468463417E+01  0.35275304073E+01  0.00000000000E+00 0.  1.
</event>
<event>
 7    1  0.2328810E-008  0.4614232E+02  0.7816164E-02  0.1320468E+00
        -11   -1    0    0    0    0  0.00000000000E+00  0.00000000000E+00  0.45593999997E+02  0.45594000000E+02  0.51100000000E-03 0. -1.
         11   -1    0    0    0    0 -0.00000000000E+00 -0.00000000000E+00 -0.45593999997E+02  0.45594000000E+02  0.51100000000E-03 0.  1.
    9900012    2    1    2    0    0  0.24176004763E+01 -0.42863046865E+02 -0.13639204673E+02  0.46142317823E+02  0.10000000567E+02 0.  0.
         12    1    1    2    0    0 -0.24176004763E+01  0.42863046865E+02  0.13639204673E+02  0.45045682177E+02  0.00000000000E+00 0. -1.
         11    1    3    3    0    0 -0.35665885801E+00 -0.12649765367E+02 -0.33940165709E+00  0.12659342919E+02  0.51100000000E-03 0. -1.
        -11    1    3    3    0    0 -0.15508161764E+00 -0.84782703591E+01 -0.16122262653E+01  0.86315926909E+01  0.51100000000E-03 0.  1.
         12    1    3    3    0    0  0.29293409519E+01 -0.21735011139E+02 -0.11687576751E+02  0.24851382214E+02  0.00000000000E+00 0. -1.
</event>
<event>
 7    1  0.2328810E-008  0.4614232E+02  0.7816164E-02  0.1320468E+00
        -11   -1    0    0    0    0  0.00000000000E+00  0.00000000000E+00  0.45593999997E+02  0.45594000000E+02  0.51100000000E-03 0. -1.
         11   -1    0    0    0    0 -0.00000000000E+00 -0.00000000000E+00 -0.45593999997E+02  0.45594000000E+02  0.51100000000E-03 0.  1.
    9900012    2    1    2    0    0 -0.42065211166E+01 -0.26557878857E+02 -0.36139972882E+02  0.46142318862E+02  0.10000010041E+02 0.  0.
         12    1    1    2    0    0  0.42065211166E+01  0.26557878857E+02  0.36139972882E+02  0.45045681138E+02  0.00000000000E+00 0. -1.
         11    1    3    3    0    0  0.24221189050E+00 -0.17614411783E+01 -0.80529477992E+00  0.19518815456E+01  0.51100000000E-03 0. -1.
        -11    1    3    3    0    0  0.23104827839E+01 -0.41946014538E+01 -0.76558520066E+01  0.90302315728E+01  0.51100000000E-03 0.  1.
        -12    1    3    3    0    0 -0.67592157910E+01 -0.20601836225E+02 -0.27678826095E+02  0.35160205744E+02  0.00000000000E+00 0.  1.
</event>
<event>
 7    1  0.2328810E-008  0.4614232E+02  0.7816164E-02  0.1320468E+00
        -11   -1    0    0    0    0  0.00000000000E+00  0.00000000000E+00  0.45593999997E+02  0.45594000000E+02  0.51100000000E-03 0.  1.
         11   -1    0    0    0    0 -0.00000000000E+00 -0.00000000000E+00 -0.45593999997E+02  0.45594000000E+02  0.51100000000E-03 0. -1.
    9900012    2    1    2    0    0  0.24909601305E+02  0.35041902797E+02 -0.13442109001E+02  0.46142317818E+02  0.10000000523E+02 0.  0.
         12    1    1    2    0    0 -0.24909601305E+02 -0.35041902797E+02  0.13442109001E+02  0.45045682182E+02  0.00000000000E+00 0. -1.
         11    1    3    3    0    0  0.31808971113E+01  0.65158415014E+01 -0.40118337026E+01  0.82866824980E+01  0.51100000000E-03 0.  1.
        -11    1    3    3    0    0  0.11601889267E+02  0.18861983619E+02 -0.26518631228E+01  0.22302704744E+02  0.51100000000E-03 0. -1.
         12    1    3    3    0    0  0.10126814927E+02  0.96640776763E+01 -0.67784121760E+01  0.15552930577E+02  0.00000000000E+00 0. -1.
</event>
<event>
 7    1  0.2328810E-008  0.4614232E+02  0.7816164E-02  0.1320468E+00
        -11   -1    0    0    0    0  0.00000000000E+00  0.00000000000E+00  0.45593999997E+02  0.45594000000E+02  0.51100000000E-03 0. -1.
         11   -1    0    0    0    0 -0.00000000000E+00 -0.00000000000E+00 -0.45593999997E+02  0.45594000000E+02  0.51100000000E-03 0.  1.
    9900012    2    1    2    0    0  0.28444494975E+02  0.24147597711E+01 -0.34845273538E+02  0.46142318220E+02  0.10000004180E+02 0.  0.
         12    1    1    2    0    0 -0.28444494975E+02 -0.24147597711E+01  0.34845273538E+02  0.45045681780E+02  0.00000000000E+00 0. -1.
         11    1    3    3    0    0  0.79183113259E-01 -0.46989958170E+00 -0.16555020577E+01  0.17227196250E+01  0.51100000000E-03 0. -1.
        -11    1    3    3    0    0  0.55465206524E+01 -0.22266579737E+01 -0.87329352963E+01  0.10582346443E+02  0.51100000000E-03 0.  1.
        -12    1    3    3    0    0  0.22818791210E+02  0.51113173265E+01 -0.24456836184E+02  0.33837252152E+02  0.00000000000E+00 0.  1.
</event>
<event>
 7    1  0.2328810E-008  0.4614232E+02  0.7816164E-02  0.1320468E+00
        -11   -1    0    0    0    0  0.00000000000E+00  0.00000000000E+00  0.45593999997E+02  0.45594000000E+02  0.51100000000E-03 0. -1.
         11   -1    0    0    0    0 -0.00000000000E+00 -0.00000000000E+00 -0.45593999997E+02  0.45594000000E+02  0.51100000000E-03 0.  1.
    9900012    2    1    2    0    0 -0.40078412083E+01  0.41903190603E+02 -0.16036616219E+02  0.46142320589E+02  0.10000025789E+02 0.  0.
         12    1    1    2    0    0  0.40078412083E+01 -0.41903190603E+02  0.16036616219E+02  0.45045679411E+02  0.00000000000E+00 0. -1.
         11    1    3    3    0    0  0.19089923066E+00  0.34971671603E+02 -0.13350114755E+02  0.37433672295E+02  0.51100000000E-03 0.  1.
        -11    1    3    3    0    0 -0.31985643126E+01  0.39841747210E+01 -0.11475591369E+01  0.52365402799E+01  0.51100000000E-03 0. -1.
         12    1    3    3    0    0 -0.10001761264E+01  0.29473442788E+01 -0.15389423265E+01  0.34721080147E+01  0.00000000000E+00 0. -1.
</event>
<event>
 7    1  0.2328810E-008  0.4614232E+02  0.7816164E-02  0.1320468E+00
        -11   -1    0    0    0    0  0.00000000000E+00  0.00000000000E+00  0.45593999997E+02  0.45594000000E+02  0.51100000000E-03 0.  1.
         11   -1    0    0    0    0 -0.00000000000E+00 -0.00000000000E+00 -0.45593999997E+02  0.45594000000E+02  0.51100000000E-03 0. -1.
    9900012    2    1    2    0    0  0.17506868005E+02  0.26629901372E+02  0.31835067140E+02  0.46142316808E+02  0.99999913074E+01 0.  0.
         12    1    1    2    0    0 -0.17506868005E+02 -0.26629901372E+02 -0.31835067140E+02  0.45045683192E+02  0.00000000000E+00 0. -1.
         11    1    3    3    0    0  0.98584659947E+01  0.85681559552E+01  0.97341880578E+01  0.16289784088E+02  0.51100000000E-03 0. -1.
        -11    1    3    3    0    0  0.41253440174E+01  0.59071968774E+01  0.10143905534E+02  0.12442357411E+02  0.51100000000E-03 0.  1.
        -12    1    3    3    0    0  0.35230579927E+01  0.12154548539E+02  0.11956973549E+02  0.17410175308E+02  0.00000000000E+00 0.  1.
</event>
<event>
 7    1  0.2328810E-008  0.4614232E+02  0.7816164E-02  0.1320468E+00
        -11   -1    0    0    0    0  0.00000000000E+00  0.00000000000E+00  0.45593999997E+02  0.45594000000E+02  0.51100000000E-03 0.  1.
         11   -1    0    0    0    0 -0.00000000000E+00 -0.00000000000E+00 -0.45593999997E+02  0.45594000000E+02  0.51100000000E-03 0. -1.
    9900012    2    1    2    0    0 -0.39025348394E+02  0.18890257218E+02  0.12218584951E+02  0.46142318151E+02  0.10000003554E+02 0.  0.
         12    1    1    2    0    0  0.39025348394E+02 -0.18890257218E+02 -0.12218584951E+02  0.45045681849E+02  0.00000000000E+00 0. -1.
         11    1    3    3    0    0 -0.28850580978E+01  0.25437745326E+01  0.39875442756E+01  0.55402940997E+01  0.51100000000E-03 0. -1.
        -11    1    3    3    0    0 -0.18750821455E+02  0.99722729649E+01  0.43118045919E+01  0.21670975807E+02  0.51100000000E-03 0.  1.
         12    1    3    3    0    0 -0.17389468841E+02  0.63742097205E+01  0.39192360839E+01  0.18931048244E+02  0.00000000000E+00 0. -1.
</event>
<event>
 7    1  0.2328810E-008  0.4614233E+02  0.7816164E-02  0.1320468E+00
        -11   -1    0    0    0    0  0.00000000000E+00  0.00000000000E+00  0.45593999997E+02  0.45594000000E+02  0.51100000000E-03 0.  1.
         11   -1    0    0    0    0 -0.00000000000E+00 -0.00000000000E+00 -0.45593999997E+02  0.45594000000E+02  0.51100000000E-03 0. -1.
    9900012    2    1    2    0    0 -0.27578956629E+02 -0.30637320735E+02 -0.18162268018E+02  0.46142331505E+02  0.10000125331E+02 0.  0.
         12    1    1    2    0    0  0.27578956629E+02  0.30637320735E+02  0.18162268018E+02  0.45045668495E+02  0.00000000000E+00 0. -1.
         11    1    3    3    0    0 -0.10119823532E+02 -0.16749519886E+02 -0.10127669276E+02  0.22034675626E+02  0.51100000000E-03 0. -1.
        -11    1    3    3    0    0 -0.57853459595E+01 -0.72789043671E+01 -0.37439315673E+01  0.10023457512E+02  0.51100000000E-03 0.  1.
         12    1    3    3    0    0 -0.11673787137E+02 -0.66088964817E+01 -0.42906671748E+01  0.14084198367E+02  0.00000000000E+00 0. -1.
</event>
<event>
 7    1  0.2328810E-008  0.4614232E+02  0.7816164E-02  0.1320468E+00
        -11   -1    0    0    0    0  0.00000000000E+00  0.00000000000E+00  0.45593999997E+02  0.45594000000E+02  0.51100000000E-03 0. -1.
         11   -1    0    0    0    0 -0.00000000000E+00 -0.00000000000E+00 -0.45593999997E+02  0.45594000000E+02  0.51100000000E-03 0.  1.
    9900012    2    1    2    0    0 -0.27006553850E+02 -0.21074712992E+01 -0.35990527612E+02  0.46142318033E+02  0.10000002479E+02 0.  0.
         12    1    1    2    0    0  0.27006553850E+02  0.21074712992E+01  0.35990527612E+02  0.45045681967E+02  0.00000000000E+00 0. -1.
         11    1    3    3    0    0 -0.58258328577E+01  0.88690461420E-01 -0.76150020732E+01  0.95883497704E+01  0.51100000000E-03 0. -1.
        -11    1    3    3    0    0 -0.20122275064E+02  0.21786626712E+00 -0.26686439372E+02  0.33423337148E+02  0.51100000000E-03 0.  1.
         12    1    3    3    0    0 -0.10584459282E+01 -0.24140280277E+01 -0.16890861662E+01  0.31306311151E+01  0.00000000000E+00 0. -1.
</event>
<event>
 7    1  0.2328810E-008  0.4614232E+02  0.7816164E-02  0.1320468E+00
        -11   -1    0    0    0    0  0.00000000000E+00  0.00000000000E+00  0.45593999997E+02  0.45594000000E+02  0.51100000000E-03 0.  1.
         11   -1    0    0    0    0 -0.00000000000E+00 -0.00000000000E+00 -0.45593999997E+02  0.45594000000E+02  0.51100000000E-03 0. -1.
    9900012    2    1    2    0    0 -0.56181369881E+01  0.41029781388E+02  0.17723066888E+02  0.46142317367E+02  0.99999964041E+01 0.  0.
         12    1    1    2    0    0  0.56181369881E+01 -0.41029781388E+02 -0.17723066888E+02  0.45045682633E+02  0.00000000000E+00 0. -1.
         11    1    3    3    0    0 -0.39392842041E+01  0.23875963141E+02  0.99357976583E+01  0.26159121761E+02  0.51100000000E-03 0.  1.
        -11    1    3    3    0    0 -0.13908489531E+00  0.15070238309E+02  0.43638622721E+01  0.15689956070E+02  0.51100000000E-03 0. -1.
         12    1    3    3    0    0 -0.15397678887E+01  0.20835799386E+01  0.34234069580E+01  0.42932395358E+01  0.00000000000E+00 0. -1.
</event>
<event>
 7    1  0.2328810E-008  0.4614232E+02  0.7816164E-02  0.1320468E+00
        -11   -1    0    0    0    0  0.00000000000E+00  0.00000000000E+00  0.45593999997E+02  0.45594000000E+02  0.51100000000E-03 0.  1.
         11   -1    0    0    0    0 -0.00000000000E+00 -0.00000000000E+00 -0.45593999997E+02  0.45594000000E+02  0.51100000000E-03 0. -1.
    9900012    2    1    2    0    0  0.10669109861E+02  0.41975398204E+02 -0.12383438728E+02  0.46142317473E+02  0.99999973710E+01 0.  0.
         12    1    1    2    0    0 -0.10669109861E+02 -0.41975398204E+02  0.12383438728E+02  0.45045682527E+02  0.00000000000E+00 0. -1.
         11    1    3    3    0    0 -0.70573215927E+00  0.21895726254E+00  0.44477056376E+00  0.86245074002E+00  0.51100000000E-03 0. -1.
        -11    1    3    3    0    0  0.21541304342E+01  0.38518033775E+01 -0.14143807176E+01  0.46343435632E+01  0.51100000000E-03 0.  1.
        -12    1    3    3    0    0  0.92207115856E+01  0.37904637564E+02 -0.11413828574E+02  0.40645523170E+02  0.00000000000E+00 0.  1.
</event>
<event>
 7    1  0.2328810E-008  0.4614232E+02  0.7816164E-02  0.1320468E+00
        -11   -1    0    0    0    0  0.00000000000E+00  0.00000000000E+00  0.45593999997E+02  0.45594000000E+02  0.51100000000E-03 0. -1.
         11   -1    0    0    0    0 -0.00000000000E+00 -0.00000000000E+00 -0.45593999997E+02  0.45594000000E+02  0.51100000000E-03 0.  1.
    9900012    2    1    2    0    0  0.44931049906E+01  0.33017214737E+02 -0.30311532967E+02  0.46142317718E+02  0.99999996024E+01 0.  0.
         12    1    1    2    0    0 -0.44931049906E+01 -0.33017214737E+02  0.30311532967E+02  0.45045682282E+02  0.00000000000E+00 0. -1.
         11    1    3    3    0    0  0.57791035712E+01  0.24694758876E+02 -0.21017626018E+02  0.32938879121E+02  0.51100000000E-03 0. -1.
        -11    1    3    3    0    0 -0.15304473222E+01  0.61509325500E+01 -0.89860724738E+01  0.10996623982E+02  0.51100000000E-03 0.  1.
         12    1    3    3    0    0  0.24444874160E+00  0.21715233111E+01 -0.30783447527E+00  0.22068146144E+01  0.00000000000E+00 0. -1.
</event>
<event>
 7    1  0.2328810E-008  0.4614232E+02  0.7816164E-02  0.1320468E+00
        -11   -1    0    0    0    0  0.00000000000E+00  0.00000000000E+00  0.45593999997E+02  0.45594000000E+02  0.51100000000E-03 0.  1.
         11   -1    0    0    0    0 -0.00000000000E+00 -0.00000000000E+00 -0.45593999997E+02  0.45594000000E+02  0.51100000000E-03 0. -1.
    9900012    2    1    2    0    0 -0.38791117056E+02 -0.17846892514E+02  0.14347514778E+02  0.46142317464E+02  0.99999972870E+01 0.  0.
         12    1    1    2    0    0  0.38791117056E+02  0.17846892514E+02 -0.14347514778E+02  0.45045682536E+02  0.00000000000E+00 0. -1.
         11    1    3    3    0    0 -0.10621247997E+02 -0.40068136231E+01  0.60799030221E+01  0.12877526372E+02  0.51100000000E-03 0. -1.
        -11    1    3    3    0    0 -0.44391653824E+01  0.31042912567E+00  0.22550062800E+01  0.49887482517E+01  0.51100000000E-03 0.  1.
         12    1    3    3    0    0 -0.23730703676E+02 -0.14150508017E+02  0.60126054758E+01  0.28276042840E+02  0.00000000000E+00 0. -1.
</event>
<event>
 7    1  0.2328810E-008  0.4614232E+02  0.7816164E-02  0.1320468E+00
        -11   -1    0    0    0    0  0.00000000000E+00  0.00000000000E+00  0.45593999997E+02  0.45594000000E+02  0.51100000000E-03 0. -1.
         11   -1    0    0    0    0 -0.00000000000E+00 -0.00000000000E+00 -0.45593999997E+02  0.45594000000E+02  0.51100000000E-03 0.  1.
    9900012    2    1    2    0    0  0.17288310731E+02 -0.37608995331E+02 -0.17770516793E+02  0.46142317800E+02  0.10000000355E+02 0.  0.
         12    1    1    2    0    0 -0.17288310731E+02  0.37608995331E+02  0.17770516793E+02  0.45045682200E+02  0.00000000000E+00 0. -1.
         11    1    3    3    0    0  0.16425406234E+01 -0.95852845570E+01 -0.37838273154E+01  0.10435179402E+02  0.51100000000E-03 0. -1.
        -11    1    3    3    0    0  0.71462564449E+01 -0.16681204582E+02 -0.46473323248E+01  0.18733106135E+02  0.51100000000E-03 0.  1.
        -12    1    3    3    0    0  0.84995136624E+01 -0.11342506193E+02 -0.93393571531E+01  0.16974032263E+02  0.00000000000E+00 0.  1.
</event>
<event>
 7    1  0.2328810E-008  0.4614232E+02  0.7816164E-02  0.1320468E+00
        -11   -1    0    0    0    0  0.00000000000E+00  0.00000000000E+00  0.45593999997E+02  0.45594000000E+02  0.51100000000E-03 0. -1.
         11   -1    0    0    0    0 -0.00000000000E+00 -0.00000000000E+00 -0.45593999997E+02  0.45594000000E+02  0.51100000000E-03 0.  1.
    9900012    2    1    2    0    0  0.39767950807E+02  0.12165220521E+02 -0.17309852846E+02  0.46142317551E+02  0.99999980871E+01 0.  0.
         12    1    1    2    0    0 -0.39767950807E+02 -0.12165220521E+02  0.17309852846E+02  0.45045682449E+02  0.00000000000E+00 0. -1.
         11    1    3    3    0    0  0.11490891909E+02  0.57859604789E+01 -0.46589086643E+01  0.13682958954E+02  0.51100000000E-03 0. -1.
        -11    1    3    3    0    0  0.12638873311E+02  0.46786603449E+01 -0.93045071870E+01  0.16376960507E+02  0.51100000000E-03 0.  1.
        -12    1    3    3    0    0  0.15638185586E+02  0.17005996974E+01 -0.33464369942E+01  0.16082398090E+02  0.00000000000E+00 0.  1.
</event>
<event>
 7    1  0.2328810E-008  0.4614232E+02  0.7816164E-02  0.1320468E+00
        -11   -1    0    0    0    0  0.00000000000E+00  0.00000000000E+00  0.45593999997E+02  0.45594000000E+02  0.51100000000E-03 0. -1.
         11   -1    0    0    0    0 -0.00000000000E+00 -0.00000000000E+00 -0.45593999997E+02  0.45594000000E+02  0.51100000000E-03 0.  1.
    9900012    2    1    2    0    0  0.58375658700E+01  0.44232807446E+02 -0.62044435246E+01  0.46142317085E+02  0.99999938328E+01 0.  0.
         12    1    1    2    0    0 -0.58375658700E+01 -0.44232807446E+02  0.62044435246E+01  0.45045682915E+02  0.00000000000E+00 0. -1.
         11    1    3    3    0    0  0.55911007813E+01  0.22781053986E+02 -0.59229617441E+01  0.24193352491E+02  0.51100000000E-03 0. -1.
        -11    1    3    3    0    0  0.95627192906E+00  0.75313746007E+00  0.19467558302E+00  0.12327087571E+01  0.51100000000E-03 0.  1.
        -12    1    3    3    0    0 -0.70980684037E+00  0.20698616000E+02 -0.47615736351E+00  0.20716255837E+02  0.00000000000E+00 0.  1.
</event>
<event>
 7    1  0.2328810E-008  0.4614232E+02  0.7816164E-02  0.1320468E+00
        -11   -1    0    0    0    0  0.00000000000E+00  0.00000000000E+00  0.45593999997E+02  0.45594000000E+02  0.51100000000E-03 0. -1.
         11   -1    0    0    0    0 -0.00000000000E+00 -0.00000000000E+00 -0.45593999997E+02  0.45594000000E+02  0.51100000000E-03 0.  1.
    9900012    2    1    2    0    0  0.21751063360E+02 -0.26877032368E+02 -0.28872649691E+02  0.46142317340E+02  0.99999961559E+01 0.  0.
         12    1    1    2    0    0 -0.21751063360E+02  0.26877032368E+02  0.28872649691E+02  0.45045682660E+02  0.00000000000E+00 0. -1.
         11    1    3    3    0    0  0.97148596386E+01 -0.12363892119E+02 -0.12593051316E+02  0.20145204587E+02  0.51100000000E-03 0. -1.
        -11    1    3    3    0    0  0.80765229458E+01 -0.11997711406E+02 -0.15573011178E+02  0.21253093405E+02  0.51100000000E-03 0.  1.
         12    1    3    3    0    0  0.39596807754E+01 -0.25154288433E+01 -0.70658719666E+00  0.47440193481E+01  0.00000000000E+00 0. -1.
</event>
<event>
 7    1  0.2328810E-008  0.4614232E+02  0.7816164E-02  0.1320468E+00
        -11   -1    0    0    0    0  0.00000000000E+00  0.00000000000E+00  0.45593999997E+02  0.45594000000E+02  0.51100000000E-03 0.  1.
         11   -1    0    0    0    0 -0.00000000000E+00 -0.00000000000E+00 -0.45593999997E+02  0.45594000000E+02  0.51100000000E-03 0. -1.
    9900012    2    1    2    0    0  0.26457068750E+02  0.24879927579E+02  0.26648194318E+02  0.46142317148E+02  0.99999944098E+01 0.  0.
         12    1    1    2    0    0 -0.26457068750E+02 -0.24879927579E+02 -0.26648194318E+02  0.45045682852E+02  0.00000000000E+00 0. -1.
         11    1    3    3    0    0  0.11817256189E+02  0.62013184668E+01  0.12901097316E+02  0.18561848151E+02  0.51100000000E-03 0. -1.
        -11    1    3    3    0    0  0.10816429575E+02  0.12899411198E+02  0.11091160550E+02  0.20159459333E+02  0.51100000000E-03 0.  1.
         12    1    3    3    0    0  0.38233829858E+01  0.57791979148E+01  0.26559364520E+01  0.74210096639E+01  0.00000000000E+00 0. -1.
</event>
<event>
 7    1  0.2328810E-008  0.4614232E+02  0.7816164E-02  0.1320468E+00
        -11   -1    0    0    0    0  0.00000000000E+00  0.00000000000E+00  0.45593999997E+02  0.45594000000E+02  0.51100000000E-03 0.  1.
         11   -1    0    0    0    0 -0.00000000000E+00 -0.00000000000E+00 -0.45593999997E+02  0.45594000000E+02  0.51100000000E-03 0. -1.
    9900012    2    1    2    0    0  0.23063636765E+02 -0.35388106698E+02  0.15648133487E+02  0.46142317431E+02  0.99999969889E+01 0.  0.
         12    1    1    2    0    0 -0.23063636765E+02  0.35388106698E+02 -0.15648133487E+02  0.45045682569E+02  0.00000000000E+00 0. -1.
         11    1    3    3    0    0  0.70581326599E+01 -0.17610003431E+02  0.42929901224E+01  0.19451458092E+02  0.51100000000E-03 0. -1.
        -11    1    3    3    0    0  0.59610960814E+01 -0.89209578333E+01  0.43501380893E+01  0.11577644701E+02  0.51100000000E-03 0.  1.
         12    1    3    3    0    0  0.10044408024E+02 -0.88571454342E+01  0.70050052751E+01  0.15113214638E+02  0.00000000000E+00 0. -1.
</event>
<event>
 7    1  0.2328810E-008  0.4614232E+02  0.7816164E-02  0.1320468E+00
        -11   -1    0    0    0    0  0.00000000000E+00  0.00000000000E+00  0.45593999997E+02  0.45594000000E+02  0.51100000000E-03 0.  1.
         11   -1    0    0    0    0 -0.00000000000E+00 -0.00000000000E+00 -0.45593999997E+02  0.45594000000E+02  0.51100000000E-03 0. -1.
    9900012    2    1    2    0    0 -0.75749726500E+01  0.30039484213E+02  0.32701112262E+02  0.46142316904E+02  0.99999921829E+01 0.  0.
         12    1    1    2    0    0  0.75749726500E+01 -0.30039484213E+02 -0.32701112262E+02  0.45045683096E+02  0.00000000000E+00 0. -1.
         11    1    3    3    0    0 -0.12820605498E+01  0.23512847609E+01  0.60230075641E+01  0.65915733827E+01  0.51100000000E-03 0. -1.
        -11    1    3    3    0    0 -0.30725111130E+01  0.10990796804E+02  0.15311323041E+02  0.19096453924E+02  0.51100000000E-03 0.  1.
         12    1    3    3    0    0 -0.32204009872E+01  0.16697402648E+02  0.11366781656E+02  0.20454289597E+02  0.00000000000E+00 0. -1.
</event>
<event>
 7    1  0.2328810E-008  0.4614232E+02  0.7816164E-02  0.1320468E+00
        -11   -1    0    0    0    0  0.00000000000E+00  0.00000000000E+00  0.45593999997E+02  0.45594000000E+02  0.51100000000E-03 0.  1.
         11   -1    0    0    0    0 -0.00000000000E+00 -0.00000000000E+00 -0.45593999997E+02  0.45594000000E+02  0.51100000000E-03 0. -1.
    9900012    2    1    2    0    0 -0.31579034152E+01 -0.83007723209E+01  0.44161501758E+02  0.46142318602E+02  0.10000007670E+02 0.  0.
         12    1    1    2    0    0  0.31579034152E+01  0.83007723209E+01 -0.44161501758E+02  0.45045681398E+02  0.00000000000E+00 0. -1.
         11    1    3    3    0    0 -0.27363570243E+01 -0.70670509626E+01  0.25086487466E+02  0.26206157916E+02  0.51100000000E-03 0. -1.
        -11    1    3    3    0    0 -0.27482541025E+01 -0.19135023141E+01  0.11934523487E+02  0.12395452507E+02  0.51100000000E-03 0.  1.
         12    1    3    3    0    0  0.23267077117E+01  0.67978095582E+00  0.71404908044E+01  0.75407081796E+01  0.00000000000E+00 0. -1.
</event>
<event>
 7    1  0.2328810E-008  0.4614232E+02  0.7816164E-02  0.1320468E+00
        -11   -1    0    0    0    0  0.00000000000E+00  0.00000000000E+00  0.45593999997E+02  0.45594000000E+02  0.51100000000E-03 0. -1.
         11   -1    0    0    0    0 -0.00000000000E+00 -0.00000000000E+00 -0.45593999997E+02  0.45594000000E+02  0.51100000000E-03 0.  1.
    9900012    2    1    2    0    0 -0.76986562425E+01  0.10103628163E+02 -0.43217597933E+02  0.46142318952E+02  0.10000010858E+02 0.  0.
         12    1    1    2    0    0  0.76986562425E+01 -0.10103628163E+02  0.43217597933E+02  0.45045681048E+02  0.00000000000E+00 0. -1.
         11    1    3    3    0    0 -0.53161900350E+01  0.54196328141E+01 -0.12152131144E+02  0.14328593369E+02  0.51100000000E-03 0.  1.
        -11    1    3    3    0    0 -0.89440432772E+00 -0.48430428319E+00 -0.10763575854E+02  0.10811525109E+02  0.51100000000E-03 0. -1.
        -12    1    3    3    0    0 -0.14880618798E+01  0.51682996322E+01 -0.20301890935E+02  0.21002200474E+02  0.00000000000E+00 0.  1.
</event>
<event>
 7    1  0.2328810E-008  0.4614232E+02  0.7816164E-02  0.1320468E+00
        -11   -1    0    0    0    0  0.00000000000E+00  0.00000000000E+00  0.45593999997E+02  0.45594000000E+02  0.51100000000E-03 0.  1.
         11   -1    0    0    0    0 -0.00000000000E+00 -0.00000000000E+00 -0.45593999997E+02  0.45594000000E+02  0.51100000000E-03 0. -1.
    9900012    2    1    2    0    0  0.22572732897E+02  0.21469552348E+02  0.32536802136E+02  0.46142318279E+02  0.10000004721E+02 0.  0.
         12    1    1    2    0    0 -0.22572732897E+02 -0.21469552348E+02 -0.32536802136E+02  0.45045681721E+02  0.00000000000E+00 0. -1.
         11    1    3    3    0    0  0.40442582771E+01  0.42879373946E+01  0.97581872465E+01  0.11400203977E+02  0.51100000000E-03 0. -1.
        -11    1    3    3    0    0  0.90104018764E+01  0.12794801457E+02  0.12115824109E+02  0.19791095987E+02  0.51100000000E-03 0.  1.
         12    1    3    3    0    0  0.95180727433E+01  0.43868134970E+01  0.10662790781E+02  0.14951018315E+02  0.00000000000E+00 0. -1.
</event>
<event>
 7    1  0.2328810E-008  0.4614232E+02  0.7816164E-02  0.1320468E+00
        -11   -1    0    0    0    0  0.00000000000E+00  0.00000000000E+00  0.45593999997E+02  0.45594000000E+02  0.51100000000E-03 0. -1.
         11   -1    0    0    0    0 -0.00000000000E+00 -0.00000000000E+00 -0.45593999997E+02  0.45594000000E+02  0.51100000000E-03 0.  1.
    9900012    2    1    2    0    0  0.39216636916E+02  0.22020380339E+02  0.25043411311E+01  0.46142317790E+02  0.10000000264E+02 0.  0.
         12    1    1    2    0    0 -0.39216636916E+02 -0.22020380339E+02 -0.25043411311E+01  0.45045682210E+02  0.00000000000E+00 0. -1.
         11    1    3    3    0    0  0.10683562474E+02  0.26411250270E+01 -0.71150479319E+00  0.11028158862E+02  0.51100000000E-03 0. -1.
        -11    1    3    3    0    0  0.22905705533E+02  0.14227396297E+02  0.35796058029E+00  0.26966985137E+02  0.51100000000E-03 0.  1.
        -12    1    3    3    0    0  0.56273689090E+01  0.51518590153E+01  0.28578853440E+01  0.81471737916E+01  0.00000000000E+00 0.  1.
</event>
<event>
 7    1  0.2328810E-008  0.4614232E+02  0.7816164E-02  0.1320468E+00
        -11   -1    0    0    0    0  0.00000000000E+00  0.00000000000E+00  0.45593999997E+02  0.45594000000E+02  0.51100000000E-03 0. -1.
         11   -1    0    0    0    0 -0.00000000000E+00 -0.00000000000E+00 -0.45593999997E+02  0.45594000000E+02  0.51100000000E-03 0.  1.
    9900012    2    1    2    0    0  0.30963381656E+02  0.30694002942E+02 -0.11325220942E+02  0.46142318193E+02  0.10000003934E+02 0.  0.
         12    1    1    2    0    0 -0.30963381656E+02 -0.30694002942E+02  0.11325220942E+02  0.45045681807E+02  0.00000000000E+00 0. -1.
         11    1    3    3    0    0  0.14957888896E+02  0.13260542810E+02 -0.69919918438E+01  0.21177072178E+02  0.51100000000E-03 0. -1.
        -11    1    3    3    0    0  0.38134690906E+01  0.85161340005E+01 -0.32161154501E+00  0.93365153599E+01  0.51100000000E-03 0.  1.
        -12    1    3    3    0    0  0.12192023669E+02  0.89173261310E+01 -0.40116175530E+01  0.15628730654E+02  0.00000000000E+00 0.  1.
</event>
<event>
 7    1  0.2328810E-008  0.4614232E+02  0.7816164E-02  0.1320468E+00
        -11   -1    0    0    0    0  0.00000000000E+00  0.00000000000E+00  0.45593999997E+02  0.45594000000E+02  0.51100000000E-03 0.  1.
         11   -1    0    0    0    0 -0.00000000000E+00 -0.00000000000E+00 -0.45593999997E+02  0.45594000000E+02  0.51100000000E-03 0. -1.
    9900012    2    1    2    0    0  0.31790986222E+02 -0.69503663583E+01  0.31147057061E+02  0.46142316954E+02  0.99999926421E+01 0.  0.
         12    1    1    2    0    0 -0.31790986222E+02  0.69503663583E+01 -0.31147057061E+02  0.45045683046E+02  0.00000000000E+00 0. -1.
         11    1    3    3    0    0  0.10544039745E+02  0.71475875328E+00  0.10881265461E+02  0.15168704378E+02  0.51100000000E-03 0. -1.
        -11    1    3    3    0    0  0.18213745131E+02 -0.71189512567E+01  0.19848256778E+02  0.27863475664E+02  0.51100000000E-03 0.  1.
         12    1    3    3    0    0  0.30332013460E+01 -0.54617385486E+00  0.41753482278E+00  0.31101369124E+01  0.00000000000E+00 0. -1.
</event>
<event>
 7    1  0.2328810E-008  0.4614232E+02  0.7816164E-02  0.1320468E+00
        -11   -1    0    0    0    0  0.00000000000E+00  0.00000000000E+00  0.45593999997E+02  0.45594000000E+02  0.51100000000E-03 0. -1.
         11   -1    0    0    0    0 -0.00000000000E+00 -0.00000000000E+00 -0.45593999997E+02  0.45594000000E+02  0.51100000000E-03 0.  1.
    9900012    2    1    2    0    0 -0.48536525060E+01  0.25130738078E+02 -0.37067527835E+02  0.46142316980E+02  0.99999928742E+01 0.  0.
         12    1    1    2    0    0  0.48536525060E+01 -0.25130738078E+02  0.37067527835E+02  0.45045683020E+02  0.00000000000E+00 0. -1.
         11    1    3    3    0    0  0.71109308128E+00  0.12252376498E+02 -0.13435835657E+02  0.18197474090E+02  0.51100000000E-03 0.  1.
        -11    1    3    3    0    0  0.93841158772E+00  0.10515815105E+01 -0.25266550685E+01  0.28931688643E+01  0.51100000000E-03 0. -1.
         12    1    3    3    0    0 -0.65031571749E+01  0.11826780069E+02 -0.21105037110E+02  0.25051674025E+02  0.00000000000E+00 0. -1.
</event>
<event>
 7    1  0.2328810E-008  0.4614232E+02  0.7816164E-02  0.1320468E+00
        -11   -1    0    0    0    0  0.00000000000E+00  0.00000000000E+00  0.45593999997E+02  0.45594000000E+02  0.51100000000E-03 0.  1.
         11   -1    0    0    0    0 -0.00000000000E+00 -0.00000000000E+00 -0.45593999997E+02  0.45594000000E+02  0.51100000000E-03 0. -1.
    9900012    2    1    2    0    0  0.44061350088E+00  0.46430368852E+00  0.45041133960E+02  0.46142318003E+02  0.10000002206E+02 0.  0.
         12    1    1    2    0    0 -0.44061350088E+00 -0.46430368852E+00 -0.45041133960E+02  0.45045681997E+02  0.00000000000E+00 0. -1.
         11    1    3    3    0    0 -0.20109267001E+01  0.26524823344E+01  0.11521390536E+02  0.11992578074E+02  0.51100000000E-03 0. -1.
        -11    1    3    3    0    0  0.19062846999E+00 -0.30767433663E+01  0.90685273501E+01  0.95781458287E+01  0.51100000000E-03 0.  1.
         12    1    3    3    0    0  0.22609117310E+01  0.88856472042E+00  0.24451216074E+02  0.24571594100E+02  0.00000000000E+00 0. -1.
</event>
<event>
 7    1  0.2328810E-008  0.4614232E+02  0.7816164E-02  0.1320468E+00
        -11   -1    0    0    0    0  0.00000000000E+00  0.00000000000E+00  0.45593999997E+02  0.45594000000E+02  0.51100000000E-03 0.  1.
         11   -1    0    0    0    0 -0.00000000000E+00 -0.00000000000E+00 -0.45593999997E+02  0.45594000000E+02  0.51100000000E-03 0. -1.
    9900012    2    1    2    0    0  0.10597867827E+02  0.55391812188E+01  0.43429438978E+02  0.46142317621E+02  0.99999987198E+01 0.  0.
         12    1    1    2    0    0 -0.10597867827E+02 -0.55391812188E+01 -0.43429438978E+02  0.45045682379E+02  0.00000000000E+00 0. -1.
         11    1    3    3    0    0 -0.70455004858E+00 -0.10784985143E+01  0.10193249517E+02  0.10274331403E+02  0.51100000000E-03 0. -1.
        -11    1    3    3    0    0  0.73024801416E+01  0.50639668703E+01  0.18567113101E+02  0.20584160558E+02  0.51100000000E-03 0.  1.
        -12    1    3    3    0    0  0.39999377341E+01  0.15537128628E+01  0.14669076360E+02  0.15283825660E+02  0.00000000000E+00 0.  1.
</event>
<event>
 7    1  0.2328810E-008  0.4614232E+02  0.7816164E-02  0.1320468E+00
        -11   -1    0    0    0    0  0.00000000000E+00  0.00000000000E+00  0.45593999997E+02  0.45594000000E+02  0.51100000000E-03 0. -1.
         11   -1    0    0    0    0 -0.00000000000E+00 -0.00000000000E+00 -0.45593999997E+02  0.45594000000E+02  0.51100000000E-03 0.  1.
    9900012    2    1    2    0    0 -0.64535010481E+01 -0.38221054871E+02 -0.22948134289E+02  0.46142316760E+02  0.99999908710E+01 0.  0.
         12    1    1    2    0    0  0.64535010481E+01  0.38221054871E+02  0.22948134289E+02  0.45045683240E+02  0.00000000000E+00 0. -1.
         11    1    3    3    0    0 -0.97696372162E+00 -0.51385157909E+01 -0.38180356709E-01  0.52307036474E+01  0.51100000000E-03 0. -1.
        -11    1    3    3    0    0 -0.39426735957E+01 -0.12062475835E+02 -0.69048723332E+01  0.14447327107E+02  0.51100000000E-03 0.  1.
         12    1    3    3    0    0 -0.15338637308E+01 -0.21020063245E+02 -0.16005081599E+02  0.26464286005E+02  0.00000000000E+00 0. -1.
</event>
<event>
 7    1  0.2328810E-008  0.4614232E+02  0.7816164E-02  0.1320468E+00
        -11   -1    0    0    0    0  0.00000000000E+00  0.00000000000E+00  0.45593999997E+02  0.45594000000E+02  0.51100000000E-03 0.  1.
         11   -1    0    0    0    0 -0.00000000000E+00 -0.00000000000E+00 -0.45593999997E+02  0.45594000000E+02  0.51100000000E-03 0. -1.
    9900012    2    1    2    0    0  0.42897789200E+02  0.13544587678E+02 -0.23318036035E+01  0.46142317836E+02  0.10000000679E+02 0.  0.
         12    1    1    2    0    0 -0.42897789200E+02 -0.13544587678E+02  0.23318036035E+01  0.45045682164E+02  0.00000000000E+00 0. -1.
         11    1    3    3    0    0  0.96874272173E+01  0.23272689624E+01 -0.45042617378E+01  0.10933928890E+02  0.51100000000E-03 0.  1.
        -11    1    3    3    0    0  0.37128429780E+01  0.58883144194E+00 -0.20213886746E+00  0.37646760590E+01  0.51100000000E-03 0. -1.
        -12    1    3    3    0    0  0.29497519005E+02  0.10628487274E+02  0.23745970018E+01  0.31443712886E+02  0.00000000000E+00 0.  1.
</event>
<event>
 7    1  0.2328810E-008  0.4614232E+02  0.7816164E-02  0.1320468E+00
        -11   -1    0    0    0    0  0.00000000000E+00  0.00000000000E+00  0.45593999997E+02  0.45594000000E+02  0.51100000000E-03 0.  1.
         11   -1    0    0    0    0 -0.00000000000E+00 -0.00000000000E+00 -0.45593999997E+02  0.45594000000E+02  0.51100000000E-03 0. -1.
    9900012    2    1    2    0    0  0.17278429630E+02  0.90439830061E+00  0.41590276797E+02  0.46142321064E+02  0.10000030117E+02 0.  0.
         12    1    1    2    0    0 -0.17278429630E+02 -0.90439830061E+00 -0.41590276797E+02  0.45045678936E+02  0.00000000000E+00 0. -1.
         11    1    3    3    0    0  0.96170745191E+01  0.31209388550E-01  0.23834227872E+02  0.25701352394E+02  0.51100000000E-03 0. -1.
        -11    1    3    3    0    0  0.57651176933E+01 -0.10580923164E+01  0.16395363156E+02  0.17411607469E+02  0.51100000000E-03 0.  1.
         12    1    3    3    0    0  0.18962374175E+01  0.19312812285E+01  0.13606857683E+01  0.30293612011E+01  0.00000000000E+00 0. -1.
</event>
<event>
 7    1  0.2328810E-008  0.4614232E+02  0.7816164E-02  0.1320468E+00
        -11   -1    0    0    0    0  0.00000000000E+00  0.00000000000E+00  0.45593999997E+02  0.45594000000E+02  0.51100000000E-03 0.  1.
         11   -1    0    0    0    0 -0.00000000000E+00 -0.00000000000E+00 -0.45593999997E+02  0.45594000000E+02  0.51100000000E-03 0. -1.
    9900012    2    1    2    0    0  0.36250828049E+02 -0.18018426161E+02 -0.19756702228E+02  0.46142317649E+02  0.99999989782E+01 0.  0.
         12    1    1    2    0    0 -0.36250828049E+02  0.18018426161E+02  0.19756702228E+02  0.45045682351E+02  0.00000000000E+00 0. -1.
         11    1    3    3    0    0  0.54069401966E+01 -0.54462917875E+01 -0.47621399879E+01  0.90318920526E+01  0.51100000000E-03 0. -1.
        -11    1    3    3    0    0  0.27742159341E+02 -0.11728890295E+02 -0.15471517130E+02  0.33860923127E+02  0.51100000000E-03 0.  1.
         12    1    3    3    0    0  0.31017285109E+01 -0.84324407843E+00  0.47695488970E+00  0.32495024693E+01  0.00000000000E+00 0. -1.
</event>
<event>
 7    1  0.2328810E-008  0.4614232E+02  0.7816164E-02  0.1320468E+00
        -11   -1    0    0    0    0  0.00000000000E+00  0.00000000000E+00  0.45593999997E+02  0.45594000000E+02  0.51100000000E-03 0.  1.
         11   -1    0    0    0    0 -0.00000000000E+00 -0.00000000000E+00 -0.45593999997E+02  0.45594000000E+02  0.51100000000E-03 0. -1.
    9900012    2    1    2    0    0  0.15692331673E+02  0.61922433100E+01  0.41767455962E+02  0.46142317320E+02  0.99999959795E+01 0.  0.
         12    1    1    2    0    0 -0.15692331673E+02 -0.61922433100E+01 -0.41767455962E+02  0.45045682680E+02  0.00000000000E+00 0. -1.
         11    1    3    3    0    0 -0.88264613511E+00 -0.41975679577E+00  0.46439661328E+01  0.47457013888E+01  0.51100000000E-03 0. -1.
        -11    1    3    3    0    0  0.20239882739E+01  0.14608394544E+01  0.27358417871E+01  0.37034323255E+01  0.51100000000E-03 0.  1.
        -12    1    3    3    0    0  0.14550989534E+02  0.51511606514E+01  0.34387648042E+02  0.37693183606E+02  0.00000000000E+00 0.  1.
</event>
<event>
 7    1  0.2328810E-008  0.4614232E+02  0.7816164E-02  0.1320468E+00
        -11   -1    0    0    0    0  0.00000000000E+00  0.00000000000E+00  0.45593999997E+02  0.45594000000E+02  0.51100000000E-03 0.  1.
         11   -1    0    0    0    0 -0.00000000000E+00 -0.00000000000E+00 -0.45593999997E+02  0.45594000000E+02  0.51100000000E-03 0. -1.
    9900012    2    1    2    0    0 -0.30601870928E+02 -0.11715773722E+02  0.30909216734E+02  0.46142317218E+02  0.99999950450E+01 0.  0.
         12    1    1    2    0    0  0.30601870928E+02  0.11715773722E+02 -0.30909216734E+02  0.45045682782E+02  0.00000000000E+00 0. -1.
         11    1    3    3    0    0 -0.71820261431E+01 -0.37321678979E+01  0.39002462789E+01  0.89845699972E+01  0.51100000000E-03 0. -1.
        -11    1    3    3    0    0 -0.58680835216E+00 -0.55758209082E+00  0.33617412251E+01  0.34578239047E+01  0.51100000000E-03 0.  1.
         12    1    3    3    0    0 -0.22833036433E+02 -0.74260237334E+01  0.23647229230E+02  0.33699923316E+02  0.00000000000E+00 0. -1.
</event>
<event>
 7    1  0.2328810E-008  0.4614232E+02  0.7816164E-02  0.1320468E+00
        -11   -1    0    0    0    0  0.00000000000E+00  0.00000000000E+00  0.45593999997E+02  0.45594000000E+02  0.51100000000E-03 0.  1.
         11   -1    0    0    0    0 -0.00000000000E+00 -0.00000000000E+00 -0.45593999997E+02  0.45594000000E+02  0.51100000000E-03 0. -1.
    9900012    2    1    2    0    0 -0.24855924793E+02 -0.20118880676E+02  0.31725812176E+02  0.46142317463E+02  0.99999972856E+01 0.  0.
         12    1    1    2    0    0  0.24855924793E+02  0.20118880676E+02 -0.31725812176E+02  0.45045682537E+02  0.00000000000E+00 0. -1.
         11    1    3    3    0    0  0.25495405073E+00 -0.13884135889E+01  0.23503079841E+00  0.14310603059E+01  0.51100000000E-03 0. -1.
        -11    1    3    3    0    0 -0.18337983939E+02 -0.11689777828E+02  0.19192944353E+02  0.29005200806E+02  0.51100000000E-03 0.  1.
        -12    1    3    3    0    0 -0.67728949053E+01 -0.70406892597E+01  0.12297837024E+02  0.15706056352E+02  0.00000000000E+00 0.  1.
</event>
<event>
 7    1  0.2328810E-008  0.4614232E+02  0.7816164E-02  0.1320468E+00
        -11   -1    0    0    0    0  0.00000000000E+00  0.00000000000E+00  0.45593999997E+02  0.45594000000E+02  0.51100000000E-03 0.  1.
         11   -1    0    0    0    0 -0.00000000000E+00 -0.00000000000E+00 -0.45593999997E+02  0.45594000000E+02  0.51100000000E-03 0. -1.
    9900012    2    1    2    0    0  0.43478358560E+02 -0.10669870601E+02  0.49899666420E+01  0.46142316868E+02  0.99999918546E+01 0.  0.
         12    1    1    2    0    0 -0.43478358560E+02  0.10669870601E+02 -0.49899666420E+01  0.45045683132E+02  0.00000000000E+00 0. -1.
         11    1    3    3    0    0  0.32998526224E+02 -0.94858541230E+01  0.27900371533E+01  0.34448054647E+02  0.51100000000E-03 0. -1.
        -11    1    3    3    0    0  0.56863243896E+01 -0.14735626973E+01 -0.95091713522E+00  0.59506231393E+01  0.51100000000E-03 0.  1.
         12    1    3    3    0    0  0.47935079470E+01  0.28954621926E+00  0.31508466240E+01  0.57436390815E+01  0.00000000000E+00 0. -1.
</event>
<event>
 7    1  0.2328810E-008  0.4614233E+02  0.7816164E-02  0.1320468E+00
        -11   -1    0    0    0    0  0.00000000000E+00  0.00000000000E+00  0.45593999997E+02  0.45594000000E+02  0.51100000000E-03 0.  1.
         11   -1    0    0    0    0 -0.00000000000E+00 -0.00000000000E+00 -0.45593999997E+02  0.45594000000E+02  0.51100000000E-03 0. -1.
    9900012    2    1    2    0    0  0.20484989110E+02 -0.10452293593E+02  0.38732764439E+02  0.46142331382E+02  0.10000124202E+02 0.  0.
         12    1    1    2    0    0 -0.20484989110E+02  0.10452293593E+02 -0.38732764439E+02  0.45045668618E+02  0.00000000000E+00 0. -1.
         11    1    3    3    0    0  0.29250126389E+01 -0.35433569426E+01  0.28411059797E+01  0.54021255825E+01  0.51100000000E-03 0. -1.
        -11    1    3    3    0    0  0.10191327022E+02 -0.39589403229E+01  0.16572156475E+02  0.19853783656E+02  0.51100000000E-03 0.  1.
         12    1    3    3    0    0  0.73686494493E+01 -0.29499963278E+01  0.19319501984E+02  0.20886422143E+02  0.00000000000E+00 0. -1.
</event>
<event>
 7    1  0.2328810E-008  0.4614232E+02  0.7816164E-02  0.1320468E+00
        -11   -1    0    0    0    0  0.00000000000E+00  0.00000000000E+00  0.45593999997E+02  0.45594000000E+02  0.51100000000E-03 0. -1.
         11   -1    0    0    0    0 -0.00000000000E+00 -0.00000000000E+00 -0.45593999997E+02  0.45594000000E+02  0.51100000000E-03 0.  1.
    9900012    2    1    2    0    0  0.50792347276E+01 -0.35912399205E+02 -0.26713567367E+02  0.46142315151E+02  0.99999761992E+01 0.  0.
         12    1    1    2    0    0 -0.50792347276E+01  0.35912399205E+02  0.26713567367E+02  0.45045684849E+02  0.00000000000E+00 0. -1.
         11    1    3    3    0    0  0.74020227977E+00 -0.66090870663E+01 -0.92753955430E+01  0.11413189476E+02  0.51100000000E-03 0. -1.
        -11    1    3    3    0    0 -0.58867376169E+00 -0.12506926967E+02 -0.76825908912E+01  0.14689859155E+02  0.51100000000E-03 0.  1.
         12    1    3    3    0    0  0.49277062096E+01 -0.16796385172E+02 -0.97555809325E+01  0.20039266520E+02  0.00000000000E+00 0. -1.
</event>
<event>
 7    1  0.2328810E-008  0.4614232E+02  0.7816164E-02  0.1320468E+00
        -11   -1    0    0    0    0  0.00000000000E+00  0.00000000000E+00  0.45593999997E+02  0.45594000000E+02  0.51100000000E-03 0.  1.
         11   -1    0    0    0    0 -0.00000000000E+00 -0.00000000000E+00 -0.45593999997E+02  0.45594000000E+02  0.51100000000E-03 0. -1.
    9900012    2    1    2    0    0  0.10147998119E+02 -0.37720312876E+02  0.22434561850E+02  0.46142318357E+02  0.10000005435E+02 0.  0.
         12    1    1    2    0    0 -0.10147998119E+02  0.37720312876E+02 -0.22434561850E+02  0.45045681643E+02  0.00000000000E+00 0. -1.
         11    1    3    3    0    0  0.98868091114E+00 -0.25029172082E+01 -0.18988097244E+00  0.26978027245E+01  0.51100000000E-03 0. -1.
        -11    1    3    3    0    0  0.96952756161E+01 -0.25598698135E+02  0.15445170470E+02  0.31430001696E+02  0.51100000000E-03 0.  1.
         12    1    3    3    0    0 -0.53595840779E+00 -0.96186975322E+01  0.71792723522E+01  0.12014513937E+02  0.00000000000E+00 0. -1.
</event>
<event>
 7    1  0.2328810E-008  0.4614232E+02  0.7816164E-02  0.1320468E+00
        -11   -1    0    0    0    0  0.00000000000E+00  0.00000000000E+00  0.45593999997E+02  0.45594000000E+02  0.51100000000E-03 0.  1.
         11   -1    0    0    0    0 -0.00000000000E+00 -0.00000000000E+00 -0.45593999997E+02  0.45594000000E+02  0.51100000000E-03 0. -1.
    9900012    2    1    2    0    0 -0.13450285632E+01 -0.45000382064E+02  0.15066519233E+01  0.46142317768E+02  0.10000000066E+02 0.  0.
         12    1    1    2    0    0  0.13450285632E+01  0.45000382064E+02 -0.15066519233E+01  0.45045682232E+02  0.00000000000E+00 0. -1.
         11    1    3    3    0    0  0.16365590903E+01 -0.12271968785E+02  0.34674078749E+01  0.12857000473E+02  0.51100000000E-03 0. -1.
        -11    1    3    3    0    0 -0.50045608179E+00 -0.24153165805E+01 -0.14608194342E+01  0.28667410336E+01  0.51100000000E-03 0.  1.
        -12    1    3    3    0    0 -0.24811315718E+01 -0.30313096698E+02 -0.49993651748E+00  0.30418576262E+02  0.00000000000E+00 0.  1.
</event>
<event>
 7    1  0.2328810E-008  0.4614232E+02  0.7816164E-02  0.1320468E+00
        -11   -1    0    0    0    0  0.00000000000E+00  0.00000000000E+00  0.45593999997E+02  0.45594000000E+02  0.51100000000E-03 0. -1.
         11   -1    0    0    0    0 -0.00000000000E+00 -0.00000000000E+00 -0.45593999997E+02  0.45594000000E+02  0.51100000000E-03 0.  1.
    9900012    2    1    2    0    0  0.30295071058E+02 -0.32536281677E+02 -0.72603397589E+01  0.46142317752E+02  0.99999999170E+01 0.  0.
         12    1    1    2    0    0 -0.30295071058E+02  0.32536281677E+02  0.72603397589E+01  0.45045682248E+02  0.00000000000E+00 0. -1.
         11    1    3    3    0    0  0.10324817229E+02 -0.15674916584E+02 -0.28581086773E+01  0.18986143531E+02  0.51100000000E-03 0. -1.
        -11    1    3    3    0    0  0.14030081140E+02 -0.12412006772E+02 -0.42780829313E+00  0.18737238567E+02  0.51100000000E-03 0.  1.
        -12    1    3    3    0    0  0.59401726890E+01 -0.44493583210E+01 -0.39744227885E+01  0.84189356540E+01  0.00000000000E+00 0.  1.
</event>
<event>
 7    1  0.2328810E-008  0.4614232E+02  0.7816164E-02  0.1320468E+00
        -11   -1    0    0    0    0  0.00000000000E+00  0.00000000000E+00  0.45593999997E+02  0.45594000000E+02  0.51100000000E-03 0.  1.
         11   -1    0    0    0    0 -0.00000000000E+00 -0.00000000000E+00 -0.45593999997E+02  0.45594000000E+02  0.51100000000E-03 0. -1.
    9900012    2    1    2    0    0 -0.53553416314E+01 -0.26614401246E+02  0.35945896247E+02  0.46142317691E+02  0.99999993626E+01 0.  0.
         12    1    1    2    0    0  0.53553416314E+01  0.26614401246E+02 -0.35945896247E+02  0.45045682309E+02  0.00000000000E+00 0. -1.
         11    1    3    3    0    0  0.11189846650E+01 -0.50047824387E+01  0.90072146128E+01  0.10364839086E+02  0.51100000000E-03 0. -1.
        -11    1    3    3    0    0  0.99396642474E+00 -0.45303520490E+00  0.98942106165E+00  0.14738264649E+01  0.51100000000E-03 0.  1.
        -12    1    3    3    0    0 -0.74682927211E+01 -0.21156583603E+02  0.25949260572E+02  0.34303652140E+02  0.00000000000E+00 0.  1.
</event>
<event>
 7    1  0.2328810E-008  0.4614232E+02  0.7816164E-02  0.1320468E+00
        -11   -1    0    0    0    0  0.00000000000E+00  0.00000000000E+00  0.45593999997E+02  0.45594000000E+02  0.51100000000E-03 0.  1.
         11   -1    0    0    0    0 -0.00000000000E+00 -0.00000000000E+00 -0.45593999997E+02  0.45594000000E+02  0.51100000000E-03 0. -1.
    9900012    2    1    2    0    0 -0.44284893031E+02 -0.53833261168E+01  0.62435206666E+01  0.46142317620E+02  0.99999987094E+01 0.  0.
         12    1    1    2    0    0  0.44284893031E+02  0.53833261168E+01 -0.62435206666E+01  0.45045682380E+02  0.00000000000E+00 0. -1.
         11    1    3    3    0    0 -0.14805749582E+02 -0.60936565281E+01  0.26385189201E+01  0.16226664874E+02  0.51100000000E-03 0. -1.
        -11    1    3    3    0    0 -0.82976682914E+01 -0.62339521189E+00 -0.34312110048E+00  0.83281242195E+01  0.51100000000E-03 0.  1.
        -12    1    3    3    0    0 -0.21181475157E+02  0.13337256232E+01  0.39481228470E+01  0.21587528526E+02  0.00000000000E+00 0.  1.
</event>
<event>
 7    1  0.2328810E-008  0.4614232E+02  0.7816164E-02  0.1320468E+00
        -11   -1    0    0    0    0  0.00000000000E+00  0.00000000000E+00  0.45593999997E+02  0.45594000000E+02  0.51100000000E-03 0.  1.
         11   -1    0    0    0    0 -0.00000000000E+00 -0.00000000000E+00 -0.45593999997E+02  0.45594000000E+02  0.51100000000E-03 0. -1.
    9900012    2    1    2    0    0  0.22196028460E+02 -0.34056180008E+02  0.19406866005E+02  0.46142317363E+02  0.99999963704E+01 0.  0.
         12    1    1    2    0    0 -0.22196028460E+02  0.34056180008E+02 -0.19406866005E+02  0.45045682637E+02  0.00000000000E+00 0. -1.
         11    1    3    3    0    0  0.11980503037E+01 -0.46954525237E+00  0.25622451938E+01  0.28672108344E+01  0.51100000000E-03 0. -1.
        -11    1    3    3    0    0  0.86925744872E+01 -0.10003895155E+02  0.51661930816E+01  0.14224215996E+02  0.51100000000E-03 0.  1.
         12    1    3    3    0    0  0.12305403669E+02 -0.23582739600E+02  0.11678427729E+02  0.29050890532E+02  0.00000000000E+00 0. -1.
</event>
<event>
 7    1  0.2328810E-008  0.4614232E+02  0.7816164E-02  0.1320468E+00
        -11   -1    0    0    0    0  0.00000000000E+00  0.00000000000E+00  0.45593999997E+02  0.45594000000E+02  0.51100000000E-03 0.  1.
         11   -1    0    0    0    0 -0.00000000000E+00 -0.00000000000E+00 -0.45593999997E+02  0.45594000000E+02  0.51100000000E-03 0. -1.
    9900012    2    1    2    0    0 -0.23259789791E+02  0.38323023395E+02 -0.44091828737E+01  0.46142324993E+02  0.10000065942E+02 0.  0.
         12    1    1    2    0    0  0.23259789791E+02 -0.38323023395E+02  0.44091828737E+01  0.45045675007E+02  0.00000000000E+00 0. -1.
         11    1    3    3    0    0 -0.92767110437E+00  0.22379061956E+01  0.10514174477E+01  0.26408855955E+01  0.51100000000E-03 0. -1.
        -11    1    3    3    0    0 -0.96986956194E+01  0.88422960835E+01 -0.14115479347E+01  0.13200127446E+02  0.51100000000E-03 0.  1.
         12    1    3    3    0    0 -0.12633423067E+02  0.27242821116E+02 -0.40490523866E+01  0.30301311952E+02  0.00000000000E+00 0. -1.
</event>
<event>
 7    1  0.2328810E-008  0.4614232E+02  0.7816164E-02  0.1320468E+00
        -11   -1    0    0    0    0  0.00000000000E+00  0.00000000000E+00  0.45593999997E+02  0.45594000000E+02  0.51100000000E-03 0.  1.
         11   -1    0    0    0    0 -0.00000000000E+00 -0.00000000000E+00 -0.45593999997E+02  0.45594000000E+02  0.51100000000E-03 0. -1.
    9900012    2    1    2    0    0 -0.19808188331E+02 -0.87570165108E+00  0.40447278237E+02  0.46142317686E+02  0.99999993188E+01 0.  0.
         12    1    1    2    0    0  0.19808188331E+02  0.87570165108E+00 -0.40447278237E+02  0.45045682314E+02  0.00000000000E+00 0. -1.
         11    1    3    3    0    0 -0.14687637023E+02  0.16789125545E+00  0.18846395734E+02  0.23894382210E+02  0.51100000000E-03 0. -1.
        -11    1    3    3    0    0 -0.11128688056E+01  0.10556106405E+00  0.35504680642E+01  0.37222901355E+01  0.51100000000E-03 0.  1.
         12    1    3    3    0    0 -0.40076825031E+01 -0.11491539706E+01  0.18050414438E+02  0.18525645341E+02  0.00000000000E+00 0. -1.
</event>
<event>
 7    1  0.2328810E-008  0.4614232E+02  0.7816164E-02  0.1320468E+00
        -11   -1    0    0    0    0  0.00000000000E+00  0.00000000000E+00  0.45593999997E+02  0.45594000000E+02  0.51100000000E-03 0.  1.
         11   -1    0    0    0    0 -0.00000000000E+00 -0.00000000000E+00 -0.45593999997E+02  0.45594000000E+02  0.51100000000E-03 0. -1.
    9900012    2    1    2    0    0 -0.87091250328E+01  0.29881219342E+02  0.32563438245E+02  0.46142316095E+02  0.99999848055E+01 0.  0.
         12    1    1    2    0    0  0.87091250328E+01 -0.29881219342E+02 -0.32563438245E+02  0.45045683905E+02  0.00000000000E+00 0. -1.
         11    1    3    3    0    0 -0.28714435181E+01  0.54903968109E+01  0.98796753244E+01  0.11661802168E+02  0.51100000000E-03 0. -1.
        -11    1    3    3    0    0 -0.52584095309E+01  0.15052491459E+02  0.17902050591E+02  0.23973147176E+02  0.51100000000E-03 0.  1.
         12    1    3    3    0    0 -0.57927198378E+00  0.93383310720E+01  0.47817123291E+01  0.10507366751E+02  0.00000000000E+00 0. -1.
</event>
<event>
 7    1  0.2328810E-008  0.4614232E+02  0.7816164E-02  0.1320468E+00
        -11   -1    0    0    0    0  0.00000000000E+00  0.00000000000E+00  0.45593999997E+02  0.45594000000E+02  0.51100000000E-03 0.  1.
         11   -1    0    0    0    0 -0.00000000000E+00 -0.00000000000E+00 -0.45593999997E+02  0.45594000000E+02  0.51100000000E-03 0. -1.
    9900012    2    1    2    0    0 -0.29793664384E+02  0.77749247119E+01  0.32878589080E+02  0.46142317504E+02  0.99999976538E+01 0.  0.
         12    1    1    2    0    0  0.29793664384E+02 -0.77749247119E+01 -0.32878589080E+02  0.45045682496E+02  0.00000000000E+00 0. -1.
         11    1    3    3    0    0 -0.64018705095E+01  0.40875115323E+01  0.51602167849E+01  0.91825668566E+01  0.51100000000E-03 0. -1.
        -11    1    3    3    0    0 -0.22827632480E+02  0.45697262155E+01  0.25638777370E+02  0.34631345738E+02  0.51100000000E-03 0.  1.
        -12    1    3    3    0    0 -0.56416139441E+00 -0.88231303590E+00  0.20795949243E+01  0.23284049092E+01  0.00000000000E+00 0.  1.
</event>
<event>
 7    1  0.2328810E-008  0.4614232E+02  0.7816164E-02  0.1320468E+00
        -11   -1    0    0    0    0  0.00000000000E+00  0.00000000000E+00  0.45593999997E+02  0.45594000000E+02  0.51100000000E-03 0.  1.
         11   -1    0    0    0    0 -0.00000000000E+00 -0.00000000000E+00 -0.45593999997E+02  0.45594000000E+02  0.51100000000E-03 0. -1.
    9900012    2    1    2    0    0  0.33399772548E+02  0.98453526088E+01  0.28576873303E+02  0.46142318053E+02  0.10000002664E+02 0.  0.
         12    1    1    2    0    0 -0.33399772548E+02 -0.98453526088E+01 -0.28576873303E+02  0.45045681947E+02  0.00000000000E+00 0. -1.
         11    1    3    3    0    0  0.16093260918E+02  0.88545592698E+00  0.12840999609E+02  0.20607482874E+02  0.51100000000E-03 0. -1.
        -11    1    3    3    0    0  0.17237307978E+02  0.81995725104E+01  0.14105073391E+02  0.23734170963E+02  0.51100000000E-03 0.  1.
         12    1    3    3    0    0  0.69203652153E-01  0.76032417142E+00  0.16308003030E+01  0.18006642162E+01  0.00000000000E+00 0. -1.
</event>
<event>
 7    1  0.2328810E-008  0.4614232E+02  0.7816164E-02  0.1320468E+00
        -11   -1    0    0    0    0  0.00000000000E+00  0.00000000000E+00  0.45593999997E+02  0.45594000000E+02  0.51100000000E-03 0.  1.
         11   -1    0    0    0    0 -0.00000000000E+00 -0.00000000000E+00 -0.45593999997E+02  0.45594000000E+02  0.51100000000E-03 0. -1.
    9900012    2    1    2    0    0  0.25670650098E+02 -0.36303275636E+02  0.72251902653E+01  0.46142317935E+02  0.10000001581E+02 0.  0.
         12    1    1    2    0    0 -0.25670650098E+02  0.36303275636E+02 -0.72251902653E+01  0.45045682065E+02  0.00000000000E+00 0. -1.
         11    1    3    3    0    0  0.65905953044E+01 -0.86524517967E+01  0.19167794108E+00  0.10878309117E+02  0.51100000000E-03 0. -1.
        -11    1    3    3    0    0  0.15676431044E+02 -0.18979868017E+02  0.20560098265E+01  0.24702490904E+02  0.51100000000E-03 0.  1.
         12    1    3    3    0    0  0.34036237501E+01 -0.86709558228E+01  0.49775024976E+01  0.10561517913E+02  0.00000000000E+00 0. -1.
</event>
<event>
 7    1  0.2328810E-008  0.4614231E+02  0.7816164E-02  0.1320468E+00
        -11   -1    0    0    0    0  0.00000000000E+00  0.00000000000E+00  0.45593999997E+02  0.45594000000E+02  0.51100000000E-03 0.  1.
         11   -1    0    0    0    0 -0.00000000000E+00 -0.00000000000E+00 -0.45593999997E+02  0.45594000000E+02  0.51100000000E-03 0. -1.
    9900012    2    1    2    0    0  0.42738682960E+02 -0.13319252286E+02  0.50116475099E+01  0.46142310824E+02  0.99999367408E+01 0.  0.
         12    1    1    2    0    0 -0.42738682960E+02  0.13319252286E+02 -0.50116475099E+01  0.45045689176E+02  0.00000000000E+00 0. -1.
         11    1    3    3    0    0  0.35176784116E+01 -0.65029259433E+00  0.28623850085E+01  0.45815052181E+01  0.51100000000E-03 0. -1.
        -11    1    3    3    0    0  0.62767681895E+01 -0.38853418365E+01  0.96888889596E+00  0.74452969078E+01  0.51100000000E-03 0.  1.
         12    1    3    3    0    0  0.32944236359E+02 -0.87836178551E+01  0.11803736055E+01  0.34115508698E+02  0.00000000000E+00 0. -1.
</event>
<event>
 7    1  0.2328810E-008  0.4614232E+02  0.7816164E-02  0.1320468E+00
        -11   -1    0    0    0    0  0.00000000000E+00  0.00000000000E+00  0.45593999997E+02  0.45594000000E+02  0.51100000000E-03 0. -1.
         11   -1    0    0    0    0 -0.00000000000E+00 -0.00000000000E+00 -0.45593999997E+02  0.45594000000E+02  0.51100000000E-03 0.  1.
    9900012    2    1    2    0    0  0.36452654314E+02  0.26426261933E+02  0.14036307996E+01  0.46142317569E+02  0.99999982447E+01 0.  0.
         12    1    1    2    0    0 -0.36452654314E+02 -0.26426261933E+02 -0.14036307996E+01  0.45045682431E+02  0.00000000000E+00 0. -1.
         11    1    3    3    0    0  0.69596129942E+01  0.27532169484E+01  0.35712219330E-01  0.74844967912E+01  0.51100000000E-03 0. -1.
        -11    1    3    3    0    0  0.89213795033E+01  0.74284020480E+01 -0.32192395438E+01  0.12047226765E+02  0.51100000000E-03 0.  1.
        -12    1    3    3    0    0  0.20571661816E+02  0.16244642937E+02  0.45871581241E+01  0.26610594012E+02  0.00000000000E+00 0.  1.
</event>
<event>
 7    1  0.2328810E-008  0.4614232E+02  0.7816164E-02  0.1320468E+00
        -11   -1    0    0    0    0  0.00000000000E+00  0.00000000000E+00  0.45593999997E+02  0.45594000000E+02  0.51100000000E-03 0. -1.
         11   -1    0    0    0    0 -0.00000000000E+00 -0.00000000000E+00 -0.45593999997E+02  0.45594000000E+02  0.51100000000E-03 0.  1.
    9900012    2    1    2    0    0  0.43185634923E+02  0.42861028460E+01  0.12072416173E+02  0.46142323475E+02  0.10000052107E+02 0.  0.
         12    1    1    2    0    0 -0.43185634923E+02 -0.42861028460E+01 -0.12072416173E+02  0.45045676525E+02  0.00000000000E+00 0. -1.
         11    1    3    3    0    0 -0.11234202215E-01  0.39485681747E+00 -0.14193762670E+00  0.41974357004E+00  0.51100000000E-03 0. -1.
        -11    1    3    3    0    0  0.27717596360E+02  0.58080019567E+01  0.96319769799E+01  0.29912756735E+02  0.51100000000E-03 0.  1.
         12    1    3    3    0    0  0.15479272765E+02 -0.19167559281E+01  0.25823768202E+01  0.15809823170E+02  0.00000000000E+00 0. -1.
</event>
<event>
 7    1  0.2328810E-008  0.4614232E+02  0.7816164E-02  0.1320468E+00
        -11   -1    0    0    0    0  0.00000000000E+00  0.00000000000E+00  0.45593999997E+02  0.45594000000E+02  0.51100000000E-03 0.  1.
         11   -1    0    0    0    0 -0.00000000000E+00 -0.00000000000E+00 -0.45593999997E+02  0.45594000000E+02  0.51100000000E-03 0. -1.
    9900012    2    1    2    0    0 -0.10911289814E+02  0.18019481328E+02  0.39816523158E+02  0.46142317975E+02  0.10000001950E+02 0.  0.
         12    1    1    2    0    0  0.10911289814E+02 -0.18019481328E+02 -0.39816523158E+02  0.45045682025E+02  0.00000000000E+00 0. -1.
         11    1    3    3    0    0 -0.61772602042E+01  0.95211741865E+01  0.29627819201E+02  0.31727259138E+02  0.51100000000E-03 0. -1.
        -11    1    3    3    0    0 -0.98886089778E+00  0.66209969498E+00  0.24971189883E+00  0.12159679991E+01  0.51100000000E-03 0.  1.
        -12    1    3    3    0    0 -0.37451687121E+01  0.78362074467E+01  0.99389920575E+01  0.13199090838E+02  0.00000000000E+00 0.  1.
</event>
<event>
 7    1  0.2328810E-008  0.4614232E+02  0.7816164E-02  0.1320468E+00
        -11   -1    0    0    0    0  0.00000000000E+00  0.00000000000E+00  0.45593999997E+02  0.45594000000E+02  0.51100000000E-03 0.  1.
         11   -1    0    0    0    0 -0.00000000000E+00 -0.00000000000E+00 -0.45593999997E+02  0.45594000000E+02  0.51100000000E-03 0. -1.
    9900012    2    1    2    0    0 -0.34577508197E+01 -0.14899086198E+02  0.42369500147E+02  0.46142319264E+02  0.10000013706E+02 0.  0.
         12    1    1    2    0    0  0.34577508197E+01  0.14899086198E+02 -0.42369500147E+02  0.45045680736E+02  0.00000000000E+00 0. -1.
         11    1    3    3    0    0 -0.67569591258E+00 -0.16656284437E+01  0.89451714648E+01  0.91239780729E+01  0.51100000000E-03 0. -1.
        -11    1    3    3    0    0 -0.48993055508E+01 -0.11472021571E+02  0.30730220146E+02  0.33165598205E+02  0.51100000000E-03 0.  1.
         12    1    3    3    0    0  0.21172506437E+01 -0.17614361832E+01  0.26941085362E+01  0.38527429866E+01  0.00000000000E+00 0. -1.
</event>
<event>
 7    1  0.2328810E-008  0.4614232E+02  0.7816164E-02  0.1320468E+00
        -11   -1    0    0    0    0  0.00000000000E+00  0.00000000000E+00  0.45593999997E+02  0.45594000000E+02  0.51100000000E-03 0. -1.
         11   -1    0    0    0    0 -0.00000000000E+00 -0.00000000000E+00 -0.45593999997E+02  0.45594000000E+02  0.51100000000E-03 0.  1.
    9900012    2    1    2    0    0  0.16926580003E+02  0.39345727609E+02 -0.13946968525E+02  0.46142319600E+02  0.10000016767E+02 0.  0.
         12    1    1    2    0    0 -0.16926580003E+02 -0.39345727609E+02  0.13946968525E+02  0.45045680400E+02  0.00000000000E+00 0. -1.
         11    1    3    3    0    0  0.10693858425E+02  0.14486759007E+02 -0.43098825715E+01  0.18514855727E+02  0.51100000000E-03 0. -1.
        -11    1    3    3    0    0  0.57056721843E+01  0.18275966830E+02 -0.58750468609E+01  0.20027027600E+02  0.51100000000E-03 0.  1.
         12    1    3    3    0    0  0.52704939406E+00  0.65830017723E+01 -0.37620390929E+01  0.76004362726E+01  0.00000000000E+00 0. -1.
</event>
<event>
 7    1  0.2328810E-008  0.4614232E+02  0.7816164E-02  0.1320468E+00
        -11   -1    0    0    0    0  0.00000000000E+00  0.00000000000E+00  0.45593999997E+02  0.45594000000E+02  0.51100000000E-03 0. -1.
         11   -1    0    0    0    0 -0.00000000000E+00 -0.00000000000E+00 -0.45593999997E+02  0.45594000000E+02  0.51100000000E-03 0.  1.
    9900012    2    1    2    0    0 -0.28354271993E+02  0.14389856647E+02 -0.31907377518E+02  0.46142318136E+02  0.10000003419E+02 0.  0.
         12    1    1    2    0    0  0.28354271993E+02 -0.14389856647E+02  0.31907377518E+02  0.45045681864E+02  0.00000000000E+00 0. -1.
         11    1    3    3    0    0 -0.43305044370E+01 -0.39634106589E+00 -0.45284523427E+01  0.62783147261E+01  0.51100000000E-03 0. -1.
        -11    1    3    3    0    0 -0.23619319064E+02  0.13135628520E+02 -0.26819331534E+02  0.38074840956E+02  0.51100000000E-03 0.  1.
        -12    1    3    3    0    0 -0.40444849195E+00  0.16505691927E+01 -0.55959364046E+00  0.17891624535E+01  0.00000000000E+00 0.  1.
</event>
<event>
 7    1  0.2328810E-008  0.4614232E+02  0.7816164E-02  0.1320468E+00
        -11   -1    0    0    0    0  0.00000000000E+00  0.00000000000E+00  0.45593999997E+02  0.45594000000E+02  0.51100000000E-03 0.  1.
         11   -1    0    0    0    0 -0.00000000000E+00 -0.00000000000E+00 -0.45593999997E+02  0.45594000000E+02  0.51100000000E-03 0. -1.
    9900012    2    1    2    0    0  0.15584677536E+02 -0.16639769350E+02  0.38850346016E+02  0.46142317815E+02  0.10000000495E+02 0.  0.
         12    1    1    2    0    0 -0.15584677536E+02  0.16639769350E+02 -0.38850346016E+02  0.45045682185E+02  0.00000000000E+00 0. -1.
         11    1    3    3    0    0  0.49348916656E+00 -0.20207265589E+01  0.48527642957E+01  0.52797906165E+01  0.51100000000E-03 0. -1.
        -11    1    3    3    0    0  0.10797743455E+02 -0.53983223093E+01  0.22326942098E+02  0.25381597491E+02  0.51100000000E-03 0.  1.
        -12    1    3    3    0    0  0.42934449143E+01 -0.92207204813E+01  0.11670639622E+02  0.15480929708E+02  0.00000000000E+00 0.  1.
</event>
<event>
 7    1  0.2328810E-008  0.4614232E+02  0.7816164E-02  0.1320468E+00
        -11   -1    0    0    0    0  0.00000000000E+00  0.00000000000E+00  0.45593999997E+02  0.45594000000E+02  0.51100000000E-03 0.  1.
         11   -1    0    0    0    0 -0.00000000000E+00 -0.00000000000E+00 -0.45593999997E+02  0.45594000000E+02  0.51100000000E-03 0. -1.
    9900012    2    1    2    0    0  0.11513723703E+02  0.20092440514E+02  0.38637308699E+02  0.46142316269E+02  0.99999863904E+01 0.  0.
         12    1    1    2    0    0 -0.11513723703E+02 -0.20092440514E+02 -0.38637308699E+02  0.45045683731E+02  0.00000000000E+00 0. -1.
         11    1    3    3    0    0  0.26954044554E+01  0.51755731631E+01  0.65211857159E+01  0.87508643086E+01  0.51100000000E-03 0.  1.
        -11    1    3    3    0    0  0.58757141483E+01  0.10055674717E+02  0.13024981751E+02  0.17472571667E+02  0.51100000000E-03 0. -1.
        -12    1    3    3    0    0  0.29426050995E+01  0.48611926335E+01  0.19091141232E+02  0.19918880294E+02  0.00000000000E+00 0.  1.
</event>
<event>
 7    1  0.2328810E-008  0.4614232E+02  0.7816164E-02  0.1320468E+00
        -11   -1    0    0    0    0  0.00000000000E+00  0.00000000000E+00  0.45593999997E+02  0.45594000000E+02  0.51100000000E-03 0. -1.
         11   -1    0    0    0    0 -0.00000000000E+00 -0.00000000000E+00 -0.45593999997E+02  0.45594000000E+02  0.51100000000E-03 0.  1.
    9900012    2    1    2    0    0 -0.23667146048E+02  0.21145884299E+02 -0.31966094844E+02  0.46142318249E+02  0.10000004445E+02 0.  0.
         12    1    1    2    0    0  0.23667146048E+02 -0.21145884299E+02  0.31966094844E+02  0.45045681751E+02  0.00000000000E+00 0. -1.
         11    1    3    3    0    0 -0.28332520267E+01  0.38537029484E+01 -0.16639091266E+01  0.50642805317E+01  0.51100000000E-03 0. -1.
        -11    1    3    3    0    0 -0.11025605875E+01 -0.43769724570E+00 -0.16430363280E+01  0.20265210002E+01  0.51100000000E-03 0.  1.
        -12    1    3    3    0    0 -0.19731333434E+02  0.17729878597E+02 -0.28659149390E+02  0.39051516717E+02  0.00000000000E+00 0.  1.
</event>
<event>
 7    1  0.2328810E-008  0.4614232E+02  0.7816164E-02  0.1320468E+00
        -11   -1    0    0    0    0  0.00000000000E+00  0.00000000000E+00  0.45593999997E+02  0.45594000000E+02  0.51100000000E-03 0.  1.
         11   -1    0    0    0    0 -0.00000000000E+00 -0.00000000000E+00 -0.45593999997E+02  0.45594000000E+02  0.51100000000E-03 0. -1.
    9900012    2    1    2    0    0 -0.44702589597E+02  0.41627504640E+01 -0.36692553408E+01  0.46142318266E+02  0.10000004604E+02 0.  0.
         12    1    1    2    0    0  0.44702589597E+02 -0.41627504640E+01  0.36692553408E+01  0.45045681734E+02  0.00000000000E+00 0. -1.
         11    1    3    3    0    0 -0.28436727122E+01  0.14834746635E+01  0.13212418214E+01  0.34688401207E+01  0.51100000000E-03 0. -1.
        -11    1    3    3    0    0 -0.40566486534E+02  0.36131957756E+01 -0.52282934666E+01  0.41061296451E+02  0.51100000000E-03 0.  1.
        -12    1    3    3    0    0 -0.12924303513E+01 -0.93391997506E+00  0.23779630440E+00  0.16121816942E+01  0.00000000000E+00 0.  1.
</event>
<event>
 7    1  0.2328810E-008  0.4614232E+02  0.7816164E-02  0.1320468E+00
        -11   -1    0    0    0    0  0.00000000000E+00  0.00000000000E+00  0.45593999997E+02  0.45594000000E+02  0.51100000000E-03 0.  1.
         11   -1    0    0    0    0 -0.00000000000E+00 -0.00000000000E+00 -0.45593999997E+02  0.45594000000E+02  0.51100000000E-03 0. -1.
    9900012    2    1    2    0    0 -0.44355972332E+02 -0.75894733227E+01  0.20151956366E+01  0.46142318739E+02  0.10000008917E+02 0.  0.
         12    1    1    2    0    0  0.44355972332E+02  0.75894733227E+01 -0.20151956366E+01  0.45045681261E+02  0.00000000000E+00 0. -1.
         11    1    3    3    0    0 -0.35986049213E+02 -0.68188494028E+01 -0.45617661346E+00  0.36629230711E+02  0.51100000000E-03 0. -1.
        -11    1    3    3    0    0 -0.47812685864E+01 -0.64117979324E+00 -0.50303403867E+00  0.48502251832E+01  0.51100000000E-03 0.  1.
        -12    1    3    3    0    0 -0.35886545322E+01 -0.12944412668E+00  0.29744062887E+01  0.46628628442E+01  0.00000000000E+00 0.  1.
</event>
<event>
 7    1  0.2328810E-008  0.4614232E+02  0.7816164E-02  0.1320468E+00
        -11   -1    0    0    0    0  0.00000000000E+00  0.00000000000E+00  0.45593999997E+02  0.45594000000E+02  0.51100000000E-03 0.  1.
         11   -1    0    0    0    0 -0.00000000000E+00 -0.00000000000E+00 -0.45593999997E+02  0.45594000000E+02  0.51100000000E-03 0. -1.
    9900012    2    1    2    0    0 -0.22438444569E+02  0.38714088368E+02  0.51816075223E+01  0.46142317750E+02  0.99999998973E+01 0.  0.
         12    1    1    2    0    0  0.22438444569E+02 -0.38714088368E+02 -0.51816075223E+01  0.45045682250E+02  0.00000000000E+00 0. -1.
         11    1    3    3    0    0 -0.12970649262E+01  0.21836240391E+01 -0.96955518132E+00  0.27185711095E+01  0.51100000000E-03 0. -1.
        -11    1    3    3    0    0 -0.26153023759E+01  0.11789770998E+02  0.18798972797E+01  0.12221805135E+02  0.51100000000E-03 0.  1.
        -12    1    3    3    0    0 -0.18526077267E+02  0.24740693331E+02  0.42712654240E+01  0.31201941506E+02  0.00000000000E+00 0.  1.
</event>
<event>
 7    1  0.2328810E-008  0.4614232E+02  0.7816164E-02  0.1320468E+00
        -11   -1    0    0    0    0  0.00000000000E+00  0.00000000000E+00  0.45593999997E+02  0.45594000000E+02  0.51100000000E-03 0. -1.
         11   -1    0    0    0    0 -0.00000000000E+00 -0.00000000000E+00 -0.45593999997E+02  0.45594000000E+02  0.51100000000E-03 0.  1.
    9900012    2    1    2    0    0 -0.28586055379E+02 -0.29813955727E+02 -0.17974398503E+02  0.46142317412E+02  0.99999968189E+01 0.  0.
         12    1    1    2    0    0  0.28586055379E+02  0.29813955727E+02  0.17974398503E+02  0.45045682588E+02  0.00000000000E+00 0. -1.
         11    1    3    3    0    0 -0.78428088062E+01 -0.45101978891E+01 -0.34912069343E+01  0.96974254877E+01  0.51100000000E-03 0. -1.
        -11    1    3    3    0    0 -0.14821482002E+02 -0.12912963559E+02 -0.95294260639E+01  0.21845615533E+02  0.51100000000E-03 0.  1.
         12    1    3    3    0    0 -0.59217645707E+01 -0.12390794279E+02 -0.49537655044E+01  0.14599276392E+02  0.00000000000E+00 0. -1.
</event>
<event>
 7    1  0.2328810E-008  0.4614232E+02  0.7816164E-02  0.1320468E+00
        -11   -1    0    0    0    0  0.00000000000E+00  0.00000000000E+00  0.45593999997E+02  0.45594000000E+02  0.51100000000E-03 0. -1.
         11   -1    0    0    0    0 -0.00000000000E+00 -0.00000000000E+00 -0.45593999997E+02  0.45594000000E+02  0.51100000000E-03 0.  1.
    9900012    2    1    2    0    0  0.44681959189E+02  0.48234056982E+00 -0.56924014347E+01  0.46142316927E+02  0.99999923964E+01 0.  0.
         12    1    1    2    0    0 -0.44681959189E+02 -0.48234056982E+00  0.56924014347E+01  0.45045683073E+02  0.00000000000E+00 0. -1.
         11    1    3    3    0    0  0.84081248753E+01 -0.33039057646E+01 -0.77548368550E+00  0.90671788572E+01  0.51100000000E-03 0. -1.
        -11    1    3    3    0    0  0.25652559952E+01  0.14084747273E+01 -0.79348650322E+00  0.30321544272E+01  0.51100000000E-03 0.  1.
        -12    1    3    3    0    0  0.33708578318E+02  0.23777716071E+01 -0.41234312459E+01  0.34042983643E+02  0.00000000000E+00 0.  1.
</event>
<event>
 7    1  0.2328810E-008  0.4614232E+02  0.7816164E-02  0.1320468E+00
        -11   -1    0    0    0    0  0.00000000000E+00  0.00000000000E+00  0.45593999997E+02  0.45594000000E+02  0.51100000000E-03 0.  1.
         11   -1    0    0    0    0 -0.00000000000E+00 -0.00000000000E+00 -0.45593999997E+02  0.45594000000E+02  0.51100000000E-03 0. -1.
    9900012    2    1    2    0    0  0.32913375631E+02 -0.16668441206E+02  0.25845430314E+02  0.46142317679E+02  0.99999992489E+01 0.  0.
         12    1    1    2    0    0 -0.32913375631E+02  0.16668441206E+02 -0.25845430314E+02  0.45045682321E+02  0.00000000000E+00 0. -1.
         11    1    3    3    0    0  0.15308107101E+02 -0.58119032918E+01  0.80307608789E+01  0.18237584364E+02  0.51100000000E-03 0. -1.
        -11    1    3    3    0    0  0.15415527340E+02 -0.69060275281E+01  0.13105474114E+02  0.21379549841E+02  0.51100000000E-03 0.  1.
         12    1    3    3    0    0  0.21897411900E+01 -0.39505103858E+01  0.47091953215E+01  0.65251834735E+01  0.00000000000E+00 0. -1.
</event>
<event>
 7    1  0.2328810E-008  0.4614232E+02  0.7816164E-02  0.1320468E+00
        -11   -1    0    0    0    0  0.00000000000E+00  0.00000000000E+00  0.45593999997E+02  0.45594000000E+02  0.51100000000E-03 0.  1.
         11   -1    0    0    0    0 -0.00000000000E+00 -0.00000000000E+00 -0.45593999997E+02  0.45594000000E+02  0.51100000000E-03 0. -1.
    9900012    2    1    2    0    0  0.27985625244E+01 -0.22338924288E+02  0.39016074785E+02  0.46142316720E+02  0.99999905064E+01 0.  0.
         12    1    1    2    0    0 -0.27985625244E+01  0.22338924288E+02 -0.39016074785E+02  0.45045683280E+02  0.00000000000E+00 0. -1.
         11    1    3    3    0    0 -0.98497727872E+00  0.19235112876E+00  0.12153416428E+01  0.15761455409E+01  0.51100000000E-03 0. -1.
        -11    1    3    3    0    0  0.39702837531E+01 -0.74977199377E+01  0.11835002534E+02  0.14561807669E+02  0.51100000000E-03 0.  1.
        -12    1    3    3    0    0 -0.18674394996E+00 -0.15033555479E+02  0.25965730608E+02  0.30004363510E+02  0.00000000000E+00 0.  1.
</event>
<event>
 7    1  0.2328810E-008  0.4614232E+02  0.7816164E-02  0.1320468E+00
        -11   -1    0    0    0    0  0.00000000000E+00  0.00000000000E+00  0.45593999997E+02  0.45594000000E+02  0.51100000000E-03 0.  1.
         11   -1    0    0    0    0 -0.00000000000E+00 -0.00000000000E+00 -0.45593999997E+02  0.45594000000E+02  0.51100000000E-03 0. -1.
    9900012    2    1    2    0    0 -0.26796814837E+02 -0.10464333756E+02  0.34663263713E+02  0.46142318547E+02  0.10000007168E+02 0.  0.
         12    1    1    2    0    0  0.26796814837E+02  0.10464333756E+02 -0.34663263713E+02  0.45045681453E+02  0.00000000000E+00 0. -1.
         11    1    3    3    0    0 -0.18579898833E+02 -0.45721671768E+01  0.18180539508E+02  0.26394116208E+02  0.51100000000E-03 0. -1.
        -11    1    3    3    0    0 -0.14243142329E+01 -0.67694542958E+00  0.56892546911E+00  0.16764851921E+01  0.51100000000E-03 0.  1.
         12    1    3    3    0    0 -0.67926017710E+01 -0.52152211493E+01  0.15913798736E+02  0.18071717148E+02  0.00000000000E+00 0. -1.
</event>
<event>
 7    1  0.2328810E-008  0.4614232E+02  0.7816164E-02  0.1320468E+00
        -11   -1    0    0    0    0  0.00000000000E+00  0.00000000000E+00  0.45593999997E+02  0.45594000000E+02  0.51100000000E-03 0. -1.
         11   -1    0    0    0    0 -0.00000000000E+00 -0.00000000000E+00 -0.45593999997E+02  0.45594000000E+02  0.51100000000E-03 0.  1.
    9900012    2    1    2    0    0  0.24921142265E+02 -0.55223056100E+01 -0.37115419269E+02  0.46142317205E+02  0.99999949250E+01 0.  0.
         12    1    1    2    0    0 -0.24921142265E+02  0.55223056100E+01  0.37115419269E+02  0.45045682795E+02  0.00000000000E+00 0. -1.
         11    1    3    3    0    0  0.70762489244E+01 -0.19027961812E+01 -0.12999701881E+02  0.14922673400E+02  0.51100000000E-03 0. -1.
        -11    1    3    3    0    0  0.65702254693E+00 -0.23596429204E+01 -0.43797240347E+01  0.50181247713E+01  0.51100000000E-03 0.  1.
        -12    1    3    3    0    0  0.17187870793E+02 -0.12598665085E+01 -0.19735993353E+02  0.26201519033E+02  0.00000000000E+00 0.  1.
</event>
<event>
 7    1  0.2328810E-008  0.4614232E+02  0.7816164E-02  0.1320468E+00
        -11   -1    0    0    0    0  0.00000000000E+00  0.00000000000E+00  0.45593999997E+02  0.45594000000E+02  0.51100000000E-03 0. -1.
         11   -1    0    0    0    0 -0.00000000000E+00 -0.00000000000E+00 -0.45593999997E+02  0.45594000000E+02  0.51100000000E-03 0.  1.
    9900012    2    1    2    0    0  0.19051228699E+02 -0.35168293994E+02 -0.20720889649E+02  0.46142317796E+02  0.10000000319E+02 0.  0.
         12    1    1    2    0    0 -0.19051228699E+02  0.35168293994E+02  0.20720889649E+02  0.45045682204E+02  0.00000000000E+00 0. -1.
         11    1    3    3    0    0  0.50825388278E+01 -0.71995817786E+01 -0.16594680183E+01  0.89677206183E+01  0.51100000000E-03 0. -1.
        -11    1    3    3    0    0  0.20362724911E+01 -0.11978972062E+01 -0.27730720191E+01  0.36429784598E+01  0.51100000000E-03 0.  1.
         12    1    3    3    0    0  0.11932417380E+02 -0.26770815009E+02 -0.16288349612E+02  0.33531618718E+02  0.00000000000E+00 0. -1.
</event>
<event>
 7    1  0.2328810E-008  0.4614232E+02  0.7816164E-02  0.1320468E+00
        -11   -1    0    0    0    0  0.00000000000E+00  0.00000000000E+00  0.45593999997E+02  0.45594000000E+02  0.51100000000E-03 0.  1.
         11   -1    0    0    0    0 -0.00000000000E+00 -0.00000000000E+00 -0.45593999997E+02  0.45594000000E+02  0.51100000000E-03 0. -1.
    9900012    2    1    2    0    0  0.22687165363E+02 -0.26603039111E+00  0.38914460797E+02  0.46142317593E+02  0.99999984641E+01 0.  0.
         12    1    1    2    0    0 -0.22687165363E+02  0.26603039111E+00 -0.38914460797E+02  0.45045682407E+02  0.00000000000E+00 0. -1.
         11    1    3    3    0    0  0.95694668149E+00 -0.19865796124E+01  0.25076344759E+01  0.33392329110E+01  0.51100000000E-03 0. -1.
        -11    1    3    3    0    0  0.45039643101E+00  0.10980540068E+01  0.14485837470E+01  0.18726918274E+01  0.51100000000E-03 0.  1.
        -12    1    3    3    0    0  0.21279822251E+02  0.62249521452E+00  0.34958242574E+02  0.40930392854E+02  0.00000000000E+00 0.  1.
</event>
<event>
 7    1  0.2328810E-008  0.4614232E+02  0.7816164E-02  0.1320468E+00
        -11   -1    0    0    0    0  0.00000000000E+00  0.00000000000E+00  0.45593999997E+02  0.45594000000E+02  0.51100000000E-03 0.  1.
         11   -1    0    0    0    0 -0.00000000000E+00 -0.00000000000E+00 -0.45593999997E+02  0.45594000000E+02  0.51100000000E-03 0. -1.
    9900012    2    1    2    0    0  0.27726187244E+02 -0.28113053852E+02  0.21680134733E+02  0.46142317654E+02  0.99999990213E+01 0.  0.
         12    1    1    2    0    0 -0.27726187244E+02  0.28113053852E+02 -0.21680134733E+02  0.45045682346E+02  0.00000000000E+00 0. -1.
         11    1    3    3    0    0  0.19955466457E+01 -0.38964089824E+01  0.16917425176E+00  0.43809621731E+01  0.51100000000E-03 0. -1.
        -11    1    3    3    0    0  0.76518747159E+00 -0.16305175666E+01 -0.15914145679E-01  0.18012087394E+01  0.51100000000E-03 0.  1.
        -12    1    3    3    0    0  0.24965453127E+02 -0.22586127303E+02  0.21526874627E+02  0.39960146741E+02  0.00000000000E+00 0.  1.
</event>
<event>
 7    1  0.2328810E-008  0.4614232E+02  0.7816164E-02  0.1320468E+00
        -11   -1    0    0    0    0  0.00000000000E+00  0.00000000000E+00  0.45593999997E+02  0.45594000000E+02  0.51100000000E-03 0. -1.
         11   -1    0    0    0    0 -0.00000000000E+00 -0.00000000000E+00 -0.45593999997E+02  0.45594000000E+02  0.51100000000E-03 0.  1.
    9900012    2    1    2    0    0 -0.22194331551E+02  0.32504293009E+02 -0.21908812639E+02  0.46142317762E+02  0.10000000009E+02 0.  0.
         12    1    1    2    0    0  0.22194331551E+02 -0.32504293009E+02  0.21908812639E+02  0.45045682238E+02  0.00000000000E+00 0. -1.
         11    1    3    3    0    0  0.27786410181E+00  0.27327822132E+00 -0.54746077789E+00  0.67201414403E+00  0.51100000000E-03 0.  1.
        -11    1    3    3    0    0 -0.60984133189E+00  0.50210995467E+01 -0.13459259472E+01  0.52340103195E+01  0.51100000000E-03 0. -1.
        -12    1    3    3    0    0 -0.21862354321E+02  0.27209915241E+02 -0.20015425914E+02  0.40236293299E+02  0.00000000000E+00 0.  1.
</event>
<event>
 7    1  0.2328810E-008  0.4614232E+02  0.7816164E-02  0.1320468E+00
        -11   -1    0    0    0    0  0.00000000000E+00  0.00000000000E+00  0.45593999997E+02  0.45594000000E+02  0.51100000000E-03 0.  1.
         11   -1    0    0    0    0 -0.00000000000E+00 -0.00000000000E+00 -0.45593999997E+02  0.45594000000E+02  0.51100000000E-03 0. -1.
    9900012    2    1    2    0    0 -0.22916282423E+02  0.16532431751E+02  0.35080420860E+02  0.46142320658E+02  0.10000026414E+02 0.  0.
         12    1    1    2    0    0  0.22916282423E+02 -0.16532431751E+02 -0.35080420860E+02  0.45045679342E+02  0.00000000000E+00 0. -1.
         11    1    3    3    0    0 -0.13721320863E+02  0.63018518450E+01  0.17014835449E+02  0.22748463872E+02  0.51100000000E-03 0. -1.
        -11    1    3    3    0    0 -0.75332755886E+01  0.42411692765E+01  0.10707626743E+02  0.13761941311E+02  0.51100000000E-03 0.  1.
         12    1    3    3    0    0 -0.16616859710E+01  0.59894106293E+01  0.73579586682E+01  0.96319154749E+01  0.00000000000E+00 0. -1.
</event>
<event>
 7    1  0.2328810E-008  0.4614232E+02  0.7816164E-02  0.1320468E+00
        -11   -1    0    0    0    0  0.00000000000E+00  0.00000000000E+00  0.45593999997E+02  0.45594000000E+02  0.51100000000E-03 0. -1.
         11   -1    0    0    0    0 -0.00000000000E+00 -0.00000000000E+00 -0.45593999997E+02  0.45594000000E+02  0.51100000000E-03 0.  1.
    9900012    2    1    2    0    0 -0.39074976886E+02  0.11863489700E+02 -0.19013607023E+02  0.46142318092E+02  0.10000003021E+02 0.  0.
         12    1    1    2    0    0  0.39074976886E+02 -0.11863489700E+02  0.19013607023E+02  0.45045681908E+02  0.00000000000E+00 0. -1.
         11    1    3    3    0    0 -0.11434864272E+02  0.59418831114E+01 -0.21475651812E+01  0.13064231026E+02  0.51100000000E-03 0. -1.
        -11    1    3    3    0    0 -0.14349811952E+02  0.36737640491E+01 -0.10594423925E+02  0.18211410267E+02  0.51100000000E-03 0.  1.
         12    1    3    3    0    0 -0.13290300662E+02  0.22478425391E+01 -0.62716179170E+01  0.14866676800E+02  0.00000000000E+00 0. -1.
</event>
<event>
 7    1  0.2328810E-008  0.4614232E+02  0.7816164E-02  0.1320468E+00
        -11   -1    0    0    0    0  0.00000000000E+00  0.00000000000E+00  0.45593999997E+02  0.45594000000E+02  0.51100000000E-03 0.  1.
         11   -1    0    0    0    0 -0.00000000000E+00 -0.00000000000E+00 -0.45593999997E+02  0.45594000000E+02  0.51100000000E-03 0. -1.
    9900012    2    1    2    0    0 -0.24522286563E+02 -0.35614681833E+02 -0.12624002742E+02  0.46142317126E+02  0.99999942092E+01 0.  0.
         12    1    1    2    0    0  0.24522286563E+02  0.35614681833E+02  0.12624002742E+02  0.45045682874E+02  0.00000000000E+00 0. -1.
         11    1    3    3    0    0 -0.80493580000E+01 -0.10332883474E+02 -0.56736421246E+01  0.14274132559E+02  0.51100000000E-03 0. -1.
        -11    1    3    3    0    0 -0.89060178794E+01 -0.74825847957E+01 -0.40165013295E+01  0.12306035628E+02  0.51100000000E-03 0.  1.
        -12    1    3    3    0    0 -0.75669106835E+01 -0.17799213564E+02 -0.29338592876E+01  0.19562148939E+02  0.00000000000E+00 0.  1.
</event>
<event>
 7    1  0.2328810E-008  0.4614232E+02  0.7816164E-02  0.1320468E+00
        -11   -1    0    0    0    0  0.00000000000E+00  0.00000000000E+00  0.45593999997E+02  0.45594000000E+02  0.51100000000E-03 0. -1.
         11   -1    0    0    0    0 -0.00000000000E+00 -0.00000000000E+00 -0.45593999997E+02  0.45594000000E+02  0.51100000000E-03 0.  1.
    9900012    2    1    2    0    0  0.32583565394E+02 -0.31041775518E+02 -0.19576766135E+01  0.46142322529E+02  0.10000043480E+02 0.  0.
         12    1    1    2    0    0 -0.32583565394E+02  0.31041775518E+02  0.19576766135E+01  0.45045677471E+02  0.00000000000E+00 0. -1.
         11    1    3    3    0    0  0.88298038665E+01 -0.13067147914E+02  0.21961723467E+01  0.15922906900E+02  0.51100000000E-03 0. -1.
        -11    1    3    3    0    0  0.20401620760E+02 -0.16482878429E+02 -0.41233569309E+01  0.26550206847E+02  0.51100000000E-03 0.  1.
        -12    1    3    3    0    0  0.33521407671E+01 -0.14917491746E+01 -0.30492029296E-01  0.36692087821E+01  0.00000000000E+00 0.  1.
</event>
<event>
 7    1  0.2342627E-008  0.4614232E+02  0.7816164E-02  0.1320468E+00
        -11   -1    0    0    0    0  0.00000000000E+00  0.00000000000E+00  0.45593999997E+02  0.45594000000E+02  0.51100000000E-03 0.  1.
         11   -1    0    0    0    0 -0.00000000000E+00 -0.00000000000E+00 -0.45593999997E+02  0.45594000000E+02  0.51100000000E-03 0. -1.
    9900012    2    1    2    0    0 -0.34046819366E+02  0.25405793479E+02  0.14982432805E+02  0.46142317144E+02  0.99999943694E+01 0.  0.
         12    1    1    2    0    0  0.34046819366E+02 -0.25405793479E+02 -0.14982432805E+02  0.45045682856E+02  0.00000000000E+00 0. -1.
         11    1    3    3    0    0 -0.82667823667E-01 -0.53542267589E+00  0.16808075618E+00  0.56724140596E+00  0.51100000000E-03 0. -1.
        -11    1    3    3    0    0 -0.84500188441E+01  0.53251382212E+01  0.12005656208E+01  0.10059884374E+02  0.51100000000E-03 0.  1.
        -12    1    3    3    0    0 -0.25514132698E+02  0.20616077934E+02  0.13613786428E+02  0.35515191364E+02  0.00000000000E+00 0.  1.
</event>
<event>
 7    1  0.2328810E-008  0.4614232E+02  0.7816164E-02  0.1320468E+00
        -11   -1    0    0    0    0  0.00000000000E+00  0.00000000000E+00  0.45593999997E+02  0.45594000000E+02  0.51100000000E-03 0.  1.
         11   -1    0    0    0    0 -0.00000000000E+00 -0.00000000000E+00 -0.45593999997E+02  0.45594000000E+02  0.51100000000E-03 0. -1.
    9900012    2    1    2    0    0  0.64989503512E+01  0.31102235155E+02  0.31930051391E+02  0.46142316865E+02  0.99999918258E+01 0.  0.
         12    1    1    2    0    0 -0.64989503512E+01 -0.31102235155E+02 -0.31930051391E+02  0.45045683135E+02  0.00000000000E+00 0. -1.
         11    1    3    3    0    0  0.71067148416E+00  0.11224475904E+02  0.12302394581E+02  0.16668617998E+02  0.51100000000E-03 0. -1.
        -11    1    3    3    0    0  0.14278284583E+01  0.15690828163E+02  0.15830835463E+02  0.22335087514E+02  0.51100000000E-03 0.  1.
         12    1    3    3    0    0  0.43604504087E+01  0.41869310877E+01  0.37968213473E+01  0.71386113526E+01  0.00000000000E+00 0. -1.
</event>
<event>
 7    1  0.2328810E-008  0.4614232E+02  0.7816164E-02  0.1320468E+00
        -11   -1    0    0    0    0  0.00000000000E+00  0.00000000000E+00  0.45593999997E+02  0.45594000000E+02  0.51100000000E-03 0.  1.
         11   -1    0    0    0    0 -0.00000000000E+00 -0.00000000000E+00 -0.45593999997E+02  0.45594000000E+02  0.51100000000E-03 0. -1.
    9900012    2    1    2    0    0 -0.39176783073E+01 -0.44005340778E+02  0.87917708559E+01  0.46142318131E+02  0.10000003372E+02 0.  0.
         12    1    1    2    0    0  0.39176783073E+01  0.44005340778E+02 -0.87917708559E+01  0.45045681869E+02  0.00000000000E+00 0. -1.
         11    1    3    3    0    0 -0.23558182074E+01 -0.29907436849E+01 -0.32328034573E+00  0.38208556186E+01  0.51100000000E-03 0. -1.
        -11    1    3    3    0    0  0.97862902097E+00 -0.29426974448E+02  0.58684794382E+01  0.30022384833E+02  0.51100000000E-03 0.  1.
         12    1    3    3    0    0 -0.25404891209E+01 -0.11587622645E+02  0.32465717635E+01  0.12299077679E+02  0.00000000000E+00 0. -1.
</event>
<event>
 7    1  0.2328810E-008  0.4614232E+02  0.7816164E-02  0.1320468E+00
        -11   -1    0    0    0    0  0.00000000000E+00  0.00000000000E+00  0.45593999997E+02  0.45594000000E+02  0.51100000000E-03 0.  1.
         11   -1    0    0    0    0 -0.00000000000E+00 -0.00000000000E+00 -0.45593999997E+02  0.45594000000E+02  0.51100000000E-03 0. -1.
    9900012    2    1    2    0    0 -0.43393450081E+02  0.13394804454E+01  0.12013651515E+02  0.46142317183E+02  0.99999947243E+01 0.  0.
         12    1    1    2    0    0  0.43393450081E+02 -0.13394804454E+01 -0.12013651515E+02  0.45045682817E+02  0.00000000000E+00 0. -1.
         11    1    3    3    0    0 -0.21999347532E+02  0.15604120289E+01  0.52467057475E+01  0.22670114666E+02  0.51100000000E-03 0. -1.
        -11    1    3    3    0    0 -0.21422614554E+02  0.44780356002E+00  0.56328485418E+01  0.22155313704E+02  0.51100000000E-03 0.  1.
         12    1    3    3    0    0  0.28512005516E-01 -0.66873514343E+00  0.11340972253E+01  0.13168888119E+01  0.00000000000E+00 0. -1.
</event>
<event>
 7    1  0.2328810E-008  0.4614232E+02  0.7816164E-02  0.1320468E+00
        -11   -1    0    0    0    0  0.00000000000E+00  0.00000000000E+00  0.45593999997E+02  0.45594000000E+02  0.51100000000E-03 0. -1.
         11   -1    0    0    0    0 -0.00000000000E+00 -0.00000000000E+00 -0.45593999997E+02  0.45594000000E+02  0.51100000000E-03 0.  1.
    9900012    2    1    2    0    0  0.11181498157E+02  0.97535755091E+01 -0.42531816356E+02  0.46142317201E+02  0.99999948962E+01 0.  0.
         12    1    1    2    0    0 -0.11181498157E+02 -0.97535755091E+01  0.42531816356E+02  0.45045682799E+02  0.00000000000E+00 0. -1.
         11    1    3    3    0    0  0.30691674281E+01  0.25519079344E+01 -0.31534688250E+01  0.50868839871E+01  0.51100000000E-03 0. -1.
        -11    1    3    3    0    0  0.28359352674E+01  0.36805700137E+01 -0.23536997011E+02  0.23991234921E+02  0.51100000000E-03 0.  1.
         12    1    3    3    0    0  0.52763954620E+01  0.35210975610E+01 -0.15841350520E+02  0.17064198294E+02  0.00000000000E+00 0. -1.
</event>
<event>
 7    1  0.2328810E-008  0.4614232E+02  0.7816164E-02  0.1320468E+00
        -11   -1    0    0    0    0  0.00000000000E+00  0.00000000000E+00  0.45593999997E+02  0.45594000000E+02  0.51100000000E-03 0.  1.
         11   -1    0    0    0    0 -0.00000000000E+00 -0.00000000000E+00 -0.45593999997E+02  0.45594000000E+02  0.51100000000E-03 0. -1.
    9900012    2    1    2    0    0  0.35472156601E+02 -0.15295937103E+02  0.23170539580E+02  0.46142317741E+02  0.99999998180E+01 0.  0.
         12    1    1    2    0    0 -0.35472156601E+02  0.15295937103E+02 -0.23170539580E+02  0.45045682259E+02  0.00000000000E+00 0. -1.
         11    1    3    3    0    0  0.13099767341E+02 -0.81777552895E+01  0.66619217419E+01  0.16818465670E+02  0.51100000000E-03 0. -1.
        -11    1    3    3    0    0  0.22343836849E+02 -0.75624701847E+01  0.15511832887E+02  0.28232161805E+02  0.51100000000E-03 0.  1.
         12    1    3    3    0    0  0.28552410703E-01  0.44428837104E+00  0.99678495099E+00  0.10916902653E+01  0.00000000000E+00 0. -1.
</event>
<event>
 7    1  0.2328810E-008  0.4614232E+02  0.7816164E-02  0.1320468E+00
        -11   -1    0    0    0    0  0.00000000000E+00  0.00000000000E+00  0.45593999997E+02  0.45594000000E+02  0.51100000000E-03 0. -1.
         11   -1    0    0    0    0 -0.00000000000E+00 -0.00000000000E+00 -0.45593999997E+02  0.45594000000E+02  0.51100000000E-03 0.  1.
    9900012    2    1    2    0    0 -0.42536271445E+02  0.11873444597E+02 -0.88769600032E+01  0.46142317699E+02  0.99999994323E+01 0.  0.
         12    1    1    2    0    0  0.42536271445E+02 -0.11873444597E+02  0.88769600032E+01  0.45045682301E+02  0.00000000000E+00 0. -1.
         11    1    3    3    0    0 -0.27655257503E+02  0.80075483879E+01 -0.34204709423E+01  0.28993684148E+02  0.51100000000E-03 0. -1.
        -11    1    3    3    0    0 -0.10381881686E+02  0.28207238398E+01 -0.11257720362E+01  0.10816991877E+02  0.51100000000E-03 0.  1.
         12    1    3    3    0    0 -0.44991322563E+01  0.10451723693E+01 -0.43307170246E+01  0.63316416741E+01  0.00000000000E+00 0. -1.
</event>
<event>
 7    1  0.2328810E-008  0.4614232E+02  0.7816164E-02  0.1320468E+00
        -11   -1    0    0    0    0  0.00000000000E+00  0.00000000000E+00  0.45593999997E+02  0.45594000000E+02  0.51100000000E-03 0.  1.
         11   -1    0    0    0    0 -0.00000000000E+00 -0.00000000000E+00 -0.45593999997E+02  0.45594000000E+02  0.51100000000E-03 0. -1.
    9900012    2    1    2    0    0  0.11310867430E+02 -0.68672926719E+01  0.43058307852E+02  0.46142319788E+02  0.10000018484E+02 0.  0.
         12    1    1    2    0    0 -0.11310867430E+02  0.68672926719E+01 -0.43058307852E+02  0.45045680212E+02  0.00000000000E+00 0. -1.
         11    1    3    3    0    0  0.10701841562E+01  0.41845101104E+00  0.84529664828E+01  0.85307114590E+01  0.51100000000E-03 0. -1.
        -11    1    3    3    0    0 -0.78283065510E+00  0.20611404964E+00  0.40349736800E+00  0.90449832677E+00  0.51100000000E-03 0.  1.
        -12    1    3    3    0    0  0.11023513929E+02 -0.74918577326E+01  0.34201844001E+02  0.36707110002E+02  0.00000000000E+00 0.  1.
</event>
<event>
 7    1  0.2328810E-008  0.4614232E+02  0.7816164E-02  0.1320468E+00
        -11   -1    0    0    0    0  0.00000000000E+00  0.00000000000E+00  0.45593999997E+02  0.45594000000E+02  0.51100000000E-03 0.  1.
         11   -1    0    0    0    0 -0.00000000000E+00 -0.00000000000E+00 -0.45593999997E+02  0.45594000000E+02  0.51100000000E-03 0. -1.
    9900012    2    1    2    0    0 -0.26519208435E+02 -0.35025601699E+02  0.99525103919E+01  0.46142315928E+02  0.99999832852E+01 0.  0.
         12    1    1    2    0    0  0.26519208435E+02  0.35025601699E+02 -0.99525103919E+01  0.45045684072E+02  0.00000000000E+00 0. -1.
         11    1    3    3    0    0 -0.14143831005E+02 -0.20235921250E+02  0.89061842951E+01  0.26246153685E+02  0.51100000000E-03 0.  1.
        -11    1    3    3    0    0 -0.65071945378E+01 -0.50885100922E+01  0.20584876573E+01  0.85131596606E+01  0.51100000000E-03 0. -1.
        -12    1    3    3    0    0 -0.58681828919E+01 -0.97011703577E+01 -0.10121615605E+01  0.11383002582E+02  0.00000000000E+00 0.  1.
</event>
<event>
 7    1  0.2328810E-008  0.4614232E+02  0.7816164E-02  0.1320468E+00
        -11   -1    0    0    0    0  0.00000000000E+00  0.00000000000E+00  0.45593999997E+02  0.45594000000E+02  0.51100000000E-03 0. -1.
         11   -1    0    0    0    0 -0.00000000000E+00 -0.00000000000E+00 -0.45593999997E+02  0.45594000000E+02  0.51100000000E-03 0.  1.
    9900012    2    1    2    0    0  0.22606069227E+02 -0.84666726525E+01 -0.38031494150E+02  0.46142318087E+02  0.10000002975E+02 0.  0.
         12    1    1    2    0    0 -0.22606069227E+02  0.84666726525E+01  0.38031494150E+02  0.45045681913E+02  0.00000000000E+00 0. -1.
         11    1    3    3    0    0  0.51949761303E+01  0.13499907954E+01 -0.89944770816E+01  0.10474295698E+02  0.51100000000E-03 0. -1.
        -11    1    3    3    0    0  0.14371624559E+02 -0.54066991800E+01 -0.21268937199E+02  0.26232492797E+02  0.51100000000E-03 0.  1.
         12    1    3    3    0    0  0.30394685378E+01 -0.44099642680E+01 -0.77680798688E+01  0.94355295922E+01  0.00000000000E+00 0. -1.
</event>
<event>
 7    1  0.2328810E-008  0.4614232E+02  0.7816164E-02  0.1320468E+00
        -11   -1    0    0    0    0  0.00000000000E+00  0.00000000000E+00  0.45593999997E+02  0.45594000000E+02  0.51100000000E-03 0. -1.
         11   -1    0    0    0    0 -0.00000000000E+00 -0.00000000000E+00 -0.45593999997E+02  0.45594000000E+02  0.51100000000E-03 0.  1.
    9900012    2    1    2    0    0 -0.21335267244E+02 -0.36395360507E+02 -0.15789163331E+02  0.46142316816E+02  0.99999913847E+01 0.  0.
         12    1    1    2    0    0  0.21335267244E+02  0.36395360507E+02  0.15789163331E+02  0.45045683184E+02  0.00000000000E+00 0. -1.
         11    1    3    3    0    0 -0.10558264059E+01 -0.20881696507E+01 -0.33784627300E+01  0.41096511492E+01  0.51100000000E-03 0. -1.
        -11    1    3    3    0    0 -0.11069603402E+02 -0.19019813801E+02 -0.94138368160E+01  0.23935533425E+02  0.51100000000E-03 0.  1.
         12    1    3    3    0    0 -0.92098374368E+01 -0.15287377055E+02 -0.29968637849E+01  0.18097132242E+02  0.00000000000E+00 0. -1.
</event>
<event>
 7    1  0.2328810E-008  0.4614232E+02  0.7816164E-02  0.1320468E+00
        -11   -1    0    0    0    0  0.00000000000E+00  0.00000000000E+00  0.45593999997E+02  0.45594000000E+02  0.51100000000E-03 0.  1.
         11   -1    0    0    0    0 -0.00000000000E+00 -0.00000000000E+00 -0.45593999997E+02  0.45594000000E+02  0.51100000000E-03 0. -1.
    9900012    2    1    2    0    0 -0.26938702726E+01  0.29997482871E+02  0.33496381084E+02  0.46142318061E+02  0.10000002732E+02 0.  0.
         12    1    1    2    0    0  0.26938702726E+01 -0.29997482871E+02 -0.33496381084E+02  0.45045681939E+02  0.00000000000E+00 0. -1.
         11    1    3    3    0    0 -0.34925406343E+01  0.17641346905E+02  0.16236931209E+02  0.24229174481E+02  0.51100000000E-03 0.  1.
        -11    1    3    3    0    0 -0.52370095234E+00  0.25154256109E+01  0.80055801433E+00  0.26911934317E+01  0.51100000000E-03 0. -1.
        -12    1    3    3    0    0  0.13223713141E+01  0.98407103549E+01  0.16458891861E+02  0.19221950147E+02  0.00000000000E+00 0.  1.
</event>
<event>
 7    1  0.2328810E-008  0.4614232E+02  0.7816164E-02  0.1320468E+00
        -11   -1    0    0    0    0  0.00000000000E+00  0.00000000000E+00  0.45593999997E+02  0.45594000000E+02  0.51100000000E-03 0.  1.
         11   -1    0    0    0    0 -0.00000000000E+00 -0.00000000000E+00 -0.45593999997E+02  0.45594000000E+02  0.51100000000E-03 0. -1.
    9900012    2    1    2    0    0 -0.17171603733E+02  0.28682302339E+02  0.30192301447E+02  0.46142317533E+02  0.99999979212E+01 0.  0.
         12    1    1    2    0    0  0.17171603733E+02 -0.28682302339E+02 -0.30192301447E+02  0.45045682467E+02  0.00000000000E+00 0. -1.
         11    1    3    3    0    0 -0.13681906478E+01  0.47175225743E+01  0.18928626259E+01  0.52640188136E+01  0.51100000000E-03 0. -1.
        -11    1    3    3    0    0 -0.15455528588E+02  0.23880394964E+02  0.25956801735E+02  0.38508468993E+02  0.51100000000E-03 0.  1.
        -12    1    3    3    0    0 -0.34788449810E+00  0.84384800241E-01  0.23426370859E+01  0.23698297270E+01  0.00000000000E+00 0.  1.
</event>
<event>
 7    1  0.2328810E-008  0.4614232E+02  0.7816164E-02  0.1320468E+00
        -11   -1    0    0    0    0  0.00000000000E+00  0.00000000000E+00  0.45593999997E+02  0.45594000000E+02  0.51100000000E-03 0. -1.
         11   -1    0    0    0    0 -0.00000000000E+00 -0.00000000000E+00 -0.45593999997E+02  0.45594000000E+02  0.51100000000E-03 0.  1.
    9900012    2    1    2    0    0 -0.30240574626E+02 -0.15556676355E+02  0.29539990561E+02  0.46142316796E+02  0.99999912026E+01 0.  0.
         12    1    1    2    0    0  0.30240574626E+02  0.15556676355E+02 -0.29539990561E+02  0.45045683204E+02  0.00000000000E+00 0. -1.
         11    1    3    3    0    0 -0.15037051745E+02 -0.89551534516E+01  0.12600117680E+02  0.21565497080E+02  0.51100000000E-03 0. -1.
        -11    1    3    3    0    0 -0.10671530330E+02 -0.17732192190E+01  0.80148197490E+01  0.13463402313E+02  0.51100000000E-03 0.  1.
         12    1    3    3    0    0 -0.45319925519E+01 -0.48283036843E+01  0.89250531322E+01  0.11113417403E+02  0.00000000000E+00 0. -1.
</event>
<event>
 7    1  0.2328810E-008  0.4614232E+02  0.7816164E-02  0.1320468E+00
        -11   -1    0    0    0    0  0.00000000000E+00  0.00000000000E+00  0.45593999997E+02  0.45594000000E+02  0.51100000000E-03 0.  1.
         11   -1    0    0    0    0 -0.00000000000E+00 -0.00000000000E+00 -0.45593999997E+02  0.45594000000E+02  0.51100000000E-03 0. -1.
    9900012    2    1    2    0    0  0.90426155575E+01  0.11210698924E+01  0.44114484616E+02  0.46142318223E+02  0.10000004209E+02 0.  0.
         12    1    1    2    0    0 -0.90426155575E+01 -0.11210698924E+01 -0.44114484616E+02  0.45045681777E+02  0.00000000000E+00 0. -1.
         11    1    3    3    0    0  0.70523819959E+01 -0.16827720851E+01  0.14660695678E+02  0.16355543761E+02  0.51100000000E-03 0. -1.
        -11    1    3    3    0    0 -0.71399372733E+00  0.73182521834E+00  0.77743011151E+01  0.78412443708E+01  0.51100000000E-03 0.  1.
        -12    1    3    3    0    0  0.27042272890E+01  0.20720167591E+01  0.21679487823E+02  0.21945530091E+02  0.00000000000E+00 0.  1.
</event>
<event>
 7    1  0.2328810E-008  0.4614232E+02  0.7816164E-02  0.1320468E+00
        -11   -1    0    0    0    0  0.00000000000E+00  0.00000000000E+00  0.45593999997E+02  0.45594000000E+02  0.51100000000E-03 0. -1.
         11   -1    0    0    0    0 -0.00000000000E+00 -0.00000000000E+00 -0.45593999997E+02  0.45594000000E+02  0.51100000000E-03 0.  1.
    9900012    2    1    2    0    0 -0.65906036158E+01  0.42843873678E+02  0.12250686311E+02  0.46142324482E+02  0.10000061289E+02 0.  0.
         12    1    1    2    0    0  0.65906036158E+01 -0.42843873678E+02 -0.12250686311E+02  0.45045675518E+02  0.00000000000E+00 0. -1.
         11    1    3    3    0    0  0.86796483821E+00  0.68391013305E+01  0.49719668567E+01  0.84998308604E+01  0.51100000000E-03 0. -1.
        -11    1    3    3    0    0 -0.14845673183E+00  0.12821102195E+00 -0.19186716597E+00  0.27439157763E+00  0.51100000000E-03 0.  1.
        -12    1    3    3    0    0 -0.73101117222E+01  0.35876561326E+02  0.74705866201E+01  0.37368102044E+02  0.00000000000E+00 0.  1.
</event>
<event>
 7    1  0.2328810E-008  0.4614231E+02  0.7816164E-02  0.1320468E+00
        -11   -1    0    0    0    0  0.00000000000E+00  0.00000000000E+00  0.45593999997E+02  0.45594000000E+02  0.51100000000E-03 0. -1.
         11   -1    0    0    0    0 -0.00000000000E+00 -0.00000000000E+00 -0.45593999997E+02  0.45594000000E+02  0.51100000000E-03 0.  1.
    9900012    2    1    2    0    0  0.28724138566E+02  0.33736297821E+02  0.81179174579E+01  0.46142306412E+02  0.99998965075E+01 0.  0.
         12    1    1    2    0    0 -0.28724138566E+02 -0.33736297821E+02 -0.81179174579E+01  0.45045693588E+02  0.00000000000E+00 0. -1.
         11    1    3    3    0    0  0.45632404368E+01  0.34524788770E+01 -0.27727559347E+00  0.57288441850E+01  0.51100000000E-03 0. -1.
        -11    1    3    3    0    0  0.10153811245E+02  0.73640757153E+01  0.11691210023E+01  0.12597473481E+02  0.51100000000E-03 0.  1.
        -12    1    3    3    0    0  0.14007086885E+02  0.22919743228E+02  0.72260720491E+01  0.27815988746E+02  0.00000000000E+00 0.  1.
</event>
<event>
 7    1  0.2328810E-008  0.4614232E+02  0.7816164E-02  0.1320468E+00
        -11   -1    0    0    0    0  0.00000000000E+00  0.00000000000E+00  0.45593999997E+02  0.45594000000E+02  0.51100000000E-03 0.  1.
         11   -1    0    0    0    0 -0.00000000000E+00 -0.00000000000E+00 -0.45593999997E+02  0.45594000000E+02  0.51100000000E-03 0. -1.
    9900012    2    1    2    0    0  0.24961241668E+02  0.21525016827E+02  0.30703804906E+02  0.46142316847E+02  0.99999916646E+01 0.  0.
         12    1    1    2    0    0 -0.24961241668E+02 -0.21525016827E+02 -0.30703804906E+02  0.45045683153E+02  0.00000000000E+00 0. -1.
         11    1    3    3    0    0 -0.16135667094E+00  0.10769454080E+01 -0.42436766641E+00  0.11687324606E+01  0.51100000000E-03 0. -1.
        -11    1    3    3    0    0  0.69878658521E+01  0.69244442082E+01  0.95482578614E+01  0.13709391861E+02  0.51100000000E-03 0.  1.
         12    1    3    3    0    0  0.18134732487E+02  0.13523627210E+02  0.21579914711E+02  0.31264192525E+02  0.00000000000E+00 0. -1.
</event>
<event>
 7    1  0.2328810E-008  0.4614232E+02  0.7816164E-02  0.1320468E+00
        -11   -1    0    0    0    0  0.00000000000E+00  0.00000000000E+00  0.45593999997E+02  0.45594000000E+02  0.51100000000E-03 0.  1.
         11   -1    0    0    0    0 -0.00000000000E+00 -0.00000000000E+00 -0.45593999997E+02  0.45594000000E+02  0.51100000000E-03 0. -1.
    9900012    2    1    2    0    0  0.27821587667E+02 -0.25994617172E+01  0.35331508099E+02  0.46142318674E+02  0.10000008328E+02 0.  0.
         12    1    1    2    0    0 -0.27821587667E+02  0.25994617172E+01 -0.35331508099E+02  0.45045681326E+02  0.00000000000E+00 0. -1.
         11    1    3    3    0    0  0.68387416001E+01 -0.21359359251E+00  0.51002722669E+01  0.85338611632E+01  0.51100000000E-03 0. -1.
        -11    1    3    3    0    0  0.89173755850E+01  0.83574316380E+00  0.18116650217E+02  0.20209677615E+02  0.51100000000E-03 0.  1.
         12    1    3    3    0    0  0.12065470482E+02 -0.32216112885E+01  0.12114585616E+02  0.17398779896E+02  0.00000000000E+00 0. -1.
</event>
<event>
 7    1  0.2328810E-008  0.4614232E+02  0.7816164E-02  0.1320468E+00
        -11   -1    0    0    0    0  0.00000000000E+00  0.00000000000E+00  0.45593999997E+02  0.45594000000E+02  0.51100000000E-03 0.  1.
         11   -1    0    0    0    0 -0.00000000000E+00 -0.00000000000E+00 -0.45593999997E+02  0.45594000000E+02  0.51100000000E-03 0. -1.
    9900012    2    1    2    0    0  0.19259813417E+02 -0.26362371892E+02  0.31035430048E+02  0.46142323371E+02  0.10000051157E+02 0.  0.
         12    1    1    2    0    0 -0.19259813417E+02  0.26362371892E+02 -0.31035430048E+02  0.45045676629E+02  0.00000000000E+00 0. -1.
         11    1    3    3    0    0  0.66113893661E+01 -0.45539489911E+01  0.65272741391E+01  0.10346701345E+02  0.51100000000E-03 0. -1.
        -11    1    3    3    0    0  0.95856789173E+01 -0.11036662811E+02  0.11284118466E+02  0.18466848571E+02  0.51100000000E-03 0.  1.
         12    1    3    3    0    0  0.30627451338E+01 -0.10771760090E+02  0.13224037443E+02  0.17328773456E+02  0.00000000000E+00 0. -1.
</event>
<event>
 7    1  0.2328810E-008  0.4614232E+02  0.7816164E-02  0.1320468E+00
        -11   -1    0    0    0    0  0.00000000000E+00  0.00000000000E+00  0.45593999997E+02  0.45594000000E+02  0.51100000000E-03 0.  1.
         11   -1    0    0    0    0 -0.00000000000E+00 -0.00000000000E+00 -0.45593999997E+02  0.45594000000E+02  0.51100000000E-03 0. -1.
    9900012    2    1    2    0    0  0.31252068753E+02  0.21157100055E+02  0.24592657998E+02  0.46142317505E+02  0.99999976624E+01 0.  0.
         12    1    1    2    0    0 -0.31252068753E+02 -0.21157100055E+02 -0.24592657998E+02  0.45045682495E+02  0.00000000000E+00 0. -1.
         11    1    3    3    0    0  0.17370284753E+02  0.13167158836E+02  0.16829420174E+02  0.27537796714E+02  0.51100000000E-03 0.  1.
        -11    1    3    3    0    0  0.12646483230E+02  0.50559911240E+01  0.70744540736E+01  0.15347458585E+02  0.51100000000E-03 0. -1.
        -12    1    3    3    0    0  0.12353007698E+01  0.29339500951E+01  0.68878374949E+00  0.32570622048E+01  0.00000000000E+00 0.  1.
</event>
<event>
 7    1  0.2328810E-008  0.4614232E+02  0.7816164E-02  0.1320468E+00
        -11   -1    0    0    0    0  0.00000000000E+00  0.00000000000E+00  0.45593999997E+02  0.45594000000E+02  0.51100000000E-03 0. -1.
         11   -1    0    0    0    0 -0.00000000000E+00 -0.00000000000E+00 -0.45593999997E+02  0.45594000000E+02  0.51100000000E-03 0.  1.
    9900012    2    1    2    0    0  0.12439547039E+02  0.66008666263E+01 -0.42787845599E+02  0.46142317613E+02  0.99999986462E+01 0.  0.
         12    1    1    2    0    0 -0.12439547039E+02 -0.66008666263E+01  0.42787845599E+02  0.45045682387E+02  0.00000000000E+00 0. -1.
         11    1    3    3    0    0  0.64200265371E+01  0.68736083121E+01 -0.23571251096E+02  0.25378477307E+02  0.51100000000E-03 0. -1.
        -11    1    3    3    0    0  0.46183326988E+01  0.11999182121E+01 -0.76221324627E+01  0.89925360257E+01  0.51100000000E-03 0.  1.
         12    1    3    3    0    0  0.14011878028E+01 -0.14726598979E+01 -0.11594462041E+02  0.11771304280E+02  0.00000000000E+00 0. -1.
</event>
<event>
 7    1  0.2328810E-008  0.4614232E+02  0.7816164E-02  0.1320468E+00
        -11   -1    0    0    0    0  0.00000000000E+00  0.00000000000E+00  0.45593999997E+02  0.45594000000E+02  0.51100000000E-03 0.  1.
         11   -1    0    0    0    0 -0.00000000000E+00 -0.00000000000E+00 -0.45593999997E+02  0.45594000000E+02  0.51100000000E-03 0. -1.
    9900012    2    1    2    0    0 -0.11378737033E+02  0.21044744861E+02  0.38167480091E+02  0.46142317862E+02  0.10000000924E+02 0.  0.
         12    1    1    2    0    0  0.11378737033E+02 -0.21044744861E+02 -0.38167480091E+02  0.45045682138E+02  0.00000000000E+00 0. -1.
         11    1    3    3    0    0 -0.40695890936E+00  0.10796615576E+02  0.15863025114E+02  0.19192917691E+02  0.51100000000E-03 0. -1.
        -11    1    3    3    0    0 -0.15734543773E+01  0.68818998437E+00  0.26794276497E+01  0.31825613778E+01  0.51100000000E-03 0.  1.
         12    1    3    3    0    0 -0.93983237460E+01  0.95599393013E+01  0.19625027327E+02  0.23766838794E+02  0.00000000000E+00 0. -1.
</event>
<event>
 7    1  0.2328810E-008  0.4614232E+02  0.7816164E-02  0.1320468E+00
        -11   -1    0    0    0    0  0.00000000000E+00  0.00000000000E+00  0.45593999997E+02  0.45594000000E+02  0.51100000000E-03 0.  1.
         11   -1    0    0    0    0 -0.00000000000E+00 -0.00000000000E+00 -0.45593999997E+02  0.45594000000E+02  0.51100000000E-03 0. -1.
    9900012    2    1    2    0    0  0.40000491555E+01 -0.23634005592E+01  0.44805439421E+02  0.46142318108E+02  0.10000003163E+02 0.  0.
         12    1    1    2    0    0 -0.40000491555E+01  0.23634005592E+01 -0.44805439421E+02  0.45045681892E+02  0.00000000000E+00 0. -1.
         11    1    3    3    0    0  0.27945463263E+01  0.10539031575E+01  0.83216064418E+01  0.88413423793E+01  0.51100000000E-03 0. -1.
        -11    1    3    3    0    0  0.14844673205E+01  0.11067504105E+01  0.23026145046E+02  0.23100473927E+02  0.51100000000E-03 0.  1.
        -12    1    3    3    0    0 -0.27896449129E+00 -0.45240541272E+01  0.13457687932E+02  0.14200501802E+02  0.00000000000E+00 0.  1.
</event>
<event>
 7    1  0.2328810E-008  0.4614232E+02  0.7816164E-02  0.1320468E+00
        -11   -1    0    0    0    0  0.00000000000E+00  0.00000000000E+00  0.45593999997E+02  0.45594000000E+02  0.51100000000E-03 0.  1.
         11   -1    0    0    0    0 -0.00000000000E+00 -0.00000000000E+00 -0.45593999997E+02  0.45594000000E+02  0.51100000000E-03 0. -1.
    9900012    2    1    2    0    0 -0.32872281365E+02 -0.42991587487E+01  0.30496619064E+02  0.46142318493E+02  0.10000006676E+02 0.  0.
         12    1    1    2    0    0  0.32872281365E+02  0.42991587487E+01 -0.30496619064E+02  0.45045681507E+02  0.00000000000E+00 0. -1.
         11    1    3    3    0    0 -0.19792678134E+02 -0.23130073452E+01  0.21743300701E+02  0.29493579578E+02  0.51100000000E-03 0. -1.
        -11    1    3    3    0    0 -0.51063242882E+01 -0.80845104987E+00  0.64501110539E+01  0.82663216551E+01  0.51100000000E-03 0.  1.
         12    1    3    3    0    0 -0.79732789419E+01 -0.11777003537E+01  0.23032073096E+01  0.83824172599E+01  0.00000000000E+00 0. -1.
</event>
<event>
 7    1  0.2328810E-008  0.4614232E+02  0.7816164E-02  0.1320468E+00
        -11   -1    0    0    0    0  0.00000000000E+00  0.00000000000E+00  0.45593999997E+02  0.45594000000E+02  0.51100000000E-03 0.  1.
         11   -1    0    0    0    0 -0.00000000000E+00 -0.00000000000E+00 -0.45593999997E+02  0.45594000000E+02  0.51100000000E-03 0. -1.
    9900012    2    1    2    0    0 -0.40122686776E+02 -0.20465908179E+02 -0.65595531055E+00  0.46142315756E+02  0.99999817122E+01 0.  0.
         12    1    1    2    0    0  0.40122686776E+02  0.20465908179E+02  0.65595531055E+00  0.45045684244E+02  0.00000000000E+00 0. -1.
         11    1    3    3    0    0 -0.56838482293E+01 -0.23480953004E+01 -0.26373418484E+01  0.66914314253E+01  0.51100000000E-03 0. -1.
        -11    1    3    3    0    0 -0.29944332926E+02 -0.13832354736E+02  0.18193949940E+00  0.32985303003E+02  0.51100000000E-03 0.  1.
         12    1    3    3    0    0 -0.44945056202E+01 -0.42854581425E+01  0.17994470384E+01  0.64655813277E+01  0.00000000000E+00 0. -1.
</event>
<event>
 7    1  0.2328810E-008  0.4614232E+02  0.7816164E-02  0.1320468E+00
        -11   -1    0    0    0    0  0.00000000000E+00  0.00000000000E+00  0.45593999997E+02  0.45594000000E+02  0.51100000000E-03 0.  1.
         11   -1    0    0    0    0 -0.00000000000E+00 -0.00000000000E+00 -0.45593999997E+02  0.45594000000E+02  0.51100000000E-03 0. -1.
    9900012    2    1    2    0    0  0.59943600566E+01  0.27578774087E+02 -0.35108294376E+02  0.46142318003E+02  0.10000002202E+02 0.  0.
         12    1    1    2    0    0 -0.59943600566E+01 -0.27578774087E+02  0.35108294376E+02  0.45045681997E+02  0.00000000000E+00 0. -1.
         11    1    3    3    0    0  0.19405034766E+01  0.17720727527E+01 -0.63134093523E+01  0.68384891236E+01  0.51100000000E-03 0. -1.
        -11    1    3    3    0    0  0.44943882491E+01  0.16622781061E+02 -0.21630152223E+02  0.27647420520E+02  0.51100000000E-03 0.  1.
         12    1    3    3    0    0 -0.44053166908E+00  0.91839202728E+01 -0.71647328008E+01  0.11656408359E+02  0.00000000000E+00 0. -1.
</event>
<event>
 7    1  0.2328810E-008  0.4614231E+02  0.7816164E-02  0.1320468E+00
        -11   -1    0    0    0    0  0.00000000000E+00  0.00000000000E+00  0.45593999997E+02  0.45594000000E+02  0.51100000000E-03 0. -1.
         11   -1    0    0    0    0 -0.00000000000E+00 -0.00000000000E+00 -0.45593999997E+02  0.45594000000E+02  0.51100000000E-03 0.  1.
    9900012    2    1    2    0    0  0.24015533702E+02 -0.16074897086E+00 -0.38109605987E+02  0.46142314660E+02  0.99999717233E+01 0.  0.
         12    1    1    2    0    0 -0.24015533702E+02  0.16074897086E+00  0.38109605987E+02  0.45045685340E+02  0.00000000000E+00 0. -1.
         11    1    3    3    0    0  0.38865098587E+01  0.25499808061E+01 -0.36355782464E+01  0.59012532940E+01  0.51100000000E-03 0. -1.
        -11    1    3    3    0    0  0.19221580314E+02 -0.23269553896E+01 -0.30343170197E+02  0.35994330789E+02  0.51100000000E-03 0.  1.
         12    1    3    3    0    0  0.90744352969E+00 -0.38377438736E+00 -0.41308575444E+01  0.42467305768E+01  0.00000000000E+00 0. -1.
</event>
<event>
 7    1  0.2328810E-008  0.4614232E+02  0.7816164E-02  0.1320468E+00
        -11   -1    0    0    0    0  0.00000000000E+00  0.00000000000E+00  0.45593999997E+02  0.45594000000E+02  0.51100000000E-03 0. -1.
         11   -1    0    0    0    0 -0.00000000000E+00 -0.00000000000E+00 -0.45593999997E+02  0.45594000000E+02  0.51100000000E-03 0.  1.
    9900012    2    1    2    0    0 -0.41955313813E+01 -0.43680991429E+02 -0.10172607762E+02  0.46142318248E+02  0.10000004440E+02 0.  0.
         12    1    1    2    0    0  0.41955313813E+01  0.43680991429E+02  0.10172607762E+02  0.45045681752E+02  0.00000000000E+00 0. -1.
         11    1    3    3    0    0 -0.36195089561E+01 -0.24615057126E+02 -0.24072962929E+01  0.24995938832E+02  0.51100000000E-03 0. -1.
        -11    1    3    3    0    0  0.78724667143E+00 -0.45844113020E+01  0.13309135985E-01  0.46515332636E+01  0.51100000000E-03 0.  1.
         12    1    3    3    0    0 -0.13632690966E+01 -0.14481523002E+02 -0.77786206054E+01  0.16494846153E+02  0.00000000000E+00 0. -1.
</event>
<event>
 7    1  0.2328810E-008  0.4614232E+02  0.7816164E-02  0.1320468E+00
        -11   -1    0    0    0    0  0.00000000000E+00  0.00000000000E+00  0.45593999997E+02  0.45594000000E+02  0.51100000000E-03 0. -1.
         11   -1    0    0    0    0 -0.00000000000E+00 -0.00000000000E+00 -0.45593999997E+02  0.45594000000E+02  0.51100000000E-03 0.  1.
    9900012    2    1    2    0    0 -0.18367930638E+02  0.38592771803E+02  0.14224295727E+02  0.46142317629E+02  0.99999987949E+01 0.  0.
         12    1    1    2    0    0  0.18367930638E+02 -0.38592771803E+02 -0.14224295727E+02  0.45045682371E+02  0.00000000000E+00 0. -1.
         11    1    3    3    0    0 -0.13278777427E+02  0.20386742913E+02  0.98751594213E+01  0.26257646323E+02  0.51100000000E-03 0. -1.
        -11    1    3    3    0    0 -0.42391673625E+01  0.71353303723E+01  0.19184101081E+01  0.85184374772E+01  0.51100000000E-03 0.  1.
         12    1    3    3    0    0 -0.84998584862E+00  0.11070698518E+02  0.24307261976E+01  0.11366233829E+02  0.00000000000E+00 0. -1.
</event>
<event>
 7    1  0.2328810E-008  0.4614232E+02  0.7816164E-02  0.1320468E+00
        -11   -1    0    0    0    0  0.00000000000E+00  0.00000000000E+00  0.45593999997E+02  0.45594000000E+02  0.51100000000E-03 0.  1.
         11   -1    0    0    0    0 -0.00000000000E+00 -0.00000000000E+00 -0.45593999997E+02  0.45594000000E+02  0.51100000000E-03 0. -1.
    9900012    2    1    2    0    0  0.13987884102E+02  0.40065044970E+02  0.15107769811E+02  0.46142318312E+02  0.10000005024E+02 0.  0.
         12    1    1    2    0    0 -0.13987884102E+02 -0.40065044970E+02 -0.15107769811E+02  0.45045681688E+02  0.00000000000E+00 0. -1.
         11    1    3    3    0    0  0.37832430674E+00 -0.19679573039E+00 -0.14531261036E+00  0.45052619948E+00  0.51100000000E-03 0. -1.
        -11    1    3    3    0    0  0.12802182204E+02  0.28332808424E+02  0.11688281837E+02  0.33215355408E+02  0.51100000000E-03 0.  1.
        -12    1    3    3    0    0  0.80737759149E+00  0.11929032276E+02  0.35648005850E+01  0.12476436704E+02  0.00000000000E+00 0.  1.
</event>
<event>
 7    1  0.2328810E-008  0.4614232E+02  0.7816164E-02  0.1320468E+00
        -11   -1    0    0    0    0  0.00000000000E+00  0.00000000000E+00  0.45593999997E+02  0.45594000000E+02  0.51100000000E-03 0. -1.
         11   -1    0    0    0    0 -0.00000000000E+00 -0.00000000000E+00 -0.45593999997E+02  0.45594000000E+02  0.51100000000E-03 0.  1.
    9900012    2    1    2    0    0 -0.11005210474E+02 -0.42919604791E+02  0.81182817042E+01  0.46142316180E+02  0.99999855834E+01 0.  0.
         12    1    1    2    0    0  0.11005210474E+02  0.42919604791E+02 -0.81182817042E+01  0.45045683820E+02  0.00000000000E+00 0. -1.
         11    1    3    3    0    0 -0.11476199975E+01 -0.91126695170E+01  0.54664365917E+00  0.92009019632E+01  0.51100000000E-03 0. -1.
        -11    1    3    3    0    0 -0.76152466924E+01 -0.30104896894E+02  0.39606079525E+01  0.31304683592E+02  0.51100000000E-03 0.  1.
         12    1    3    3    0    0 -0.22423437837E+01 -0.37020383802E+01  0.36110300925E+01  0.56367306253E+01  0.00000000000E+00 0. -1.
</event>
<event>
 7    1  0.2328810E-008  0.4614232E+02  0.7816164E-02  0.1320468E+00
        -11   -1    0    0    0    0  0.00000000000E+00  0.00000000000E+00  0.45593999997E+02  0.45594000000E+02  0.51100000000E-03 0.  1.
         11   -1    0    0    0    0 -0.00000000000E+00 -0.00000000000E+00 -0.45593999997E+02  0.45594000000E+02  0.51100000000E-03 0. -1.
    9900012    2    1    2    0    0 -0.13206780346E+02  0.36636716417E+02  0.22637258427E+02  0.46142317565E+02  0.99999982134E+01 0.  0.
         12    1    1    2    0    0  0.13206780346E+02 -0.36636716417E+02 -0.22637258427E+02  0.45045682435E+02  0.00000000000E+00 0. -1.
         11    1    3    3    0    0  0.10666899038E+00  0.23049729574E+01  0.75258365442E+00  0.24270684016E+01  0.51100000000E-03 0. -1.
        -11    1    3    3    0    0 -0.72394148010E+01  0.23970942137E+02  0.18809136661E+02  0.31317707703E+02  0.51100000000E-03 0.  1.
        -12    1    3    3    0    0 -0.60740345357E+01  0.10360801322E+02  0.30755381118E+01  0.12397541460E+02  0.00000000000E+00 0.  1.
</event>
<event>
 7    1  0.2328810E-008  0.4614232E+02  0.7816164E-02  0.1320468E+00
        -11   -1    0    0    0    0  0.00000000000E+00  0.00000000000E+00  0.45593999997E+02  0.45594000000E+02  0.51100000000E-03 0.  1.
         11   -1    0    0    0    0 -0.00000000000E+00 -0.00000000000E+00 -0.45593999997E+02  0.45594000000E+02  0.51100000000E-03 0. -1.
    9900012    2    1    2    0    0  0.35766680583E+02 -0.22163863825E+02  0.16081700636E+02  0.46142318799E+02  0.10000009460E+02 0.  0.
         12    1    1    2    0    0 -0.35766680583E+02  0.22163863825E+02 -0.16081700636E+02  0.45045681201E+02  0.00000000000E+00 0. -1.
         11    1    3    3    0    0  0.62096926304E+01 -0.51272683685E+01  0.61386377951E-01  0.80531318153E+01  0.51100000000E-03 0. -1.
        -11    1    3    3    0    0  0.95510867803E+01 -0.26455512764E+01  0.44442611291E+01  0.10861567911E+02  0.51100000000E-03 0.  1.
        -12    1    3    3    0    0  0.20005901173E+02 -0.14391044180E+02  0.11576053128E+02  0.27227619072E+02  0.00000000000E+00 0.  1.
</event>
<event>
 7    1  0.2328810E-008  0.4614232E+02  0.7816164E-02  0.1320468E+00
        -11   -1    0    0    0    0  0.00000000000E+00  0.00000000000E+00  0.45593999997E+02  0.45594000000E+02  0.51100000000E-03 0.  1.
         11   -1    0    0    0    0 -0.00000000000E+00 -0.00000000000E+00 -0.45593999997E+02  0.45594000000E+02  0.51100000000E-03 0. -1.
    9900012    2    1    2    0    0  0.29836934709E+02 -0.64448270765E+01  0.33126047436E+02  0.46142317770E+02  0.10000000077E+02 0.  0.
         12    1    1    2    0    0 -0.29836934709E+02  0.64448270765E+01 -0.33126047436E+02  0.45045682230E+02  0.00000000000E+00 0. -1.
         11    1    3    3    0    0  0.82137918991E+01 -0.48905110383E+01  0.99270727138E+01  0.13781518367E+02  0.51100000000E-03 0. -1.
        -11    1    3    3    0    0  0.16563100162E+02 -0.36233596293E+01  0.15919251576E+02  0.23256990196E+02  0.51100000000E-03 0.  1.
         12    1    3    3    0    0  0.50600426477E+01  0.20690435911E+01  0.72797231465E+01  0.91038092065E+01  0.00000000000E+00 0. -1.
</event>
<event>
 7    1  0.2328810E-008  0.4614231E+02  0.7816164E-02  0.1320468E+00
        -11   -1    0    0    0    0  0.00000000000E+00  0.00000000000E+00  0.45593999997E+02  0.45594000000E+02  0.51100000000E-03 0. -1.
         11   -1    0    0    0    0 -0.00000000000E+00 -0.00000000000E+00 -0.45593999997E+02  0.45594000000E+02  0.51100000000E-03 0.  1.
    9900012    2    1    2    0    0  0.93234524002E+01 -0.37019864494E+02 -0.23910598518E+02  0.46142313710E+02  0.99999630593E+01 0.  0.
         12    1    1    2    0    0 -0.93234524002E+01  0.37019864494E+02  0.23910598518E+02  0.45045686290E+02  0.00000000000E+00 0. -1.
         11    1    3    3    0    0  0.29146051624E+01 -0.77215804415E+01 -0.66895214985E+01  0.10623908222E+02  0.51100000000E-03 0. -1.
        -11    1    3    3    0    0  0.17457769951E+01 -0.23751626266E+02 -0.13384277456E+02  0.27318974558E+02  0.51100000000E-03 0.  1.
         12    1    3    3    0    0  0.46630702428E+01 -0.55466577861E+01 -0.38367995639E+01  0.81994309302E+01  0.00000000000E+00 0. -1.
</event>
<event>
 7    1  0.2328810E-008  0.4614232E+02  0.7816164E-02  0.1320468E+00
        -11   -1    0    0    0    0  0.00000000000E+00  0.00000000000E+00  0.45593999997E+02  0.45594000000E+02  0.51100000000E-03 0. -1.
         11   -1    0    0    0    0 -0.00000000000E+00 -0.00000000000E+00 -0.45593999997E+02  0.45594000000E+02  0.51100000000E-03 0.  1.
    9900012    2    1    2    0    0  0.19606860571E+02  0.10148760259E+02 -0.39264323139E+02  0.46142318877E+02  0.10000010179E+02 0.  0.
         12    1    1    2    0    0 -0.19606860571E+02 -0.10148760259E+02  0.39264323139E+02  0.45045681123E+02  0.00000000000E+00 0. -1.
         11    1    3    3    0    0  0.11813002529E+02  0.34950425326E+01 -0.13709939256E+02  0.18431624609E+02  0.51100000000E-03 0. -1.
        -11    1    3    3    0    0  0.26691149931E+01  0.89439153448E+00 -0.47193088288E+01  0.54950875467E+01  0.51100000000E-03 0.  1.
         12    1    3    3    0    0  0.51247430486E+01  0.57593261921E+01 -0.20835075054E+02  0.22215606722E+02  0.00000000000E+00 0. -1.
</event>
<event>
 7    1  0.2328810E-008  0.4614232E+02  0.7816164E-02  0.1320468E+00
        -11   -1    0    0    0    0  0.00000000000E+00  0.00000000000E+00  0.45593999997E+02  0.45594000000E+02  0.51100000000E-03 0.  1.
         11   -1    0    0    0    0 -0.00000000000E+00 -0.00000000000E+00 -0.45593999997E+02  0.45594000000E+02  0.51100000000E-03 0. -1.
    9900012    2    1    2    0    0 -0.20629614747E+02  0.35152277556E+02  0.19179412260E+02  0.46142317891E+02  0.10000001189E+02 0.  0.
         12    1    1    2    0    0  0.20629614747E+02 -0.35152277556E+02 -0.19179412260E+02  0.45045682109E+02  0.00000000000E+00 0. -1.
         11    1    3    3    0    0 -0.41515346130E+01  0.14078584918E+02  0.91433537386E+01  0.17292851436E+02  0.51100000000E-03 0. -1.
        -11    1    3    3    0    0 -0.13176613691E+02  0.19054585146E+02  0.83111041335E+01  0.24612493081E+02  0.51100000000E-03 0.  1.
         12    1    3    3    0    0 -0.33014664433E+01  0.20191074910E+01  0.17249543882E+01  0.42369733747E+01  0.00000000000E+00 0. -1.
</event>
<event>
 7    1  0.2328810E-008  0.4614232E+02  0.7816164E-02  0.1320468E+00
        -11   -1    0    0    0    0  0.00000000000E+00  0.00000000000E+00  0.45593999997E+02  0.45594000000E+02  0.51100000000E-03 0.  1.
         11   -1    0    0    0    0 -0.00000000000E+00 -0.00000000000E+00 -0.45593999997E+02  0.45594000000E+02  0.51100000000E-03 0. -1.
    9900012    2    1    2    0    0  0.74706262200E+01 -0.44189435082E+02  0.45383965552E+01  0.46142317940E+02  0.10000001632E+02 0.  0.
         12    1    1    2    0    0 -0.74706262200E+01  0.44189435082E+02 -0.45383965552E+01  0.45045682060E+02  0.00000000000E+00 0. -1.
         11    1    3    3    0    0  0.19312388517E+01 -0.23763647130E+01  0.20108214113E+01  0.36633585356E+01  0.51100000000E-03 0. -1.
        -11    1    3    3    0    0 -0.52301775756E-01 -0.25861155461E+01  0.11520569889E+01  0.28316010772E+01  0.51100000000E-03 0.  1.
        -12    1    3    3    0    0  0.55916891441E+01 -0.39226954823E+02  0.13755181550E+01  0.39647358327E+02  0.00000000000E+00 0.  1.
</event>
<event>
 7    1  0.2328810E-008  0.4614232E+02  0.7816164E-02  0.1320468E+00
        -11   -1    0    0    0    0  0.00000000000E+00  0.00000000000E+00  0.45593999997E+02  0.45594000000E+02  0.51100000000E-03 0.  1.
         11   -1    0    0    0    0 -0.00000000000E+00 -0.00000000000E+00 -0.45593999997E+02  0.45594000000E+02  0.51100000000E-03 0. -1.
    9900012    2    1    2    0    0 -0.22190291516E+02  0.56224571515E+01  0.38795521234E+02  0.46142317301E+02  0.99999958068E+01 0.  0.
         12    1    1    2    0    0  0.22190291516E+02 -0.56224571515E+01 -0.38795521234E+02  0.45045682699E+02  0.00000000000E+00 0. -1.
         11    1    3    3    0    0 -0.26744936146E+01  0.20732197910E+01  0.80639488927E+01  0.87451945892E+01  0.51100000000E-03 0. -1.
        -11    1    3    3    0    0 -0.29397736976E+01 -0.14616342841E+01  0.91858219641E+01  0.97548946479E+01  0.51100000000E-03 0.  1.
        -12    1    3    3    0    0 -0.16576024204E+02  0.50108716446E+01  0.21545750377E+02  0.27642228064E+02  0.00000000000E+00 0.  1.
</event>
<event>
 7    1  0.2328810E-008  0.4614232E+02  0.7816164E-02  0.1320468E+00
        -11   -1    0    0    0    0  0.00000000000E+00  0.00000000000E+00  0.45593999997E+02  0.45594000000E+02  0.51100000000E-03 0. -1.
         11   -1    0    0    0    0 -0.00000000000E+00 -0.00000000000E+00 -0.45593999997E+02  0.45594000000E+02  0.51100000000E-03 0.  1.
    9900012    2    1    2    0    0 -0.20912900353E+02 -0.24387243789E+02 -0.31575723378E+02  0.46142319101E+02  0.10000012219E+02 0.  0.
         12    1    1    2    0    0  0.20912900353E+02  0.24387243789E+02  0.31575723378E+02  0.45045680899E+02  0.00000000000E+00 0. -1.
         11    1    3    3    0    0 -0.71066696411E+00 -0.34465046356E+01 -0.21453457167E+01  0.41214014901E+01  0.51100000000E-03 0. -1.
        -11    1    3    3    0    0 -0.65253244923E+01 -0.95409104078E+01 -0.75264461047E+01  0.13793339783E+02  0.51100000000E-03 0.  1.
         12    1    3    3    0    0 -0.13676908897E+02 -0.11399828745E+02 -0.21903931557E+02  0.28227577828E+02  0.00000000000E+00 0. -1.
</event>
<event>
 7    1  0.2328810E-008  0.4614232E+02  0.7816164E-02  0.1320468E+00
        -11   -1    0    0    0    0  0.00000000000E+00  0.00000000000E+00  0.45593999997E+02  0.45594000000E+02  0.51100000000E-03 0.  1.
         11   -1    0    0    0    0 -0.00000000000E+00 -0.00000000000E+00 -0.45593999997E+02  0.45594000000E+02  0.51100000000E-03 0. -1.
    9900012    2    1    2    0    0  0.25220414456E+02  0.21607456846E+02  0.30432906844E+02  0.46142319678E+02  0.10000017478E+02 0.  0.
         12    1    1    2    0    0 -0.25220414456E+02 -0.21607456846E+02 -0.30432906844E+02  0.45045680322E+02  0.00000000000E+00 0. -1.
         11    1    3    3    0    0  0.34029260189E+01  0.15622257856E+01  0.81356621471E+00  0.38317548385E+01  0.51100000000E-03 0. -1.
        -11    1    3    3    0    0  0.89256515713E+01  0.12221289894E+02  0.14832877868E+02  0.21190598122E+02  0.51100000000E-03 0.  1.
        -12    1    3    3    0    0  0.12891836866E+02  0.78239411668E+01  0.14786462761E+02  0.21119966717E+02  0.00000000000E+00 0.  1.
</event>
<event>
 7    1  0.2328810E-008  0.4614233E+02  0.7816164E-02  0.1320468E+00
        -11   -1    0    0    0    0  0.00000000000E+00  0.00000000000E+00  0.45593999997E+02  0.45594000000E+02  0.51100000000E-03 0. -1.
         11   -1    0    0    0    0 -0.00000000000E+00 -0.00000000000E+00 -0.45593999997E+02  0.45594000000E+02  0.51100000000E-03 0.  1.
    9900012    2    1    2    0    0  0.40167873607E+02 -0.18498380938E+02 -0.85711282990E+01  0.46142329756E+02  0.10000109380E+02 0.  0.
         12    1    1    2    0    0 -0.40167873607E+02  0.18498380938E+02  0.85711282990E+01  0.45045670244E+02  0.00000000000E+00 0. -1.
         11    1    3    3    0    0  0.14524049177E+02 -0.66901837332E+01 -0.59512351411E+01  0.17062349277E+02  0.51100000000E-03 0. -1.
        -11    1    3    3    0    0  0.83665685756E+01 -0.89634156556E+00  0.39746819012E+00  0.84238280583E+01  0.51100000000E-03 0.  1.
        -12    1    3    3    0    0  0.17277255854E+02 -0.10911855639E+02 -0.30173613481E+01  0.20656152421E+02  0.00000000000E+00 0.  1.
</event>
<event>
 7    1  0.2328810E-008  0.4614232E+02  0.7816164E-02  0.1320468E+00
        -11   -1    0    0    0    0  0.00000000000E+00  0.00000000000E+00  0.45593999997E+02  0.45594000000E+02  0.51100000000E-03 0.  1.
         11   -1    0    0    0    0 -0.00000000000E+00 -0.00000000000E+00 -0.45593999997E+02  0.45594000000E+02  0.51100000000E-03 0. -1.
    9900012    2    1    2    0    0 -0.14571128492E+02  0.27700262082E+02  0.32395850809E+02  0.46142318136E+02  0.10000003420E+02 0.  0.
         12    1    1    2    0    0  0.14571128492E+02 -0.27700262082E+02 -0.32395850809E+02  0.45045681864E+02  0.00000000000E+00 0. -1.
         11    1    3    3    0    0 -0.15954753429E+02  0.25223800253E+02  0.29227256373E+02  0.41773517586E+02  0.51100000000E-03 0.  1.
        -11    1    3    3    0    0  0.50251888984E+00  0.18143889249E+01  0.17324654542E+01  0.25585091785E+01  0.51100000000E-03 0. -1.
        -12    1    3    3    0    0  0.88110604708E+00  0.66207290397E+00  0.14361289823E+01  0.18102913716E+01  0.00000000000E+00 0.  1.
</event>
<event>
 7    1  0.2328810E-008  0.4614232E+02  0.7816164E-02  0.1320468E+00
        -11   -1    0    0    0    0  0.00000000000E+00  0.00000000000E+00  0.45593999997E+02  0.45594000000E+02  0.51100000000E-03 0. -1.
         11   -1    0    0    0    0 -0.00000000000E+00 -0.00000000000E+00 -0.45593999997E+02  0.45594000000E+02  0.51100000000E-03 0.  1.
    9900012    2    1    2    0    0 -0.27172931278E+02 -0.65360979306E+01 -0.35327386348E+02  0.46142323220E+02  0.10000049778E+02 0.  0.
         12    1    1    2    0    0  0.27172931278E+02  0.65360979306E+01  0.35327386348E+02  0.45045676780E+02  0.00000000000E+00 0. -1.
         11    1    3    3    0    0 -0.35437990638E+01  0.85989601613E+00 -0.11734887959E+01  0.38307974599E+01  0.51100000000E-03 0. -1.
        -11    1    3    3    0    0  0.13881481997E-02 -0.22755346657E+00 -0.10485470355E+00  0.25055394046E+00  0.51100000000E-03 0.  1.
        -12    1    3    3    0    0 -0.23630520362E+02 -0.71684404802E+01 -0.34049042849E+02  0.42060971820E+02  0.00000000000E+00 0.  1.
</event>
<event>
 7    1  0.2328810E-008  0.4614232E+02  0.7816164E-02  0.1320468E+00
        -11   -1    0    0    0    0  0.00000000000E+00  0.00000000000E+00  0.45593999997E+02  0.45594000000E+02  0.51100000000E-03 0.  1.
         11   -1    0    0    0    0 -0.00000000000E+00 -0.00000000000E+00 -0.45593999997E+02  0.45594000000E+02  0.51100000000E-03 0. -1.
    9900012    2    1    2    0    0  0.30886443811E+02 -0.13212815252E+02  0.30009373608E+02  0.46142318714E+02  0.10000008691E+02 0.  0.
         12    1    1    2    0    0 -0.30886443811E+02  0.13212815252E+02 -0.30009373608E+02  0.45045681286E+02  0.00000000000E+00 0. -1.
         11    1    3    3    0    0  0.15903487379E+02 -0.22064166674E+01  0.15081234057E+02  0.22028000505E+02  0.51100000000E-03 0.  1.
        -11    1    3    3    0    0  0.18449978488E+01 -0.54678033330E+00  0.53556599633E+00  0.19974526258E+01  0.51100000000E-03 0. -1.
        -12    1    3    3    0    0  0.13137958584E+02 -0.10459618251E+02  0.14392573555E+02  0.22116865583E+02  0.00000000000E+00 0.  1.
</event>
<event>
 7    1  0.2328810E-008  0.4614232E+02  0.7816164E-02  0.1320468E+00
        -11   -1    0    0    0    0  0.00000000000E+00  0.00000000000E+00  0.45593999997E+02  0.45594000000E+02  0.51100000000E-03 0.  1.
         11   -1    0    0    0    0 -0.00000000000E+00 -0.00000000000E+00 -0.45593999997E+02  0.45594000000E+02  0.51100000000E-03 0. -1.
    9900012    2    1    2    0    0 -0.36310309621E+02  0.21165486668E+02  0.16207935148E+02  0.46142316828E+02  0.99999914916E+01 0.  0.
         12    1    1    2    0    0  0.36310309621E+02 -0.21165486668E+02 -0.16207935148E+02  0.45045683172E+02  0.00000000000E+00 0. -1.
         11    1    3    3    0    0 -0.67524500589E+00  0.70833844333E+00 -0.61059546394E+00  0.11534843952E+01  0.51100000000E-03 0. -1.
        -11    1    3    3    0    0 -0.32914151995E+02  0.20856681237E+02  0.15450971980E+02  0.41917479518E+02  0.51100000000E-03 0.  1.
        -12    1    3    3    0    0 -0.27209126207E+01 -0.39953301235E+00  0.13675586316E+01  0.30713529150E+01  0.00000000000E+00 0.  1.
</event>
<event>
 7    1  0.2328810E-008  0.4614232E+02  0.7816164E-02  0.1320468E+00
        -11   -1    0    0    0    0  0.00000000000E+00  0.00000000000E+00  0.45593999997E+02  0.45594000000E+02  0.51100000000E-03 0.  1.
         11   -1    0    0    0    0 -0.00000000000E+00 -0.00000000000E+00 -0.45593999997E+02  0.45594000000E+02  0.51100000000E-03 0. -1.
    9900012    2    1    2    0    0  0.21177634895E+02 -0.39248967523E+02  0.63356007473E+01  0.46142317541E+02  0.99999979927E+01 0.  0.
         12    1    1    2    0    0 -0.21177634895E+02  0.39248967523E+02 -0.63356007473E+01  0.45045682459E+02  0.00000000000E+00 0. -1.
         11    1    3    3    0    0  0.75151022771E+01 -0.11081222726E+02  0.33846653647E+01  0.13810366369E+02  0.51100000000E-03 0. -1.
        -11    1    3    3    0    0  0.71759925188E+01 -0.17221422020E+02  0.52959138756E+01  0.19393786352E+02  0.51100000000E-03 0.  1.
         12    1    3    3    0    0  0.64865400994E+01 -0.10946322777E+02 -0.23449784930E+01  0.12938164821E+02  0.00000000000E+00 0. -1.
</event>
<event>
 7    1  0.2328810E-008  0.4614232E+02  0.7816164E-02  0.1320468E+00
        -11   -1    0    0    0    0  0.00000000000E+00  0.00000000000E+00  0.45593999997E+02  0.45594000000E+02  0.51100000000E-03 0.  1.
         11   -1    0    0    0    0 -0.00000000000E+00 -0.00000000000E+00 -0.45593999997E+02  0.45594000000E+02  0.51100000000E-03 0. -1.
    9900012    2    1    2    0    0 -0.34774807165E+02 -0.14673909404E+00  0.28632236065E+02  0.46142315547E+02  0.99999798131E+01 0.  0.
         12    1    1    2    0    0  0.34774807165E+02  0.14673909404E+00 -0.28632236065E+02  0.45045684453E+02  0.00000000000E+00 0. -1.
         11    1    3    3    0    0 -0.98584355037E+01 -0.83718439427E+00  0.61686735820E+01  0.11659423756E+02  0.51100000000E-03 0. -1.
        -11    1    3    3    0    0 -0.20543405674E+02  0.16510311954E+01  0.21724389261E+02  0.29945058185E+02  0.51100000000E-03 0.  1.
         12    1    3    3    0    0 -0.43729659874E+01 -0.96058589517E+00  0.73917322220E+00  0.45378336067E+01  0.00000000000E+00 0. -1.
</event>
<event>
 7    1  0.2328810E-008  0.4614232E+02  0.7816164E-02  0.1320468E+00
        -11   -1    0    0    0    0  0.00000000000E+00  0.00000000000E+00  0.45593999997E+02  0.45594000000E+02  0.51100000000E-03 0.  1.
         11   -1    0    0    0    0 -0.00000000000E+00 -0.00000000000E+00 -0.45593999997E+02  0.45594000000E+02  0.51100000000E-03 0. -1.
    9900012    2    1    2    0    0 -0.44721060818E+02 -0.38428159693E+01 -0.37911192099E+01  0.46142322071E+02  0.10000039298E+02 0.  0.
         12    1    1    2    0    0  0.44721060818E+02  0.38428159693E+01  0.37911192099E+01  0.45045677929E+02  0.00000000000E+00 0. -1.
         11    1    3    3    0    0 -0.11754984571E+02 -0.13524142054E+01  0.24908962063E+01  0.12091867127E+02  0.51100000000E-03 0. -1.
        -11    1    3    3    0    0 -0.46131341820E+01 -0.10478241574E+00  0.90828231141E+00  0.47028675672E+01  0.51100000000E-03 0.  1.
         12    1    3    3    0    0 -0.28352942065E+02 -0.23856193482E+01 -0.71902977275E+01  0.29347587376E+02  0.00000000000E+00 0. -1.
</event>
<event>
 7    1  0.2328810E-008  0.4614232E+02  0.7816164E-02  0.1320468E+00
        -11   -1    0    0    0    0  0.00000000000E+00  0.00000000000E+00  0.45593999997E+02  0.45594000000E+02  0.51100000000E-03 0.  1.
         11   -1    0    0    0    0 -0.00000000000E+00 -0.00000000000E+00 -0.45593999997E+02  0.45594000000E+02  0.51100000000E-03 0. -1.
    9900012    2    1    2    0    0 -0.19321056872E+02  0.24747784340E+02  0.32301043976E+02  0.46142317517E+02  0.99999977749E+01 0.  0.
         12    1    1    2    0    0  0.19321056872E+02 -0.24747784340E+02 -0.32301043976E+02  0.45045682483E+02  0.00000000000E+00 0. -1.
         11    1    3    3    0    0  0.91914997253E+00  0.52574993369E+00  0.10806073630E+01  0.15129316571E+01  0.51100000000E-03 0. -1.
        -11    1    3    3    0    0 -0.68520219908E+01  0.58819221902E+01  0.69680547868E+01  0.11406182612E+02  0.51100000000E-03 0.  1.
        -12    1    3    3    0    0 -0.13388184854E+02  0.18340112216E+02  0.24252381826E+02  0.33223203248E+02  0.00000000000E+00 0.  1.
</event>
<event>
 7    1  0.2328810E-008  0.4614232E+02  0.7816164E-02  0.1320468E+00
        -11   -1    0    0    0    0  0.00000000000E+00  0.00000000000E+00  0.45593999997E+02  0.45594000000E+02  0.51100000000E-03 0. -1.
         11   -1    0    0    0    0 -0.00000000000E+00 -0.00000000000E+00 -0.45593999997E+02  0.45594000000E+02  0.51100000000E-03 0.  1.
    9900012    2    1    2    0    0 -0.21324827029E+02 -0.23411261999E+02  0.32035574276E+02  0.46142318127E+02  0.10000003338E+02 0.  0.
         12    1    1    2    0    0  0.21324827029E+02  0.23411261999E+02 -0.32035574276E+02  0.45045681873E+02  0.00000000000E+00 0. -1.
         11    1    3    3    0    0 -0.68321851419E+00 -0.45235052862E+01  0.48659484375E+01  0.66787979510E+01  0.51100000000E-03 0. -1.
        -11    1    3    3    0    0 -0.11724245873E+01 -0.13997714804E+01  0.12545706868E+00  0.18302129240E+01  0.51100000000E-03 0.  1.
        -12    1    3    3    0    0 -0.19469183927E+02 -0.17487985232E+02  0.27044168770E+02  0.37633307252E+02  0.00000000000E+00 0.  1.
</event>
<event>
 7    1  0.2328810E-008  0.4614232E+02  0.7816164E-02  0.1320468E+00
        -11   -1    0    0    0    0  0.00000000000E+00  0.00000000000E+00  0.45593999997E+02  0.45594000000E+02  0.51100000000E-03 0. -1.
         11   -1    0    0    0    0 -0.00000000000E+00 -0.00000000000E+00 -0.45593999997E+02  0.45594000000E+02  0.51100000000E-03 0.  1.
    9900012    2    1    2    0    0 -0.24040757824E+02  0.33410237767E+02  0.18300590595E+02  0.46142316072E+02  0.99999846012E+01 0.  0.
         12    1    1    2    0    0  0.24040757824E+02 -0.33410237767E+02 -0.18300590595E+02  0.45045683928E+02  0.00000000000E+00 0. -1.
         11    1    3    3    0    0 -0.52016670424E+01  0.48215068545E+01  0.34637589980E+01  0.78931549475E+01  0.51100000000E-03 0. -1.
        -11    1    3    3    0    0 -0.11240327278E+02  0.21409608172E+02  0.13544366805E+02  0.27715810502E+02  0.51100000000E-03 0.  1.
        -12    1    3    3    0    0 -0.75987635033E+01  0.71791227405E+01  0.12924647921E+01  0.10533350623E+02  0.00000000000E+00 0.  1.
</event>
<event>
 7    1  0.2328810E-008  0.4614232E+02  0.7816164E-02  0.1320468E+00
        -11   -1    0    0    0    0  0.00000000000E+00  0.00000000000E+00  0.45593999997E+02  0.45594000000E+02  0.51100000000E-03 0. -1.
         11   -1    0    0    0    0 -0.00000000000E+00 -0.00000000000E+00 -0.45593999997E+02  0.45594000000E+02  0.51100000000E-03 0.  1.
    9900012    2    1    2    0    0 -0.33949708398E+01  0.35439494008E+02 -0.27597643115E+02  0.46142317986E+02  0.10000002055E+02 0.  0.
         12    1    1    2    0    0  0.33949708398E+01 -0.35439494008E+02  0.27597643115E+02  0.45045682014E+02  0.00000000000E+00 0. -1.
         11    1    3    3    0    0 -0.19578635846E+00  0.17588127387E+02 -0.87233229788E+01  0.19633566190E+02  0.51100000000E-03 0. -1.
        -11    1    3    3    0    0 -0.37504972145E+01  0.11300893018E+02 -0.10605428145E+02  0.15945266344E+02  0.51100000000E-03 0.  1.
        -12    1    3    3    0    0  0.55131273308E+00  0.65504736029E+01 -0.82688919908E+01  0.10563485453E+02  0.00000000000E+00 0.  1.
</event>
<event>
 7    1  0.2328810E-008  0.4614232E+02  0.7816164E-02  0.1320468E+00
        -11   -1    0    0    0    0  0.00000000000E+00  0.00000000000E+00  0.45593999997E+02  0.45594000000E+02  0.51100000000E-03 0. -1.
         11   -1    0    0    0    0 -0.00000000000E+00 -0.00000000000E+00 -0.45593999997E+02  0.45594000000E+02  0.51100000000E-03 0.  1.
    9900012    2    1    2    0    0  0.29773026252E+02  0.23999019009E+02 -0.23806038685E+02  0.46142317816E+02  0.10000000498E+02 0.  0.
         12    1    1    2    0    0 -0.29773026252E+02 -0.23999019009E+02  0.23806038685E+02  0.45045682184E+02  0.00000000000E+00 0. -1.
         11    1    3    3    0    0  0.69786941165E+01  0.64909701604E+01 -0.67188028275E+01  0.11660925216E+02  0.51100000000E-03 0.  1.
        -11    1    3    3    0    0  0.11516627880E+02  0.38374922554E+01 -0.82579823305E+01  0.14681734808E+02  0.51100000000E-03 0. -1.
         12    1    3    3    0    0  0.11277704255E+02  0.13670556593E+02 -0.88292535272E+01  0.19799657792E+02  0.00000000000E+00 0. -1.
</event>
<event>
 7    1  0.2328810E-008  0.4614232E+02  0.7816164E-02  0.1320468E+00
        -11   -1    0    0    0    0  0.00000000000E+00  0.00000000000E+00  0.45593999997E+02  0.45594000000E+02  0.51100000000E-03 0.  1.
         11   -1    0    0    0    0 -0.00000000000E+00 -0.00000000000E+00 -0.45593999997E+02  0.45594000000E+02  0.51100000000E-03 0. -1.
    9900012    2    1    2    0    0 -0.35599480190E+02  0.26922942534E+02  0.60782815168E+01  0.46142319511E+02  0.10000015959E+02 0.  0.
         12    1    1    2    0    0  0.35599480190E+02 -0.26922942534E+02 -0.60782815168E+01  0.45045680489E+02  0.00000000000E+00 0. -1.
         11    1    3    3    0    0 -0.18559280652E+02  0.13655795952E+02  0.38724188146E+01  0.23365001373E+02  0.51100000000E-03 0. -1.
        -11    1    3    3    0    0 -0.52814650944E+01  0.84444498938E+01  0.86814526049E+00  0.99978139614E+01  0.51100000000E-03 0.  1.
         12    1    3    3    0    0 -0.11758734443E+02  0.48226966888E+01  0.13377174417E+01  0.12779504177E+02  0.00000000000E+00 0. -1.
</event>
<event>
 7    1  0.2328810E-008  0.4614232E+02  0.7816164E-02  0.1320468E+00
        -11   -1    0    0    0    0  0.00000000000E+00  0.00000000000E+00  0.45593999997E+02  0.45594000000E+02  0.51100000000E-03 0.  1.
         11   -1    0    0    0    0 -0.00000000000E+00 -0.00000000000E+00 -0.45593999997E+02  0.45594000000E+02  0.51100000000E-03 0. -1.
    9900012    2    1    2    0    0  0.27860705725E+02  0.34843098451E+02 -0.62332084979E+01  0.46142319615E+02  0.10000016904E+02 0.  0.
         12    1    1    2    0    0 -0.27860705725E+02 -0.34843098451E+02  0.62332084979E+01  0.45045680385E+02  0.00000000000E+00 0. -1.
         11    1    3    3    0    0 -0.13300551283E+00  0.10209083449E-01 -0.37831109696E+00  0.40114117095E+00  0.51100000000E-03 0. -1.
        -11    1    3    3    0    0  0.21205871896E+02  0.21008731424E+02 -0.23240357204E+01  0.29940890789E+02  0.51100000000E-03 0.  1.
        -12    1    3    3    0    0  0.67878393413E+01  0.13824157944E+02 -0.35308616805E+01  0.15800287655E+02  0.00000000000E+00 0.  1.
</event>
<event>
 7    1  0.2328810E-008  0.4614232E+02  0.7816164E-02  0.1320468E+00
        -11   -1    0    0    0    0  0.00000000000E+00  0.00000000000E+00  0.45593999997E+02  0.45594000000E+02  0.51100000000E-03 0.  1.
         11   -1    0    0    0    0 -0.00000000000E+00 -0.00000000000E+00 -0.45593999997E+02  0.45594000000E+02  0.51100000000E-03 0. -1.
    9900012    2    1    2    0    0 -0.32875526200E+02  0.22262480024E+02 -0.21276637216E+02  0.46142317288E+02  0.99999956868E+01 0.  0.
         12    1    1    2    0    0  0.32875526200E+02 -0.22262480024E+02  0.21276637216E+02  0.45045682712E+02  0.00000000000E+00 0. -1.
         11    1    3    3    0    0 -0.35740952180E+01  0.24778490627E+00 -0.18992904618E+01  0.40549794705E+01  0.51100000000E-03 0. -1.
        -11    1    3    3    0    0 -0.10876947049E+02  0.84204366237E+01 -0.11319148340E+02  0.17813894842E+02  0.51100000000E-03 0.  1.
         12    1    3    3    0    0 -0.18424483933E+02  0.13594258494E+02 -0.80581984146E+01  0.24273442975E+02  0.00000000000E+00 0. -1.
</event>
<event>
 7    1  0.2328810E-008  0.4614232E+02  0.7816164E-02  0.1320468E+00
        -11   -1    0    0    0    0  0.00000000000E+00  0.00000000000E+00  0.45593999997E+02  0.45594000000E+02  0.51100000000E-03 0.  1.
         11   -1    0    0    0    0 -0.00000000000E+00 -0.00000000000E+00 -0.45593999997E+02  0.45594000000E+02  0.51100000000E-03 0. -1.
    9900012    2    1    2    0    0 -0.11359901535E+02  0.43575615964E+02  0.11097930242E+01  0.46142319740E+02  0.10000018048E+02 0.  0.
         12    1    1    2    0    0  0.11359901535E+02 -0.43575615964E+02 -0.11097930242E+01  0.45045680260E+02  0.00000000000E+00 0. -1.
         11    1    3    3    0    0  0.36748916859E+00  0.44876967864E+01  0.16641791474E+01  0.48004128189E+01  0.51100000000E-03 0. -1.
        -11    1    3    3    0    0 -0.87310707828E+01  0.17658303378E+02 -0.42134181389E+00  0.19703421134E+02  0.51100000000E-03 0.  1.
        -12    1    3    3    0    0 -0.29963199206E+01  0.21429615800E+02 -0.13304430931E+00  0.21638485788E+02  0.00000000000E+00 0.  1.
</event>
<event>
 7    1  0.2328810E-008  0.4614232E+02  0.7816164E-02  0.1320468E+00
        -11   -1    0    0    0    0  0.00000000000E+00  0.00000000000E+00  0.45593999997E+02  0.45594000000E+02  0.51100000000E-03 0.  1.
         11   -1    0    0    0    0 -0.00000000000E+00 -0.00000000000E+00 -0.45593999997E+02  0.45594000000E+02  0.51100000000E-03 0. -1.
    9900012    2    1    2    0    0 -0.19811770278E+02 -0.39565674023E+02 -0.84359159619E+01  0.46142317848E+02  0.10000000795E+02 0.  0.
         12    1    1    2    0    0  0.19811770278E+02  0.39565674023E+02  0.84359159619E+01  0.45045682152E+02  0.00000000000E+00 0. -1.
         11    1    3    3    0    0 -0.10616309598E+02 -0.13850754697E+02 -0.81712892608E+00  0.17470464651E+02  0.51100000000E-03 0. -1.
        -11    1    3    3    0    0 -0.15310557023E+01 -0.16359480751E+01  0.12058027106E+00  0.22438800170E+01  0.51100000000E-03 0.  1.
         12    1    3    3    0    0 -0.76644049771E+01 -0.24078971250E+02 -0.77393673069E+01  0.26427973181E+02  0.00000000000E+00 0. -1.
</event>
<event>
 7    1  0.2328810E-008  0.4614232E+02  0.7816164E-02  0.1320468E+00
        -11   -1    0    0    0    0  0.00000000000E+00  0.00000000000E+00  0.45593999997E+02  0.45594000000E+02  0.51100000000E-03 0. -1.
         11   -1    0    0    0    0 -0.00000000000E+00 -0.00000000000E+00 -0.45593999997E+02  0.45594000000E+02  0.51100000000E-03 0.  1.
    9900012    2    1    2    0    0 -0.13168408241E+02  0.31538086607E+02 -0.29343747790E+02  0.46142318556E+02  0.10000007248E+02 0.  0.
         12    1    1    2    0    0  0.13168408241E+02 -0.31538086607E+02  0.29343747790E+02  0.45045681444E+02  0.00000000000E+00 0. -1.
         11    1    3    3    0    0 -0.23756951321E+01  0.13107510473E+02 -0.92031500834E+01  0.16191007685E+02  0.51100000000E-03 0. -1.
        -11    1    3    3    0    0 -0.10927863151E+02  0.18441698903E+02 -0.18530118991E+02  0.28335132990E+02  0.51100000000E-03 0.  1.
        -12    1    3    3    0    0  0.13515004184E+00 -0.11122768827E-01 -0.16104787151E+01  0.16161778806E+01  0.00000000000E+00 0.  1.
</event>
<event>
 7    1  0.2328810E-008  0.4614232E+02  0.7816164E-02  0.1320468E+00
        -11   -1    0    0    0    0  0.00000000000E+00  0.00000000000E+00  0.45593999997E+02  0.45594000000E+02  0.51100000000E-03 0. -1.
         11   -1    0    0    0    0 -0.00000000000E+00 -0.00000000000E+00 -0.45593999997E+02  0.45594000000E+02  0.51100000000E-03 0.  1.
    9900012    2    1    2    0    0 -0.75278774618E+01  0.25350712576E+02 -0.36466229570E+02  0.46142318006E+02  0.10000002237E+02 0.  0.
         12    1    1    2    0    0  0.75278774618E+01 -0.25350712576E+02  0.36466229570E+02  0.45045681994E+02  0.00000000000E+00 0. -1.
         11    1    3    3    0    0 -0.28882360520E+01  0.18979072593E+02 -0.21611695940E+02  0.28906962927E+02  0.51100000000E-03 0. -1.
        -11    1    3    3    0    0 -0.10058355899E+01  0.41540664900E+01 -0.55655247963E+01  0.70173385380E+01  0.51100000000E-03 0.  1.
         12    1    3    3    0    0 -0.36338058199E+01  0.22175734934E+01 -0.92890088337E+01  0.10218016542E+02  0.00000000000E+00 0. -1.
</event>
<event>
 7    1  0.2328810E-008  0.4614232E+02  0.7816164E-02  0.1320468E+00
        -11   -1    0    0    0    0  0.00000000000E+00  0.00000000000E+00  0.45593999997E+02  0.45594000000E+02  0.51100000000E-03 0.  1.
         11   -1    0    0    0    0 -0.00000000000E+00 -0.00000000000E+00 -0.45593999997E+02  0.45594000000E+02  0.51100000000E-03 0. -1.
    9900012    2    1    2    0    0 -0.21031227991E+02  0.33397015892E+01  0.39694425836E+02  0.46142316522E+02  0.99999887050E+01 0.  0.
         12    1    1    2    0    0  0.21031227991E+02 -0.33397015892E+01 -0.39694425836E+02  0.45045683478E+02  0.00000000000E+00 0. -1.
         11    1    3    3    0    0 -0.47629034685E+01  0.28302972884E+01  0.11000032949E+02  0.12316515633E+02  0.51100000000E-03 0. -1.
        -11    1    3    3    0    0 -0.12012205052E+02  0.37196034924E+01  0.19767959275E+02  0.23428630658E+02  0.51100000000E-03 0.  1.
         12    1    3    3    0    0 -0.42561194697E+01 -0.32101991916E+01  0.89264336114E+01  0.10397170231E+02  0.00000000000E+00 0. -1.
</event>
<event>
 7    1  0.2328810E-008  0.4614231E+02  0.7816164E-02  0.1320468E+00
        -11   -1    0    0    0    0  0.00000000000E+00  0.00000000000E+00  0.45593999997E+02  0.45594000000E+02  0.51100000000E-03 0. -1.
         11   -1    0    0    0    0 -0.00000000000E+00 -0.00000000000E+00 -0.45593999997E+02  0.45594000000E+02  0.51100000000E-03 0.  1.
    9900012    2    1    2    0    0  0.14059107200E+02 -0.26509549049E+02 -0.33596129032E+02  0.46142305733E+02  0.99998903165E+01 0.  0.
         12    1    1    2    0    0 -0.14059107200E+02  0.26509549049E+02  0.33596129032E+02  0.45045694267E+02  0.00000000000E+00 0. -1.
         11    1    3    3    0    0  0.49251301486E+01 -0.79229608562E+01 -0.51993532156E+01  0.10680051022E+02  0.51100000000E-03 0. -1.
        -11    1    3    3    0    0  0.35142773083E+01 -0.39548676439E+01 -0.48590711945E+01  0.71834320638E+01  0.51100000000E-03 0.  1.
         12    1    3    3    0    0  0.56196997430E+01 -0.14631720549E+02 -0.23537704622E+02  0.28278822647E+02  0.00000000000E+00 0. -1.
</event>
<event>
 7    1  0.2328810E-008  0.4614232E+02  0.7816164E-02  0.1320468E+00
        -11   -1    0    0    0    0  0.00000000000E+00  0.00000000000E+00  0.45593999997E+02  0.45594000000E+02  0.51100000000E-03 0. -1.
         11   -1    0    0    0    0 -0.00000000000E+00 -0.00000000000E+00 -0.45593999997E+02  0.45594000000E+02  0.51100000000E-03 0.  1.
    9900012    2    1    2    0    0 -0.42852433467E+02 -0.82985100487E+01  0.11131808659E+02  0.46142317775E+02  0.10000000126E+02 0.  0.
         12    1    1    2    0    0  0.42852433467E+02  0.82985100487E+01 -0.11131808659E+02  0.45045682225E+02  0.00000000000E+00 0. -1.
         11    1    3    3    0    0 -0.84350268304E+01 -0.20037238301E+01  0.28573439464E+01  0.91284720247E+01  0.51100000000E-03 0. -1.
        -11    1    3    3    0    0 -0.23459637426E+02 -0.51402816316E+01  0.97049493080E+01  0.25902955907E+02  0.51100000000E-03 0.  1.
         12    1    3    3    0    0 -0.10957769211E+02 -0.11545045870E+01 -0.14304845954E+01  0.11110889843E+02  0.00000000000E+00 0. -1.
</event>
<event>
 7    1  0.2328810E-008  0.4614232E+02  0.7816164E-02  0.1320468E+00
        -11   -1    0    0    0    0  0.00000000000E+00  0.00000000000E+00  0.45593999997E+02  0.45594000000E+02  0.51100000000E-03 0.  1.
         11   -1    0    0    0    0 -0.00000000000E+00 -0.00000000000E+00 -0.45593999997E+02  0.45594000000E+02  0.51100000000E-03 0. -1.
    9900012    2    1    2    0    0  0.32088658784E+02 -0.31543517276E+02  0.21066515290E+01  0.46142317794E+02  0.10000000301E+02 0.  0.
         12    1    1    2    0    0 -0.32088658784E+02  0.31543517276E+02 -0.21066515290E+01  0.45045682206E+02  0.00000000000E+00 0. -1.
         11    1    3    3    0    0  0.12007817928E+02 -0.96327386651E+01  0.35829762726E+01  0.15805539055E+02  0.51100000000E-03 0. -1.
        -11    1    3    3    0    0  0.10662730164E+02 -0.73340311311E+01 -0.89641386005E+00  0.12972485700E+02  0.51100000000E-03 0.  1.
         12    1    3    3    0    0  0.94181106926E+01 -0.14576747480E+02 -0.57991088354E+00  0.17364293039E+02  0.00000000000E+00 0. -1.
</event>
<event>
 7    1  0.2328810E-008  0.4614232E+02  0.7816164E-02  0.1320468E+00
        -11   -1    0    0    0    0  0.00000000000E+00  0.00000000000E+00  0.45593999997E+02  0.45594000000E+02  0.51100000000E-03 0. -1.
         11   -1    0    0    0    0 -0.00000000000E+00 -0.00000000000E+00 -0.45593999997E+02  0.45594000000E+02  0.51100000000E-03 0.  1.
    9900012    2    1    2    0    0  0.20058992027E+02 -0.81180883230E+01 -0.39507555881E+02  0.46142317734E+02  0.99999997521E+01 0.  0.
         12    1    1    2    0    0 -0.20058992027E+02  0.81180883230E+01  0.39507555881E+02  0.45045682266E+02  0.00000000000E+00 0. -1.
         11    1    3    3    0    0  0.10056068449E+02 -0.41360577173E+01 -0.14607720829E+02  0.18210354038E+02  0.51100000000E-03 0. -1.
        -11    1    3    3    0    0  0.78187586572E+01 -0.58563471384E+01 -0.19683246969E+02  0.21974075640E+02  0.51100000000E-03 0.  1.
         12    1    3    3    0    0  0.21841649207E+01  0.18743165327E+01 -0.52165880824E+01  0.59578880560E+01  0.00000000000E+00 0. -1.
</event>
<event>
 7    1  0.2328810E-008  0.4614232E+02  0.7816164E-02  0.1320468E+00
        -11   -1    0    0    0    0  0.00000000000E+00  0.00000000000E+00  0.45593999997E+02  0.45594000000E+02  0.51100000000E-03 0.  1.
         11   -1    0    0    0    0 -0.00000000000E+00 -0.00000000000E+00 -0.45593999997E+02  0.45594000000E+02  0.51100000000E-03 0. -1.
    9900012    2    1    2    0    0  0.97495223203E+01 -0.13880624987E+02  0.41729948573E+02  0.46142317150E+02  0.99999944271E+01 0.  0.
         12    1    1    2    0    0 -0.97495223203E+01  0.13880624987E+02 -0.41729948573E+02  0.45045682850E+02  0.00000000000E+00 0. -1.
         11    1    3    3    0    0  0.48914639560E+00 -0.18855556414E+00  0.18507364739E+00  0.55594056623E+00  0.51100000000E-03 0. -1.
        -11    1    3    3    0    0  0.54077704106E+01 -0.10740417172E+02  0.37118348327E+02  0.39017589939E+02  0.51100000000E-03 0.  1.
        -12    1    3    3    0    0  0.38526055141E+01 -0.29516522506E+01  0.44265265986E+01  0.65687866447E+01  0.00000000000E+00 0.  1.
</event>
<event>
 7    1  0.2328810E-008  0.4614232E+02  0.7816164E-02  0.1320468E+00
        -11   -1    0    0    0    0  0.00000000000E+00  0.00000000000E+00  0.45593999997E+02  0.45594000000E+02  0.51100000000E-03 0.  1.
         11   -1    0    0    0    0 -0.00000000000E+00 -0.00000000000E+00 -0.45593999997E+02  0.45594000000E+02  0.51100000000E-03 0. -1.
    9900012    2    1    2    0    0 -0.91299189801E+01 -0.43740885734E+02  0.57002720572E+01  0.46142316445E+02  0.99999880005E+01 0.  0.
         12    1    1    2    0    0  0.91299189801E+01  0.43740885734E+02 -0.57002720572E+01  0.45045683555E+02  0.00000000000E+00 0. -1.
         11    1    3    3    0    0  0.10866449271E+01 -0.76754065783E+01  0.10813756495E+01  0.78270068926E+01  0.51100000000E-03 0. -1.
        -11    1    3    3    0    0  0.25645275361E+00 -0.36812819993E+01  0.19538906237E+01  0.41755591247E+01  0.51100000000E-03 0.  1.
         12    1    3    3    0    0 -0.10473016661E+02 -0.32384197156E+02  0.26650057839E+01  0.34139750428E+02  0.00000000000E+00 0. -1.
</event>
<event>
 7    1  0.2328810E-008  0.4614232E+02  0.7816164E-02  0.1320468E+00
        -11   -1    0    0    0    0  0.00000000000E+00  0.00000000000E+00  0.45593999997E+02  0.45594000000E+02  0.51100000000E-03 0. -1.
         11   -1    0    0    0    0 -0.00000000000E+00 -0.00000000000E+00 -0.45593999997E+02  0.45594000000E+02  0.51100000000E-03 0.  1.
    9900012    2    1    2    0    0  0.26484779276E+02  0.35351823305E+02  0.88271350626E+01  0.46142320321E+02  0.10000023347E+02 0.  0.
         12    1    1    2    0    0 -0.26484779276E+02 -0.35351823305E+02 -0.88271350626E+01  0.45045679679E+02  0.00000000000E+00 0. -1.
         11    1    3    3    0    0  0.33735585214E+01  0.83218445792E+01  0.43483641871E+01  0.99770870329E+01  0.51100000000E-03 0. -1.
        -11    1    3    3    0    0  0.11080513249E+02  0.16477718276E+02  0.31803855945E+01  0.20109893740E+02  0.51100000000E-03 0.  1.
         12    1    3    3    0    0  0.12030707505E+02  0.10552260450E+02  0.12983852810E+01  0.16055339549E+02  0.00000000000E+00 0. -1.
</event>
<event>
 7    1  0.2328810E-008  0.4614232E+02  0.7816164E-02  0.1320468E+00
        -11   -1    0    0    0    0  0.00000000000E+00  0.00000000000E+00  0.45593999997E+02  0.45594000000E+02  0.51100000000E-03 0. -1.
         11   -1    0    0    0    0 -0.00000000000E+00 -0.00000000000E+00 -0.45593999997E+02  0.45594000000E+02  0.51100000000E-03 0.  1.
    9900012    2    1    2    0    0  0.14656849710E+02  0.35060504665E+02 -0.24187831000E+02  0.46142318750E+02  0.10000009019E+02 0.  0.
         12    1    1    2    0    0 -0.14656849710E+02 -0.35060504665E+02  0.24187831000E+02  0.45045681250E+02  0.00000000000E+00 0. -1.
         11    1    3    3    0    0  0.43104793525E+01  0.44186577645E+01 -0.28569970094E+01  0.68019997693E+01  0.51100000000E-03 0. -1.
        -11    1    3    3    0    0  0.51390200879E+01  0.10303276739E+02 -0.42432428650E+01  0.12270784380E+02  0.51100000000E-03 0.  1.
        -12    1    3    3    0    0  0.52073502697E+01  0.20338570161E+02 -0.17087591126E+02  0.27069534601E+02  0.00000000000E+00 0.  1.
</event>
<event>
 7    1  0.2328810E-008  0.4614232E+02  0.7816164E-02  0.1320468E+00
        -11   -1    0    0    0    0  0.00000000000E+00  0.00000000000E+00  0.45593999997E+02  0.45594000000E+02  0.51100000000E-03 0.  1.
         11   -1    0    0    0    0 -0.00000000000E+00 -0.00000000000E+00 -0.45593999997E+02  0.45594000000E+02  0.51100000000E-03 0. -1.
    9900012    2    1    2    0    0 -0.27599974734E+02 -0.32966045238E+01  0.35446963865E+02  0.46142318143E+02  0.10000003485E+02 0.  0.
         12    1    1    2    0    0  0.27599974734E+02  0.32966045238E+01 -0.35446963865E+02  0.45045681857E+02  0.00000000000E+00 0. -1.
         11    1    3    3    0    0 -0.10839698298E+02  0.77590051518E-01  0.83966689973E+01  0.13711642130E+02  0.51100000000E-03 0. -1.
        -11    1    3    3    0    0 -0.78235981705E+01  0.10790361491E+01  0.11498320046E+02  0.13949350217E+02  0.51100000000E-03 0.  1.
        -12    1    3    3    0    0 -0.89366782658E+01 -0.44532307245E+01  0.15551974822E+02  0.18481325796E+02  0.00000000000E+00 0.  1.
</event>
<event>
 7    1  0.2328810E-008  0.4614232E+02  0.7816164E-02  0.1320468E+00
        -11   -1    0    0    0    0  0.00000000000E+00  0.00000000000E+00  0.45593999997E+02  0.45594000000E+02  0.51100000000E-03 0.  1.
         11   -1    0    0    0    0 -0.00000000000E+00 -0.00000000000E+00 -0.45593999997E+02  0.45594000000E+02  0.51100000000E-03 0. -1.
    9900012    2    1    2    0    0  0.12575092256E+02 -0.29940843446E+01  0.43151082914E+02  0.46142318265E+02  0.10000004596E+02 0.  0.
         12    1    1    2    0    0 -0.12575092256E+02  0.29940843446E+01 -0.43151082914E+02  0.45045681735E+02  0.00000000000E+00 0. -1.
         11    1    3    3    0    0  0.10817232569E+01 -0.64545047370E+00  0.61738546364E+00  0.14028173760E+01  0.51100000000E-03 0. -1.
        -11    1    3    3    0    0  0.82627011092E+01 -0.46007214876E+01  0.34782148501E+02  0.36044926445E+02  0.51100000000E-03 0.  1.
        -12    1    3    3    0    0  0.32306678897E+01  0.22520876167E+01  0.77515489499E+01  0.86945744444E+01  0.00000000000E+00 0.  1.
</event>
<event>
 7    1  0.2328810E-008  0.4614232E+02  0.7816164E-02  0.1320468E+00
        -11   -1    0    0    0    0  0.00000000000E+00  0.00000000000E+00  0.45593999997E+02  0.45594000000E+02  0.51100000000E-03 0.  1.
         11   -1    0    0    0    0 -0.00000000000E+00 -0.00000000000E+00 -0.45593999997E+02  0.45594000000E+02  0.51100000000E-03 0. -1.
    9900012    2    1    2    0    0 -0.28642636237E+02 -0.25120276795E+02  0.24035070458E+02  0.46142317312E+02  0.99999959087E+01 0.  0.
         12    1    1    2    0    0  0.28642636237E+02  0.25120276795E+02 -0.24035070458E+02  0.45045682688E+02  0.00000000000E+00 0. -1.
         11    1    3    3    0    0 -0.15998980814E+01 -0.27087397793E+01  0.55477032672E+01  0.63776137281E+01  0.51100000000E-03 0. -1.
        -11    1    3    3    0    0 -0.10428153287E+02 -0.10064108777E+02  0.81457421569E+01  0.16624854346E+02  0.51100000000E-03 0.  1.
         12    1    3    3    0    0 -0.16614584868E+02 -0.12347428239E+02  0.10341625034E+02  0.23139849239E+02  0.00000000000E+00 0. -1.
</event>
<event>
 7    1  0.2328810E-008  0.4614231E+02  0.7816164E-02  0.1320468E+00
        -11   -1    0    0    0    0  0.00000000000E+00  0.00000000000E+00  0.45593999997E+02  0.45594000000E+02  0.51100000000E-03 0.  1.
         11   -1    0    0    0    0 -0.00000000000E+00 -0.00000000000E+00 -0.45593999997E+02  0.45594000000E+02  0.51100000000E-03 0. -1.
    9900012    2    1    2    0    0  0.39483893872E+02 -0.17727553967E+02  0.12484786452E+02  0.46142312774E+02  0.99999545222E+01 0.  0.
         12    1    1    2    0    0 -0.39483893872E+02  0.17727553967E+02 -0.12484786452E+02  0.45045687226E+02  0.00000000000E+00 0. -1.
         11    1    3    3    0    0  0.80459422618E+01 -0.71046680131E+00  0.13885248117E+01  0.81957276291E+01  0.51100000000E-03 0. -1.
        -11    1    3    3    0    0  0.65758421096E+01 -0.66328097319E+01  0.26002066552E+01  0.96952018700E+01  0.51100000000E-03 0.  1.
        -12    1    3    3    0    0  0.24862109500E+02 -0.10384277433E+02  0.84960549852E+01  0.28251383275E+02  0.00000000000E+00 0.  1.
</event>
<event>
 7    1  0.2328810E-008  0.4614232E+02  0.7816164E-02  0.1320468E+00
        -11   -1    0    0    0    0  0.00000000000E+00  0.00000000000E+00  0.45593999997E+02  0.45594000000E+02  0.51100000000E-03 0. -1.
         11   -1    0    0    0    0 -0.00000000000E+00 -0.00000000000E+00 -0.45593999997E+02  0.45594000000E+02  0.51100000000E-03 0.  1.
    9900012    2    1    2    0    0  0.93184557347E+01  0.35832847831E+02  0.25657101599E+02  0.46142318038E+02  0.10000002521E+02 0.  0.
         12    1    1    2    0    0 -0.93184557347E+01 -0.35832847831E+02 -0.25657101599E+02  0.45045681962E+02  0.00000000000E+00 0. -1.
         11    1    3    3    0    0  0.28122995405E+01  0.79217594833E+01  0.10147354834E+02  0.13176953836E+02  0.51100000000E-03 0. -1.
        -11    1    3    3    0    0  0.20587966878E+00  0.75530896268E+01  0.59084673421E+01  0.95917431128E+01  0.51100000000E-03 0.  1.
        -12    1    3    3    0    0  0.63002765254E+01  0.20357998721E+02  0.96012794235E+01  0.23373621089E+02  0.00000000000E+00 0.  1.
</event>
<event>
 7    1  0.2328810E-008  0.4614232E+02  0.7816164E-02  0.1320468E+00
        -11   -1    0    0    0    0  0.00000000000E+00  0.00000000000E+00  0.45593999997E+02  0.45594000000E+02  0.51100000000E-03 0.  1.
         11   -1    0    0    0    0 -0.00000000000E+00 -0.00000000000E+00 -0.45593999997E+02  0.45594000000E+02  0.51100000000E-03 0. -1.
    9900012    2    1    2    0    0 -0.12726097383E+02  0.30906850995E+02  0.30198122496E+02  0.46142316574E+02  0.99999891761E+01 0.  0.
         12    1    1    2    0    0  0.12726097383E+02 -0.30906850995E+02 -0.30198122496E+02  0.45045683426E+02  0.00000000000E+00 0. -1.
         11    1    3    3    0    0  0.82624653768E+00  0.54547299771E+01  0.41322194875E+01  0.68928949374E+01  0.51100000000E-03 0. -1.
        -11    1    3    3    0    0 -0.62404833109E-01  0.13563870732E+01  0.12890538073E+00  0.13639270926E+01  0.51100000000E-03 0.  1.
        -12    1    3    3    0    0 -0.13489939087E+02  0.24095733945E+02  0.25936997628E+02  0.37885494544E+02  0.00000000000E+00 0.  1.
</event>
<event>
 7    1  0.2328810E-008  0.4614232E+02  0.7816164E-02  0.1320468E+00
        -11   -1    0    0    0    0  0.00000000000E+00  0.00000000000E+00  0.45593999997E+02  0.45594000000E+02  0.51100000000E-03 0.  1.
         11   -1    0    0    0    0 -0.00000000000E+00 -0.00000000000E+00 -0.45593999997E+02  0.45594000000E+02  0.51100000000E-03 0. -1.
    9900012    2    1    2    0    0 -0.18970168352E+02  0.16213637716E+02  0.37501524227E+02  0.46142315916E+02  0.99999831733E+01 0.  0.
         12    1    1    2    0    0  0.18970168352E+02 -0.16213637716E+02 -0.37501524227E+02  0.45045684084E+02  0.00000000000E+00 0. -1.
         11    1    3    3    0    0 -0.74445742939E+01  0.12075381131E+02  0.20254662841E+02  0.24728281034E+02  0.51100000000E-03 0.  1.
        -11    1    3    3    0    0 -0.18846229623E+01  0.38603056813E+00  0.51450459511E+01  0.54929337708E+01  0.51100000000E-03 0. -1.
        -12    1    3    3    0    0 -0.96409710959E+01  0.37522260168E+01  0.12101815435E+02  0.15921101111E+02  0.00000000000E+00 0.  1.
</event>
<event>
 7    1  0.2328810E-008  0.4614231E+02  0.7816164E-02  0.1320468E+00
        -11   -1    0    0    0    0  0.00000000000E+00  0.00000000000E+00  0.45593999997E+02  0.45594000000E+02  0.51100000000E-03 0.  1.
         11   -1    0    0    0    0 -0.00000000000E+00 -0.00000000000E+00 -0.45593999997E+02  0.45594000000E+02  0.51100000000E-03 0. -1.
    9900012    2    1    2    0    0  0.29690934475E+02  0.50775765257E+01  0.33492992326E+02  0.46142313100E+02  0.99999574955E+01 0.  0.
         12    1    1    2    0    0 -0.29690934475E+02 -0.50775765257E+01 -0.33492992326E+02  0.45045686900E+02  0.00000000000E+00 0. -1.
         11    1    3    3    0    0  0.46523723490E+01  0.21391360931E+01  0.53941613170E+01  0.74375700517E+01  0.51100000000E-03 0. -1.
        -11    1    3    3    0    0  0.23441613770E+02  0.32200595530E+01  0.28492077938E+02  0.37036151868E+02  0.51100000000E-03 0.  1.
         12    1    3    3    0    0  0.15969483560E+01 -0.28161912040E+00 -0.39324692942E+00  0.16685911807E+01  0.00000000000E+00 0. -1.
</event>
<event>
 7    1  0.2328810E-008  0.4614232E+02  0.7816164E-02  0.1320468E+00
        -11   -1    0    0    0    0  0.00000000000E+00  0.00000000000E+00  0.45593999997E+02  0.45594000000E+02  0.51100000000E-03 0.  1.
         11   -1    0    0    0    0 -0.00000000000E+00 -0.00000000000E+00 -0.45593999997E+02  0.45594000000E+02  0.51100000000E-03 0. -1.
    9900012    2    1    2    0    0  0.27981155798E+02  0.26789555294E+02  0.22988869115E+02  0.46142318122E+02  0.10000003294E+02 0.  0.
         12    1    1    2    0    0 -0.27981155798E+02 -0.26789555294E+02 -0.22988869115E+02  0.45045681878E+02  0.00000000000E+00 0. -1.
         11    1    3    3    0    0 -0.22155632689E+00  0.20054226936E+01  0.22544922290E+01  0.30254822521E+01  0.51100000000E-03 0. -1.
        -11    1    3    3    0    0  0.25520550105E+02  0.23745481339E+02  0.19815456713E+02  0.40097365084E+02  0.51100000000E-03 0.  1.
         12    1    3    3    0    0  0.26821620202E+01  0.10386512614E+01  0.91892017336E+00  0.30194707865E+01  0.00000000000E+00 0. -1.
</event>
<event>
 7    1  0.2328810E-008  0.4614232E+02  0.7816164E-02  0.1320468E+00
        -11   -1    0    0    0    0  0.00000000000E+00  0.00000000000E+00  0.45593999997E+02  0.45594000000E+02  0.51100000000E-03 0.  1.
         11   -1    0    0    0    0 -0.00000000000E+00 -0.00000000000E+00 -0.45593999997E+02  0.45594000000E+02  0.51100000000E-03 0. -1.
    9900012    2    1    2    0    0  0.32855724880E+02  0.30184255794E+02 -0.62068972873E+01  0.46142317309E+02  0.99999958731E+01 0.  0.
         12    1    1    2    0    0 -0.32855724880E+02 -0.30184255794E+02  0.62068972873E+01  0.45045682691E+02  0.00000000000E+00 0. -1.
         11    1    3    3    0    0  0.47041065088E+01  0.97850530377E+01 -0.14932115967E+01  0.10959268321E+02  0.51100000000E-03 0. -1.
        -11    1    3    3    0    0  0.89327121035E+01  0.53991677500E+01 -0.56497010892E+00  0.10452920616E+02  0.51100000000E-03 0.  1.
        -12    1    3    3    0    0  0.19218906267E+02  0.15000035006E+02 -0.41487155818E+01  0.24730128372E+02  0.00000000000E+00 0.  1.
</event>
<event>
 7    1  0.2328810E-008  0.4614232E+02  0.7816164E-02  0.1320468E+00
        -11   -1    0    0    0    0  0.00000000000E+00  0.00000000000E+00  0.45593999997E+02  0.45594000000E+02  0.51100000000E-03 0.  1.
         11   -1    0    0    0    0 -0.00000000000E+00 -0.00000000000E+00 -0.45593999997E+02  0.45594000000E+02  0.51100000000E-03 0. -1.
    9900012    2    1    2    0    0  0.20071627603E+02  0.67938746043E+01  0.39750302672E+02  0.46142317307E+02  0.99999958586E+01 0.  0.
         12    1    1    2    0    0 -0.20071627603E+02 -0.67938746043E+01 -0.39750302672E+02  0.45045682693E+02  0.00000000000E+00 0. -1.
         11    1    3    3    0    0  0.14953344925E+01  0.10365615905E+01  0.14187429744E+01  0.23072314717E+01  0.51100000000E-03 0. -1.
        -11    1    3    3    0    0  0.43936739913E+01  0.54823280189E+01  0.14201578745E+02  0.15844403768E+02  0.51100000000E-03 0.  1.
         12    1    3    3    0    0  0.14182619119E+02  0.27498499480E+00  0.24129980953E+02  0.27990682067E+02  0.00000000000E+00 0. -1.
</event>
<event>
 7    1  0.2328810E-008  0.4614232E+02  0.7816164E-02  0.1320468E+00
        -11   -1    0    0    0    0  0.00000000000E+00  0.00000000000E+00  0.45593999997E+02  0.45594000000E+02  0.51100000000E-03 0.  1.
         11   -1    0    0    0    0 -0.00000000000E+00 -0.00000000000E+00 -0.45593999997E+02  0.45594000000E+02  0.51100000000E-03 0. -1.
    9900012    2    1    2    0    0 -0.22988799530E+02 -0.22450671546E+02  0.31568908207E+02  0.46142317387E+02  0.99999965913E+01 0.  0.
         12    1    1    2    0    0  0.22988799530E+02  0.22450671546E+02 -0.31568908207E+02  0.45045682613E+02  0.00000000000E+00 0. -1.
         11    1    3    3    0    0 -0.97975343346E+00 -0.39837720767E+01  0.35344441271E+01  0.54150394549E+01  0.51100000000E-03 0. -1.
        -11    1    3    3    0    0 -0.13676482357E+02 -0.14587770363E+02  0.16151411027E+02  0.25704421648E+02  0.51100000000E-03 0.  1.
         12    1    3    3    0    0 -0.83325637399E+01 -0.38791291058E+01  0.11883053053E+02  0.15022856285E+02  0.00000000000E+00 0. -1.
</event>
<event>
 7    1  0.2328810E-008  0.4614232E+02  0.7816164E-02  0.1320468E+00
        -11   -1    0    0    0    0  0.00000000000E+00  0.00000000000E+00  0.45593999997E+02  0.45594000000E+02  0.51100000000E-03 0.  1.
         11   -1    0    0    0    0 -0.00000000000E+00 -0.00000000000E+00 -0.45593999997E+02  0.45594000000E+02  0.51100000000E-03 0. -1.
    9900012    2    1    2    0    0 -0.12384520952E+02  0.84171821160E+01  0.42483975742E+02  0.46142317534E+02  0.99999979314E+01 0.  0.
         12    1    1    2    0    0  0.12384520952E+02 -0.84171821160E+01 -0.42483975742E+02  0.45045682466E+02  0.00000000000E+00 0. -1.
         11    1    3    3    0    0 -0.92518985844E+01  0.18649292561E+01  0.25993397934E+02  0.27653794043E+02  0.51100000000E-03 0. -1.
        -11    1    3    3    0    0  0.10072797789E-01  0.48880357473E+00  0.56826291604E+01  0.57036220800E+01  0.51100000000E-03 0.  1.
         12    1    3    3    0    0 -0.31426951658E+01  0.60634492852E+01  0.10807948647E+02  0.12784901411E+02  0.00000000000E+00 0. -1.
</event>
<event>
 7    1  0.2328810E-008  0.4614232E+02  0.7816164E-02  0.1320468E+00
        -11   -1    0    0    0    0  0.00000000000E+00  0.00000000000E+00  0.45593999997E+02  0.45594000000E+02  0.51100000000E-03 0.  1.
         11   -1    0    0    0    0 -0.00000000000E+00 -0.00000000000E+00 -0.45593999997E+02  0.45594000000E+02  0.51100000000E-03 0. -1.
    9900012    2    1    2    0    0  0.39887135123E+01 -0.38997169589E+02 -0.22190637591E+02  0.46142317986E+02  0.10000002052E+02 0.  0.
         12    1    1    2    0    0 -0.39887135123E+01  0.38997169589E+02  0.22190637591E+02  0.45045682014E+02  0.00000000000E+00 0. -1.
         11    1    3    3    0    0 -0.97919295475E+00 -0.55602667992E+01 -0.17412885997E+00  0.56485136843E+01  0.51100000000E-03 0. -1.
        -11    1    3    3    0    0  0.16803657470E+01 -0.44133096577E+01 -0.22979803186E+01  0.52518230153E+01  0.51100000000E-03 0.  1.
        -12    1    3    3    0    0  0.32875407201E+01 -0.29023593132E+02 -0.19718528412E+02  0.35241981287E+02  0.00000000000E+00 0.  1.
</event>
<event>
 7    1  0.2328810E-008  0.4614232E+02  0.7816164E-02  0.1320468E+00
        -11   -1    0    0    0    0  0.00000000000E+00  0.00000000000E+00  0.45593999997E+02  0.45594000000E+02  0.51100000000E-03 0.  1.
         11   -1    0    0    0    0 -0.00000000000E+00 -0.00000000000E+00 -0.45593999997E+02  0.45594000000E+02  0.51100000000E-03 0. -1.
    9900012    2    1    2    0    0 -0.17279428755E+02 -0.31931676239E+02  0.26662761577E+02  0.46142318072E+02  0.10000002830E+02 0.  0.
         12    1    1    2    0    0  0.17279428755E+02  0.31931676239E+02 -0.26662761577E+02  0.45045681928E+02  0.00000000000E+00 0. -1.
         11    1    3    3    0    0 -0.10592424052E+00 -0.17944567740E+00 -0.31985855387E+00  0.38174658017E+00  0.51100000000E-03 0. -1.
        -11    1    3    3    0    0 -0.12610984510E+02 -0.16060253297E+02  0.17319081495E+02  0.26775347810E+02  0.51100000000E-03 0.  1.
        -12    1    3    3    0    0 -0.45625200044E+01 -0.15691977265E+02  0.96635386356E+01  0.18985223681E+02  0.00000000000E+00 0.  1.
</event>
<event>
 7    1  0.2328810E-008  0.4614232E+02  0.7816164E-02  0.1320468E+00
        -11   -1    0    0    0    0  0.00000000000E+00  0.00000000000E+00  0.45593999997E+02  0.45594000000E+02  0.51100000000E-03 0.  1.
         11   -1    0    0    0    0 -0.00000000000E+00 -0.00000000000E+00 -0.45593999997E+02  0.45594000000E+02  0.51100000000E-03 0. -1.
    9900012    2    1    2    0    0 -0.35868898728E+02  0.15609745481E+02  0.22335430136E+02  0.46142317750E+02  0.99999998998E+01 0.  0.
         12    1    1    2    0    0  0.35868898728E+02 -0.15609745481E+02 -0.22335430136E+02  0.45045682250E+02  0.00000000000E+00 0. -1.
         11    1    3    3    0    0 -0.54566929001E+01 -0.68029146039E-01  0.60945200888E+01  0.81806662775E+01  0.51100000000E-03 0. -1.
        -11    1    3    3    0    0 -0.98874920403E+01  0.49890302557E+01  0.39441483423E+01  0.11756242093E+02  0.51100000000E-03 0.  1.
        -12    1    3    3    0    0 -0.20524713788E+02  0.10688744371E+02  0.12296761705E+02  0.26205409380E+02  0.00000000000E+00 0.  1.
</event>
<event>
 7    1  0.2328810E-008  0.4614231E+02  0.7816164E-02  0.1320468E+00
        -11   -1    0    0    0    0  0.00000000000E+00  0.00000000000E+00  0.45593999997E+02  0.45594000000E+02  0.51100000000E-03 0.  1.
         11   -1    0    0    0    0 -0.00000000000E+00 -0.00000000000E+00 -0.45593999997E+02  0.45594000000E+02  0.51100000000E-03 0. -1.
    9900012    2    1    2    0    0  0.67052148671E+01  0.43946245625E+02  0.72719600948E+01  0.46142314141E+02  0.99999669858E+01 0.  0.
         12    1    1    2    0    0 -0.67052148671E+01 -0.43946245625E+02 -0.72719600948E+01  0.45045685859E+02  0.00000000000E+00 0. -1.
         11    1    3    3    0    0  0.10011467662E+01  0.21078251063E+01 -0.30283476124E+00  0.23530683543E+01  0.51100000000E-03 0. -1.
        -11    1    3    3    0    0  0.61811185228E+01  0.14243045865E+02  0.29820776517E+01  0.15810229887E+02  0.51100000000E-03 0.  1.
        -12    1    3    3    0    0 -0.47705042186E+00  0.27595374653E+02  0.45927172044E+01  0.27979015899E+02  0.00000000000E+00 0.  1.
</event>
<event>
 7    1  0.2328810E-008  0.4614232E+02  0.7816164E-02  0.1320468E+00
        -11   -1    0    0    0    0  0.00000000000E+00  0.00000000000E+00  0.45593999997E+02  0.45594000000E+02  0.51100000000E-03 0. -1.
         11   -1    0    0    0    0 -0.00000000000E+00 -0.00000000000E+00 -0.45593999997E+02  0.45594000000E+02  0.51100000000E-03 0.  1.
    9900012    2    1    2    0    0 -0.12238686954E+02  0.87351863538E+01 -0.42462036243E+02  0.46142318066E+02  0.10000002781E+02 0.  0.
         12    1    1    2    0    0  0.12238686954E+02 -0.87351863538E+01  0.42462036243E+02  0.45045681934E+02  0.00000000000E+00 0. -1.
         11    1    3    3    0    0 -0.72133741997E+01  0.43203368547E+01 -0.14887048454E+02  0.17097435182E+02  0.51100000000E-03 0. -1.
        -11    1    3    3    0    0 -0.11030633572E+01 -0.54689718737E-01 -0.15941449375E+02  0.15979660452E+02  0.51100000000E-03 0.  1.
        -12    1    3    3    0    0 -0.39222493969E+01  0.44695392178E+01 -0.11633538415E+02  0.13065222432E+02  0.00000000000E+00 0.  1.
</event>
<event>
 7    1  0.2328810E-008  0.4614232E+02  0.7816164E-02  0.1320468E+00
        -11   -1    0    0    0    0  0.00000000000E+00  0.00000000000E+00  0.45593999997E+02  0.45594000000E+02  0.51100000000E-03 0.  1.
         11   -1    0    0    0    0 -0.00000000000E+00 -0.00000000000E+00 -0.45593999997E+02  0.45594000000E+02  0.51100000000E-03 0. -1.
    9900012    2    1    2    0    0  0.10476572268E+02 -0.37771789444E+01  0.43647312700E+02  0.46142317041E+02  0.99999934358E+01 0.  0.
         12    1    1    2    0    0 -0.10476572268E+02  0.37771789444E+01 -0.43647312700E+02  0.45045682959E+02  0.00000000000E+00 0. -1.
         11    1    3    3    0    0  0.48810899877E+00  0.10144182209E+01  0.20855251770E+01  0.23699599673E+01  0.51100000000E-03 0. -1.
        -11    1    3    3    0    0  0.19174786436E+01 -0.14003312569E+01  0.24317072240E+02  0.24432716889E+02  0.51100000000E-03 0.  1.
        -12    1    3    3    0    0  0.80709846260E+01 -0.33912659084E+01  0.17244715283E+02  0.19339640185E+02  0.00000000000E+00 0.  1.
</event>
<event>
 7    1  0.2328810E-008  0.4614232E+02  0.7816164E-02  0.1320468E+00
        -11   -1    0    0    0    0  0.00000000000E+00  0.00000000000E+00  0.45593999997E+02  0.45594000000E+02  0.51100000000E-03 0.  1.
         11   -1    0    0    0    0 -0.00000000000E+00 -0.00000000000E+00 -0.45593999997E+02  0.45594000000E+02  0.51100000000E-03 0. -1.
    9900012    2    1    2    0    0  0.30988405153E+02 -0.11563478626E+02  0.30579702328E+02  0.46142317784E+02  0.10000000208E+02 0.  0.
         12    1    1    2    0    0 -0.30988405153E+02  0.11563478626E+02 -0.30579702328E+02  0.45045682216E+02  0.00000000000E+00 0. -1.
         11    1    3    3    0    0  0.51383610503E+01  0.11865454916E+00  0.25694703602E+01  0.57462171364E+01  0.51100000000E-03 0. -1.
        -11    1    3    3    0    0  0.27347937459E+01 -0.41198916739E-01  0.52987395674E+01  0.59630055717E+01  0.51100000000E-03 0.  1.
        -12    1    3    3    0    0  0.23115250357E+02 -0.11640934259E+02  0.22711492400E+02  0.34433095076E+02  0.00000000000E+00 0.  1.
</event>
<event>
 7    1  0.2328810E-008  0.4614232E+02  0.7816164E-02  0.1320468E+00
        -11   -1    0    0    0    0  0.00000000000E+00  0.00000000000E+00  0.45593999997E+02  0.45594000000E+02  0.51100000000E-03 0.  1.
         11   -1    0    0    0    0 -0.00000000000E+00 -0.00000000000E+00 -0.45593999997E+02  0.45594000000E+02  0.51100000000E-03 0. -1.
    9900012    2    1    2    0    0  0.27162500638E+02 -0.32661190770E+02  0.14985279224E+02  0.46142318556E+02  0.10000007244E+02 0.  0.
         12    1    1    2    0    0 -0.27162500638E+02  0.32661190770E+02 -0.14985279224E+02  0.45045681444E+02  0.00000000000E+00 0. -1.
         11    1    3    3    0    0  0.67709623772E+01 -0.99842654250E+01  0.17209922375E+01  0.12185782787E+02  0.51100000000E-03 0. -1.
        -11    1    3    3    0    0  0.19344267592E+02 -0.22451138603E+02  0.13875801961E+02  0.32722961260E+02  0.51100000000E-03 0.  1.
         12    1    3    3    0    0  0.10472706681E+01 -0.22578674125E+00 -0.61151497463E+00  0.12335745089E+01  0.00000000000E+00 0. -1.
</event>
<event>
 7    1  0.2328810E-008  0.4614232E+02  0.7816164E-02  0.1320468E+00
        -11   -1    0    0    0    0  0.00000000000E+00  0.00000000000E+00  0.45593999997E+02  0.45594000000E+02  0.51100000000E-03 0.  1.
         11   -1    0    0    0    0 -0.00000000000E+00 -0.00000000000E+00 -0.45593999997E+02  0.45594000000E+02  0.51100000000E-03 0. -1.
    9900012    2    1    2    0    0 -0.16823075602E+02 -0.38912659609E+02  0.15228344698E+02  0.46142318377E+02  0.10000005619E+02 0.  0.
         12    1    1    2    0    0  0.16823075602E+02  0.38912659609E+02 -0.15228344698E+02  0.45045681623E+02  0.00000000000E+00 0. -1.
         11    1    3    3    0    0 -0.98449775358E+01 -0.14209102183E+02  0.94162934024E+01  0.19684733913E+02  0.51100000000E-03 0. -1.
        -11    1    3    3    0    0 -0.47094860278E+01 -0.12856758414E+02  0.39667209313E+01  0.14255187504E+02  0.51100000000E-03 0.  1.
         12    1    3    3    0    0 -0.22686120388E+01 -0.11846799013E+02  0.18453303646E+01  0.12202396961E+02  0.00000000000E+00 0. -1.
</event>
<event>
 7    1  0.2328810E-008  0.4614232E+02  0.7816164E-02  0.1320468E+00
        -11   -1    0    0    0    0  0.00000000000E+00  0.00000000000E+00  0.45593999997E+02  0.45594000000E+02  0.51100000000E-03 0.  1.
         11   -1    0    0    0    0 -0.00000000000E+00 -0.00000000000E+00 -0.45593999997E+02  0.45594000000E+02  0.51100000000E-03 0. -1.
    9900012    2    1    2    0    0 -0.11845833983E+02  0.10166456047E+02  0.42254382739E+02  0.46142317943E+02  0.10000001661E+02 0.  0.
         12    1    1    2    0    0  0.11845833983E+02 -0.10166456047E+02 -0.42254382739E+02  0.45045682057E+02  0.00000000000E+00 0. -1.
         11    1    3    3    0    0  0.29317398239E+00  0.12244858206E+01  0.42803301385E+01  0.44616748945E+01  0.51100000000E-03 0. -1.
        -11    1    3    3    0    0  0.51645175556E+00  0.16454786363E+01  0.97380371878E+01  0.98895748589E+01  0.51100000000E-03 0.  1.
        -12    1    3    3    0    0 -0.12655459721E+02  0.72964915901E+01  0.28236015413E+02  0.31791068190E+02  0.00000000000E+00 0.  1.
</event>
<event>
 7    1  0.2328810E-008  0.4614232E+02  0.7816164E-02  0.1320468E+00
        -11   -1    0    0    0    0  0.00000000000E+00  0.00000000000E+00  0.45593999997E+02  0.45594000000E+02  0.51100000000E-03 0.  1.
         11   -1    0    0    0    0 -0.00000000000E+00 -0.00000000000E+00 -0.45593999997E+02  0.45594000000E+02  0.51100000000E-03 0. -1.
    9900012    2    1    2    0    0  0.32365706451E+02  0.26262626487E+02  0.17083586367E+02  0.46142318440E+02  0.10000006191E+02 0.  0.
         12    1    1    2    0    0 -0.32365706451E+02 -0.26262626487E+02 -0.17083586367E+02  0.45045681560E+02  0.00000000000E+00 0. -1.
         11    1    3    3    0    0  0.14928797894E+01  0.32887525528E-02  0.17227614133E+01  0.22796069902E+01  0.51100000000E-03 0. -1.
        -11    1    3    3    0    0  0.67831124730E+01  0.83097247859E+01  0.16988361114E+01  0.10860395261E+02  0.51100000000E-03 0.  1.
         12    1    3    3    0    0  0.24089714188E+02  0.17949612948E+02  0.13661988842E+02  0.33002316188E+02  0.00000000000E+00 0. -1.
</event>
<event>
 7    1  0.2328810E-008  0.4614232E+02  0.7816164E-02  0.1320468E+00
        -11   -1    0    0    0    0  0.00000000000E+00  0.00000000000E+00  0.45593999997E+02  0.45594000000E+02  0.51100000000E-03 0.  1.
         11   -1    0    0    0    0 -0.00000000000E+00 -0.00000000000E+00 -0.45593999997E+02  0.45594000000E+02  0.51100000000E-03 0. -1.
    9900012    2    1    2    0    0 -0.26727430691E+02 -0.21405248035E+02  0.29267272566E+02  0.46142318317E+02  0.10000005073E+02 0.  0.
         12    1    1    2    0    0  0.26727430691E+02  0.21405248035E+02 -0.29267272566E+02  0.45045681683E+02  0.00000000000E+00 0. -1.
         11    1    3    3    0    0 -0.25393954964E+01 -0.11583597966E+01  0.21964642279E+00  0.27997449380E+01  0.51100000000E-03 0. -1.
        -11    1    3    3    0    0 -0.49927756691E+01 -0.57363806866E+01  0.39355573398E+01  0.85628549035E+01  0.51100000000E-03 0.  1.
        -12    1    3    3    0    0 -0.19195259525E+02 -0.14510507552E+02  0.25112068804E+02  0.34779718476E+02  0.00000000000E+00 0.  1.
</event>
<event>
 7    1  0.2328810E-008  0.4614232E+02  0.7816164E-02  0.1320468E+00
        -11   -1    0    0    0    0  0.00000000000E+00  0.00000000000E+00  0.45593999997E+02  0.45594000000E+02  0.51100000000E-03 0.  1.
         11   -1    0    0    0    0 -0.00000000000E+00 -0.00000000000E+00 -0.45593999997E+02  0.45594000000E+02  0.51100000000E-03 0. -1.
    9900012    2    1    2    0    0  0.11204036769E+02 -0.36960388501E+02  0.23184317917E+02  0.46142319238E+02  0.10000013466E+02 0.  0.
         12    1    1    2    0    0 -0.11204036769E+02  0.36960388501E+02 -0.23184317917E+02  0.45045680762E+02  0.00000000000E+00 0. -1.
         11    1    3    3    0    0  0.69015265832E+00 -0.10903521008E+02  0.97828294280E+01  0.14665157106E+02  0.51100000000E-03 0. -1.
        -11    1    3    3    0    0  0.94806818725E+01 -0.22217509360E+02  0.13125978427E+02  0.27491678030E+02  0.51100000000E-03 0.  1.
         12    1    3    3    0    0  0.10332022384E+01 -0.38393581325E+01  0.27551006141E+00  0.39854841023E+01  0.00000000000E+00 0. -1.
</event>
<event>
 7    1  0.2328810E-008  0.4614232E+02  0.7816164E-02  0.1320468E+00
        -11   -1    0    0    0    0  0.00000000000E+00  0.00000000000E+00  0.45593999997E+02  0.45594000000E+02  0.51100000000E-03 0.  1.
         11   -1    0    0    0    0 -0.00000000000E+00 -0.00000000000E+00 -0.45593999997E+02  0.45594000000E+02  0.51100000000E-03 0. -1.
    9900012    2    1    2    0    0  0.26057801996E+02 -0.14489649821E+02  0.33766169262E+02  0.46142321146E+02  0.10000030867E+02 0.  0.
         12    1    1    2    0    0 -0.26057801996E+02  0.14489649821E+02 -0.33766169262E+02  0.45045678854E+02  0.00000000000E+00 0. -1.
         11    1    3    3    0    0  0.54077824698E+01 -0.52532494033E+01  0.58720157469E+01  0.95562183801E+01  0.51100000000E-03 0. -1.
        -11    1    3    3    0    0  0.20197195172E+01 -0.13392980017E+01  0.41216278564E+00  0.24582238483E+01  0.51100000000E-03 0.  1.
        -12    1    3    3    0    0  0.18630300009E+02 -0.78971024163E+01  0.27481990729E+02  0.34127878918E+02  0.00000000000E+00 0.  1.
</event>
<event>
 7    1  0.2328810E-008  0.4614232E+02  0.7816164E-02  0.1320468E+00
        -11   -1    0    0    0    0  0.00000000000E+00  0.00000000000E+00  0.45593999997E+02  0.45594000000E+02  0.51100000000E-03 0. -1.
         11   -1    0    0    0    0 -0.00000000000E+00 -0.00000000000E+00 -0.45593999997E+02  0.45594000000E+02  0.51100000000E-03 0.  1.
    9900012    2    1    2    0    0  0.89489078722E+01  0.41393354672E+02  0.15349943503E+02  0.46142317314E+02  0.99999959213E+01 0.  0.
         12    1    1    2    0    0 -0.89489078722E+01 -0.41393354672E+02 -0.15349943503E+02  0.45045682686E+02  0.00000000000E+00 0. -1.
         11    1    3    3    0    0  0.58272612876E+01  0.13131279801E+02  0.23642785262E+01  0.14559440118E+02  0.51100000000E-03 0. -1.
        -11    1    3    3    0    0  0.24236802577E+01  0.55227148090E+01  0.24099208332E+01  0.64947920318E+01  0.51100000000E-03 0.  1.
        -12    1    3    3    0    0  0.69796632692E+00  0.22739360062E+02  0.10575744143E+02  0.25088085164E+02  0.00000000000E+00 0.  1.
</event>
<event>
 7    1  0.2328810E-008  0.4614232E+02  0.7816164E-02  0.1320468E+00
        -11   -1    0    0    0    0  0.00000000000E+00  0.00000000000E+00  0.45593999997E+02  0.45594000000E+02  0.51100000000E-03 0. -1.
         11   -1    0    0    0    0 -0.00000000000E+00 -0.00000000000E+00 -0.45593999997E+02  0.45594000000E+02  0.51100000000E-03 0.  1.
    9900012    2    1    2    0    0 -0.16628311062E+02  0.16666031694E+02 -0.38403855854E+02  0.46142317791E+02  0.10000000277E+02 0.  0.
         12    1    1    2    0    0  0.16628311062E+02 -0.16666031694E+02  0.38403855854E+02  0.45045682209E+02  0.00000000000E+00 0. -1.
         11    1    3    3    0    0 -0.45197285988E+01  0.10691264375E+01 -0.67353118277E+01  0.81814059686E+01  0.51100000000E-03 0. -1.
        -11    1    3    3    0    0  0.86250761585E+00  0.17274325217E+01 -0.32944653488E+01  0.38185657910E+01  0.51100000000E-03 0.  1.
         12    1    3    3    0    0 -0.12971090079E+02  0.13869472735E+02 -0.28374078677E+02  0.34142346032E+02  0.00000000000E+00 0. -1.
</event>
<event>
 7    1  0.2328810E-008  0.4614232E+02  0.7816164E-02  0.1320468E+00
        -11   -1    0    0    0    0  0.00000000000E+00  0.00000000000E+00  0.45593999997E+02  0.45594000000E+02  0.51100000000E-03 0.  1.
         11   -1    0    0    0    0 -0.00000000000E+00 -0.00000000000E+00 -0.45593999997E+02  0.45594000000E+02  0.51100000000E-03 0. -1.
    9900012    2    1    2    0    0  0.18017808891E+02  0.10665170902E+01  0.41271475069E+02  0.46142317074E+02  0.99999937350E+01 0.  0.
         12    1    1    2    0    0 -0.18017808891E+02 -0.10665170902E+01 -0.41271475069E+02  0.45045682926E+02  0.00000000000E+00 0. -1.
         11    1    3    3    0    0  0.40296055499E+01 -0.21107865387E+00  0.70821410601E+01  0.81510120441E+01  0.51100000000E-03 0. -1.
        -11    1    3    3    0    0  0.11794803610E+01  0.36021469156E-01 -0.26736249205E+00  0.12099398462E+01  0.51100000000E-03 0.  1.
        -12    1    3    3    0    0  0.12808722980E+02  0.12415742749E+01  0.34456696500E+02  0.36781365184E+02  0.00000000000E+00 0.  1.
</event>
<event>
 7    1  0.2328810E-008  0.4614232E+02  0.7816164E-02  0.1320468E+00
        -11   -1    0    0    0    0  0.00000000000E+00  0.00000000000E+00  0.45593999997E+02  0.45594000000E+02  0.51100000000E-03 0.  1.
         11   -1    0    0    0    0 -0.00000000000E+00 -0.00000000000E+00 -0.45593999997E+02  0.45594000000E+02  0.51100000000E-03 0. -1.
    9900012    2    1    2    0    0 -0.34586612691E+02 -0.24273400301E+02  0.15610307434E+02  0.46142318322E+02  0.10000005118E+02 0.  0.
         12    1    1    2    0    0  0.34586612691E+02  0.24273400301E+02 -0.15610307434E+02  0.45045681678E+02  0.00000000000E+00 0. -1.
         11    1    3    3    0    0 -0.85836782127E+01 -0.20539903323E+01  0.85261920207E+00  0.88670946600E+01  0.51100000000E-03 0. -1.
        -11    1    3    3    0    0 -0.17119412598E+02 -0.15165120591E+02  0.10387153004E+02  0.25118680658E+02  0.51100000000E-03 0.  1.
         12    1    3    3    0    0 -0.88835218803E+01 -0.70542893781E+01  0.43705352285E+01  0.12156543004E+02  0.00000000000E+00 0. -1.
</event>
<event>
 7    1  0.2328810E-008  0.4614231E+02  0.7816164E-02  0.1320468E+00
        -11   -1    0    0    0    0  0.00000000000E+00  0.00000000000E+00  0.45593999997E+02  0.45594000000E+02  0.51100000000E-03 0.  1.
         11   -1    0    0    0    0 -0.00000000000E+00 -0.00000000000E+00 -0.45593999997E+02  0.45594000000E+02  0.51100000000E-03 0. -1.
    9900012    2    1    2    0    0 -0.95325687596E+01  0.29268287326E+02  0.32887862268E+02  0.46142312141E+02  0.99999487529E+01 0.  0.
         12    1    1    2    0    0  0.95325687596E+01 -0.29268287326E+02 -0.32887862268E+02  0.45045687859E+02  0.00000000000E+00 0. -1.
         11    1    3    3    0    0 -0.26158224441E+01  0.95282459999E+01  0.15290673949E+02  0.18205348362E+02  0.51100000000E-03 0. -1.
        -11    1    3    3    0    0 -0.54729364904E+01  0.15731993298E+02  0.16693044398E+02  0.23581907864E+02  0.51100000000E-03 0.  1.
         12    1    3    3    0    0 -0.14438098250E+01  0.40080480275E+01  0.90414392119E+00  0.43550559160E+01  0.00000000000E+00 0. -1.
</event>
<event>
 7    1  0.2328810E-008  0.4614232E+02  0.7816164E-02  0.1320468E+00
        -11   -1    0    0    0    0  0.00000000000E+00  0.00000000000E+00  0.45593999997E+02  0.45594000000E+02  0.51100000000E-03 0.  1.
         11   -1    0    0    0    0 -0.00000000000E+00 -0.00000000000E+00 -0.45593999997E+02  0.45594000000E+02  0.51100000000E-03 0. -1.
    9900012    2    1    2    0    0  0.89936134402E+01 -0.44112473119E+02  0.15225449972E+01  0.46142317514E+02  0.99999977484E+01 0.  0.
         12    1    1    2    0    0 -0.89936134402E+01  0.44112473119E+02 -0.15225449972E+01  0.45045682486E+02  0.00000000000E+00 0. -1.
         11    1    3    3    0    0  0.51672076201E+01 -0.16352409807E+02  0.48619437624E+01  0.17825258441E+02  0.51100000000E-03 0. -1.
        -11    1    3    3    0    0  0.11153743469E+01 -0.77737481824E+01  0.11410415352E+00  0.78541861931E+01  0.51100000000E-03 0.  1.
        -12    1    3    3    0    0  0.27110314732E+01 -0.19986315129E+02 -0.34535029187E+01  0.20462872880E+02  0.00000000000E+00 0.  1.
</event>
<event>
 7    1  0.2328810E-008  0.4614232E+02  0.7816164E-02  0.1320468E+00
        -11   -1    0    0    0    0  0.00000000000E+00  0.00000000000E+00  0.45593999997E+02  0.45594000000E+02  0.51100000000E-03 0.  1.
         11   -1    0    0    0    0 -0.00000000000E+00 -0.00000000000E+00 -0.45593999997E+02  0.45594000000E+02  0.51100000000E-03 0. -1.
    9900012    2    1    2    0    0 -0.29084727158E+02 -0.24307172656E+02 -0.24338312703E+02  0.46142318058E+02  0.10000002707E+02 0.  0.
         12    1    1    2    0    0  0.29084727158E+02  0.24307172656E+02  0.24338312703E+02  0.45045681942E+02  0.00000000000E+00 0. -1.
         11    1    3    3    0    0 -0.14051510985E+02 -0.11775762766E+02 -0.65401971185E+01  0.19465038615E+02  0.51100000000E-03 0.  1.
        -11    1    3    3    0    0 -0.72018824020E+01 -0.39571023702E+01 -0.65242642210E+01  0.10492463638E+02  0.51100000000E-03 0. -1.
        -12    1    3    3    0    0 -0.78313337713E+01 -0.85743075194E+01 -0.11273851364E+02  0.16184815805E+02  0.00000000000E+00 0.  1.
</event>
<event>
 7    1  0.2328810E-008  0.4614232E+02  0.7816164E-02  0.1320468E+00
        -11   -1    0    0    0    0  0.00000000000E+00  0.00000000000E+00  0.45593999997E+02  0.45594000000E+02  0.51100000000E-03 0. -1.
         11   -1    0    0    0    0 -0.00000000000E+00 -0.00000000000E+00 -0.45593999997E+02  0.45594000000E+02  0.51100000000E-03 0.  1.
    9900012    2    1    2    0    0  0.31966973836E+02 -0.18994526682E+02 -0.25425065502E+02  0.46142318566E+02  0.10000007337E+02 0.  0.
         12    1    1    2    0    0 -0.31966973836E+02  0.18994526682E+02  0.25425065502E+02  0.45045681434E+02  0.00000000000E+00 0. -1.
         11    1    3    3    0    0  0.57625837720E-01 -0.13556104635E+01 -0.24372784677E+01  0.27895030124E+01  0.51100000000E-03 0. -1.
        -11    1    3    3    0    0  0.18645156057E+02 -0.10039314530E+02 -0.16017754568E+02  0.26551801112E+02  0.51100000000E-03 0.  1.
        -12    1    3    3    0    0  0.13264191941E+02 -0.75996016890E+01 -0.69700324663E+01  0.16801014442E+02  0.00000000000E+00 0.  1.
</event>
<event>
 7    1  0.2328810E-008  0.4614232E+02  0.7816164E-02  0.1320468E+00
        -11   -1    0    0    0    0  0.00000000000E+00  0.00000000000E+00  0.45593999997E+02  0.45594000000E+02  0.51100000000E-03 0.  1.
         11   -1    0    0    0    0 -0.00000000000E+00 -0.00000000000E+00 -0.45593999997E+02  0.45594000000E+02  0.51100000000E-03 0. -1.
    9900012    2    1    2    0    0 -0.25006563770E+02 -0.33734339882E+02  0.16302733929E+02  0.46142322600E+02  0.10000044122E+02 0.  0.
         12    1    1    2    0    0  0.25006563770E+02  0.33734339882E+02 -0.16302733929E+02  0.45045677400E+02  0.00000000000E+00 0. -1.
         11    1    3    3    0    0 -0.10858005615E+02 -0.85063815971E+01  0.34988259774E+01  0.14230129911E+02  0.51100000000E-03 0. -1.
        -11    1    3    3    0    0 -0.88421170700E+01 -0.14496317854E+02  0.96546300583E+01  0.19533001496E+02  0.51100000000E-03 0.  1.
        -12    1    3    3    0    0 -0.53064410849E+01 -0.10731640431E+02  0.31492778936E+01  0.12379191192E+02  0.00000000000E+00 0.  1.
</event>
<event>
 7    1  0.2328810E-008  0.4614232E+02  0.7816164E-02  0.1320468E+00
        -11   -1    0    0    0    0  0.00000000000E+00  0.00000000000E+00  0.45593999997E+02  0.45594000000E+02  0.51100000000E-03 0. -1.
         11   -1    0    0    0    0 -0.00000000000E+00 -0.00000000000E+00 -0.45593999997E+02  0.45594000000E+02  0.51100000000E-03 0.  1.
    9900012    2    1    2    0    0 -0.32255141916E+02 -0.24698888230E+02 -0.19459811322E+02  0.46142317449E+02  0.99999971523E+01 0.  0.
         12    1    1    2    0    0  0.32255141916E+02  0.24698888230E+02  0.19459811322E+02  0.45045682551E+02  0.00000000000E+00 0. -1.
         11    1    3    3    0    0 -0.11793303102E+02 -0.78222018522E+01 -0.31740466263E+01  0.14503220750E+02  0.51100000000E-03 0. -1.
        -11    1    3    3    0    0 -0.13807385406E+02 -0.12514313442E+02 -0.84133752561E+01  0.20445948649E+02  0.51100000000E-03 0.  1.
         12    1    3    3    0    0 -0.66544534076E+01 -0.43623729356E+01 -0.78723894397E+01  0.11193148050E+02  0.00000000000E+00 0. -1.
</event>
<event>
 7    1  0.2328810E-008  0.4614232E+02  0.7816164E-02  0.1320468E+00
        -11   -1    0    0    0    0  0.00000000000E+00  0.00000000000E+00  0.45593999997E+02  0.45594000000E+02  0.51100000000E-03 0. -1.
         11   -1    0    0    0    0 -0.00000000000E+00 -0.00000000000E+00 -0.45593999997E+02  0.45594000000E+02  0.51100000000E-03 0.  1.
    9900012    2    1    2    0    0 -0.78791340649E+01  0.18225203665E+02 -0.40433584565E+02  0.46142316932E+02  0.99999924427E+01 0.  0.
         12    1    1    2    0    0  0.78791340649E+01 -0.18225203665E+02  0.40433584565E+02  0.45045683068E+02  0.00000000000E+00 0. -1.
         11    1    3    3    0    0 -0.20030865639E+01  0.30871497746E+00 -0.26273306193E+01  0.33182114406E+01  0.51100000000E-03 0. -1.
        -11    1    3    3    0    0 -0.52052980709E+01  0.15256454027E+02 -0.36244037782E+02  0.39667175253E+02  0.51100000000E-03 0.  1.
         12    1    3    3    0    0 -0.67074943003E+00  0.26600346607E+01 -0.15622161633E+01  0.31569302391E+01  0.00000000000E+00 0. -1.
</event>
<event>
 7    1  0.2328810E-008  0.4614232E+02  0.7816164E-02  0.1320468E+00
        -11   -1    0    0    0    0  0.00000000000E+00  0.00000000000E+00  0.45593999997E+02  0.45594000000E+02  0.51100000000E-03 0.  1.
         11   -1    0    0    0    0 -0.00000000000E+00 -0.00000000000E+00 -0.45593999997E+02  0.45594000000E+02  0.51100000000E-03 0. -1.
    9900012    2    1    2    0    0 -0.78356764688E+01 -0.34269800007E+02  0.28165520590E+02  0.46142316873E+02  0.99999919059E+01 0.  0.
         12    1    1    2    0    0  0.78356764688E+01  0.34269800007E+02 -0.28165520590E+02  0.45045683127E+02  0.00000000000E+00 0. -1.
         11    1    3    3    0    0  0.48186920300E+00 -0.20359855593E+01  0.94498189365E-01  0.20943651294E+01  0.51100000000E-03 0. -1.
        -11    1    3    3    0    0 -0.85482506050E+01 -0.28474146218E+02  0.22330678804E+02  0.37182103320E+02  0.51100000000E-03 0.  1.
        -12    1    3    3    0    0  0.23070493322E+00 -0.37596682296E+01  0.57403435972E+01  0.68658484237E+01  0.00000000000E+00 0.  1.
</event>
<event>
 7    1  0.2328810E-008  0.4614232E+02  0.7816164E-02  0.1320468E+00
        -11   -1    0    0    0    0  0.00000000000E+00  0.00000000000E+00  0.45593999997E+02  0.45594000000E+02  0.51100000000E-03 0.  1.
         11   -1    0    0    0    0 -0.00000000000E+00 -0.00000000000E+00 -0.45593999997E+02  0.45594000000E+02  0.51100000000E-03 0. -1.
    9900012    2    1    2    0    0 -0.22895365491E+02  0.17019974101E+02  0.34860240500E+02  0.46142316000E+02  0.99999839376E+01 0.  0.
         12    1    1    2    0    0  0.22895365491E+02 -0.17019974101E+02 -0.34860240500E+02  0.45045684000E+02  0.00000000000E+00 0. -1.
         11    1    3    3    0    0 -0.13195619309E+02  0.79633624075E+01  0.19310192663E+02  0.24706740998E+02  0.51100000000E-03 0. -1.
        -11    1    3    3    0    0 -0.93456168755E+01  0.79105333055E+01  0.16006130642E+02  0.20152253233E+02  0.51100000000E-03 0.  1.
         12    1    3    3    0    0 -0.35412930578E+00  0.11460783882E+01 -0.45608280553E+00  0.12833217690E+01  0.00000000000E+00 0. -1.
</event>
<event>
 7    1  0.2328810E-008  0.4614232E+02  0.7816164E-02  0.1320468E+00
        -11   -1    0    0    0    0  0.00000000000E+00  0.00000000000E+00  0.45593999997E+02  0.45594000000E+02  0.51100000000E-03 0.  1.
         11   -1    0    0    0    0 -0.00000000000E+00 -0.00000000000E+00 -0.45593999997E+02  0.45594000000E+02  0.51100000000E-03 0. -1.
    9900012    2    1    2    0    0  0.11972005691E+00  0.12783698451E+02  0.43193475881E+02  0.46142316104E+02  0.99999848901E+01 0.  0.
         12    1    1    2    0    0 -0.11972005691E+00 -0.12783698451E+02 -0.43193475881E+02  0.45045683896E+02  0.00000000000E+00 0. -1.
         11    1    3    3    0    0  0.20445137058E+01  0.64238176810E+01  0.12882623050E+02  0.14539857179E+02  0.51100000000E-03 0. -1.
        -11    1    3    3    0    0  0.17345092432E+01  0.14700929301E+01  0.14044174349E+02  0.14227035143E+02  0.51100000000E-03 0.  1.
        -12    1    3    3    0    0 -0.36593028921E+01  0.48897878396E+01  0.16266678482E+02  0.17375423782E+02  0.00000000000E+00 0.  1.
</event>
<event>
 7    1  0.2328810E-008  0.4614232E+02  0.7816164E-02  0.1320468E+00
        -11   -1    0    0    0    0  0.00000000000E+00  0.00000000000E+00  0.45593999997E+02  0.45594000000E+02  0.51100000000E-03 0.  1.
         11   -1    0    0    0    0 -0.00000000000E+00 -0.00000000000E+00 -0.45593999997E+02  0.45594000000E+02  0.51100000000E-03 0. -1.
    9900012    2    1    2    0    0 -0.70978200061E+01  0.23726952548E+02  0.37626667766E+02  0.46142318151E+02  0.10000003556E+02 0.  0.
         12    1    1    2    0    0  0.70978200061E+01 -0.23726952548E+02 -0.37626667766E+02  0.45045681849E+02  0.00000000000E+00 0. -1.
         11    1    3    3    0    0 -0.14146570286E+01  0.54729472595E+01  0.44443424337E+01  0.71907291802E+01  0.51100000000E-03 0. -1.
        -11    1    3    3    0    0  0.10722944002E+01  0.67442430208E+01  0.86147961864E+01  0.10993149812E+02  0.51100000000E-03 0.  1.
         12    1    3    3    0    0 -0.67554573778E+01  0.11509762268E+02  0.24567529146E+02  0.27958439158E+02  0.00000000000E+00 0. -1.
</event>
<event>
 7    1  0.2328810E-008  0.4614232E+02  0.7816164E-02  0.1320468E+00
        -11   -1    0    0    0    0  0.00000000000E+00  0.00000000000E+00  0.45593999997E+02  0.45594000000E+02  0.51100000000E-03 0.  1.
         11   -1    0    0    0    0 -0.00000000000E+00 -0.00000000000E+00 -0.45593999997E+02  0.45594000000E+02  0.51100000000E-03 0. -1.
    9900012    2    1    2    0    0 -0.78947102525E+01 -0.41538917959E+02  0.15534007261E+02  0.46142317224E+02  0.99999950998E+01 0.  0.
         12    1    1    2    0    0  0.78947102525E+01  0.41538917959E+02 -0.15534007261E+02  0.45045682776E+02  0.00000000000E+00 0. -1.
         11    1    3    3    0    0 -0.12704004901E+01 -0.14481850840E+02  0.64366060142E+01  0.15898673479E+02  0.51100000000E-03 0. -1.
        -11    1    3    3    0    0 -0.27060027413E-01 -0.15728199555E+02  0.52395805766E+01  0.16578003449E+02  0.51100000000E-03 0.  1.
        -12    1    3    3    0    0 -0.65972497350E+01 -0.11328867565E+02  0.38578206698E+01  0.13665640296E+02  0.00000000000E+00 0.  1.
</event>
<event>
 7    1  0.2328810E-008  0.4614232E+02  0.7816164E-02  0.1320468E+00
        -11   -1    0    0    0    0  0.00000000000E+00  0.00000000000E+00  0.45593999997E+02  0.45594000000E+02  0.51100000000E-03 0.  1.
         11   -1    0    0    0    0 -0.00000000000E+00 -0.00000000000E+00 -0.45593999997E+02  0.45594000000E+02  0.51100000000E-03 0. -1.
    9900012    2    1    2    0    0  0.17434606481E+02 -0.23333337357E+02  0.34361360979E+02  0.46142320255E+02  0.10000022737E+02 0.  0.
         12    1    1    2    0    0 -0.17434606481E+02  0.23333337357E+02 -0.34361360979E+02  0.45045679745E+02  0.00000000000E+00 0. -1.
         11    1    3    3    0    0  0.38630931549E+01 -0.15512441550E+01  0.81604054451E+01  0.91608986700E+01  0.51100000000E-03 0.  1.
        -11    1    3    3    0    0  0.30537619213E+00 -0.76666421764E+00  0.25258430860E+01  0.26572377006E+01  0.51100000000E-03 0. -1.
        -12    1    3    3    0    0  0.13266137134E+02 -0.21015428985E+02  0.23675112448E+02  0.34324183884E+02  0.00000000000E+00 0.  1.
</event>
<event>
 7    1  0.2328810E-008  0.4614232E+02  0.7816164E-02  0.1320468E+00
        -11   -1    0    0    0    0  0.00000000000E+00  0.00000000000E+00  0.45593999997E+02  0.45594000000E+02  0.51100000000E-03 0.  1.
         11   -1    0    0    0    0 -0.00000000000E+00 -0.00000000000E+00 -0.45593999997E+02  0.45594000000E+02  0.51100000000E-03 0. -1.
    9900012    2    1    2    0    0  0.19918907325E+01  0.19517787808E+02  0.40548758691E+02  0.46142317621E+02  0.99999987200E+01 0.  0.
         12    1    1    2    0    0 -0.19918907325E+01 -0.19517787808E+02 -0.40548758691E+02  0.45045682379E+02  0.00000000000E+00 0. -1.
         11    1    3    3    0    0  0.82058794118E+00 -0.73719167266E+00  0.17645595721E+01  0.20809821903E+01  0.51100000000E-03 0. -1.
        -11    1    3    3    0    0 -0.19701049511E+01  0.61327398431E+01  0.11861099251E+02  0.13497314074E+02  0.51100000000E-03 0.  1.
        -12    1    3    3    0    0  0.31414077424E+01  0.14122239637E+02  0.26923099868E+02  0.30564021356E+02  0.00000000000E+00 0.  1.
</event>
<event>
 7    1  0.2328810E-008  0.4614232E+02  0.7816164E-02  0.1320468E+00
        -11   -1    0    0    0    0  0.00000000000E+00  0.00000000000E+00  0.45593999997E+02  0.45594000000E+02  0.51100000000E-03 0.  1.
         11   -1    0    0    0    0 -0.00000000000E+00 -0.00000000000E+00 -0.45593999997E+02  0.45594000000E+02  0.51100000000E-03 0. -1.
    9900012    2    1    2    0    0  0.93497599754E+01  0.14948359331E+02  0.41451683211E+02  0.46142317640E+02  0.99999988970E+01 0.  0.
         12    1    1    2    0    0 -0.93497599754E+01 -0.14948359331E+02 -0.41451683211E+02  0.45045682360E+02  0.00000000000E+00 0. -1.
         11    1    3    3    0    0 -0.23930885945E+00 -0.91656137236E+00  0.71011709705E+00  0.11839003472E+01  0.51100000000E-03 0. -1.
        -11    1    3    3    0    0  0.18253969047E+01  0.56932299449E+01  0.98640230929E+01  0.11534465436E+02  0.51100000000E-03 0.  1.
        -12    1    3    3    0    0  0.77636719301E+01  0.10171690758E+02  0.30877543021E+02  0.33423951857E+02  0.00000000000E+00 0.  1.
</event>
<event>
 7    1  0.2328810E-008  0.4614232E+02  0.7816164E-02  0.1320468E+00
        -11   -1    0    0    0    0  0.00000000000E+00  0.00000000000E+00  0.45593999997E+02  0.45594000000E+02  0.51100000000E-03 0. -1.
         11   -1    0    0    0    0 -0.00000000000E+00 -0.00000000000E+00 -0.45593999997E+02  0.45594000000E+02  0.51100000000E-03 0.  1.
    9900012    2    1    2    0    0  0.25290549766E+02 -0.36351738293E+02  0.82494102552E+01  0.46142317033E+02  0.99999933610E+01 0.  0.
         12    1    1    2    0    0 -0.25290549766E+02  0.36351738293E+02 -0.82494102552E+01  0.45045682967E+02  0.00000000000E+00 0. -1.
         11    1    3    3    0    0  0.12715073318E+02 -0.10517833324E+02  0.33828382934E+01  0.16844628298E+02  0.51100000000E-03 0. -1.
        -11    1    3    3    0    0  0.87717585792E+01 -0.14670770987E+02  0.26352816007E+01  0.17295085409E+02  0.51100000000E-03 0.  1.
         12    1    3    3    0    0  0.38037178685E+01 -0.11163133982E+02  0.22312903611E+01  0.12002603326E+02  0.00000000000E+00 0. -1.
</event>
<event>
 7    1  0.2328810E-008  0.4614232E+02  0.7816164E-02  0.1320468E+00
        -11   -1    0    0    0    0  0.00000000000E+00  0.00000000000E+00  0.45593999997E+02  0.45594000000E+02  0.51100000000E-03 0.  1.
         11   -1    0    0    0    0 -0.00000000000E+00 -0.00000000000E+00 -0.45593999997E+02  0.45594000000E+02  0.51100000000E-03 0. -1.
    9900012    2    1    2    0    0  0.18198316804E+02  0.18005220299E+02  0.37064090827E+02  0.46142317395E+02  0.99999966657E+01 0.  0.
         12    1    1    2    0    0 -0.18198316804E+02 -0.18005220299E+02 -0.37064090827E+02  0.45045682605E+02  0.00000000000E+00 0. -1.
         11    1    3    3    0    0  0.25314055050E+01  0.42617497011E+01  0.93800423896E+01  0.10609228051E+02  0.51100000000E-03 0. -1.
        -11    1    3    3    0    0  0.84445799682E+01  0.12163220932E+02  0.19806953345E+02  0.24729946934E+02  0.51100000000E-03 0.  1.
         12    1    3    3    0    0  0.72223313308E+01  0.15802496660E+01  0.78770950920E+01  0.10803142411E+02  0.00000000000E+00 0. -1.
</event>
<event>
 7    1  0.2328810E-008  0.4614232E+02  0.7816164E-02  0.1320468E+00
        -11   -1    0    0    0    0  0.00000000000E+00  0.00000000000E+00  0.45593999997E+02  0.45594000000E+02  0.51100000000E-03 0.  1.
         11   -1    0    0    0    0 -0.00000000000E+00 -0.00000000000E+00 -0.45593999997E+02  0.45594000000E+02  0.51100000000E-03 0. -1.
    9900012    2    1    2    0    0 -0.17727355356E+02 -0.32039715967E+02  0.26235681156E+02  0.46142317711E+02  0.99999995420E+01 0.  0.
         12    1    1    2    0    0  0.17727355356E+02  0.32039715967E+02 -0.26235681156E+02  0.45045682289E+02  0.00000000000E+00 0. -1.
         11    1    3    3    0    0 -0.53701495063E+01 -0.15613680360E+02  0.12954023680E+02  0.20986477786E+02  0.51100000000E-03 0.  1.
        -11    1    3    3    0    0 -0.43453894289E+01 -0.22498791025E+01  0.17262409047E+01  0.51888604902E+01  0.51100000000E-03 0. -1.
        -12    1    3    3    0    0 -0.80118164207E+01 -0.14176156505E+02  0.11555416571E+02  0.19966979434E+02  0.00000000000E+00 0.  1.
</event>
<event>
 7    1  0.2328810E-008  0.4614232E+02  0.7816164E-02  0.1320468E+00
        -11   -1    0    0    0    0  0.00000000000E+00  0.00000000000E+00  0.45593999997E+02  0.45594000000E+02  0.51100000000E-03 0.  1.
         11   -1    0    0    0    0 -0.00000000000E+00 -0.00000000000E+00 -0.45593999997E+02  0.45594000000E+02  0.51100000000E-03 0. -1.
    9900012    2    1    2    0    0 -0.29895329396E+02 -0.27408320787E+02 -0.19600173593E+02  0.46142316822E+02  0.99999914382E+01 0.  0.
         12    1    1    2    0    0  0.29895329396E+02  0.27408320787E+02  0.19600173593E+02  0.45045683178E+02  0.00000000000E+00 0. -1.
         11    1    3    3    0    0 -0.28359562965E+01 -0.48803526238E+01 -0.12908364633E+01  0.57902287420E+01  0.51100000000E-03 0. -1.
        -11    1    3    3    0    0 -0.21502920548E+02 -0.20329185632E+02 -0.12860736988E+02  0.32265305464E+02  0.51100000000E-03 0.  1.
        -12    1    3    3    0    0 -0.55564525516E+01 -0.21987825316E+01 -0.54486001414E+01  0.80867826161E+01  0.00000000000E+00 0.  1.
</event>
<event>
 7    1  0.2328810E-008  0.4614232E+02  0.7816164E-02  0.1320468E+00
        -11   -1    0    0    0    0  0.00000000000E+00  0.00000000000E+00  0.45593999997E+02  0.45594000000E+02  0.51100000000E-03 0.  1.
         11   -1    0    0    0    0 -0.00000000000E+00 -0.00000000000E+00 -0.45593999997E+02  0.45594000000E+02  0.51100000000E-03 0. -1.
    9900012    2    1    2    0    0 -0.19859565170E+02  0.96189495939E+01  0.39270688755E+02  0.46142317462E+02  0.99999972686E+01 0.  0.
         12    1    1    2    0    0  0.19859565170E+02 -0.96189495939E+01 -0.39270688755E+02  0.45045682538E+02  0.00000000000E+00 0. -1.
         11    1    3    3    0    0 -0.49427924135E+01  0.50200289797E+00  0.92615074053E+01  0.10509934511E+02  0.51100000000E-03 0. -1.
        -11    1    3    3    0    0 -0.13747340577E+02  0.52859334724E+01  0.26448705606E+02  0.30273164587E+02  0.51100000000E-03 0.  1.
         12    1    3    3    0    0 -0.11694321796E+01  0.38310132235E+01  0.35604757439E+01  0.53592183632E+01  0.00000000000E+00 0. -1.
</event>
<event>
 7    1  0.2328810E-008  0.4614231E+02  0.7816164E-02  0.1320468E+00
        -11   -1    0    0    0    0  0.00000000000E+00  0.00000000000E+00  0.45593999997E+02  0.45594000000E+02  0.51100000000E-03 0. -1.
         11   -1    0    0    0    0 -0.00000000000E+00 -0.00000000000E+00 -0.45593999997E+02  0.45594000000E+02  0.51100000000E-03 0.  1.
    9900012    2    1    2    0    0  0.16928113432E+02 -0.30400239020E+02 -0.28607313848E+02  0.46142312499E+02  0.99999520158E+01 0.  0.
         12    1    1    2    0    0 -0.16928113432E+02  0.30400239020E+02  0.28607313848E+02  0.45045687501E+02  0.00000000000E+00 0. -1.
         11    1    3    3    0    0  0.65583667744E+01 -0.87527791419E+01 -0.10111143037E+02  0.14894916288E+02  0.51100000000E-03 0. -1.
        -11    1    3    3    0    0  0.11136672337E+02 -0.19406727128E+02 -0.18235292662E+02  0.28864726350E+02  0.51100000000E-03 0.  1.
         12    1    3    3    0    0 -0.76692567915E+00 -0.22407327501E+01 -0.26087814885E+00  0.23826698603E+01  0.00000000000E+00 0. -1.
</event>
<event>
 7    1  0.2328810E-008  0.4614232E+02  0.7816164E-02  0.1320468E+00
        -11   -1    0    0    0    0  0.00000000000E+00  0.00000000000E+00  0.45593999997E+02  0.45594000000E+02  0.51100000000E-03 0.  1.
         11   -1    0    0    0    0 -0.00000000000E+00 -0.00000000000E+00 -0.45593999997E+02  0.45594000000E+02  0.51100000000E-03 0. -1.
    9900012    2    1    2    0    0  0.30382563033E+02  0.32984241936E+02 -0.42489041345E+01  0.46142317201E+02  0.99999948881E+01 0.  0.
         12    1    1    2    0    0 -0.30382563033E+02 -0.32984241936E+02  0.42489041345E+01  0.45045682799E+02  0.00000000000E+00 0. -1.
         11    1    3    3    0    0  0.75282290658E+01  0.87217916050E+01  0.44628261204E+00  0.11530093239E+02  0.51100000000E-03 0. -1.
        -11    1    3    3    0    0  0.12459536841E+02  0.90117051736E+01  0.67097307796E+00  0.15391591652E+02  0.51100000000E-03 0.  1.
         12    1    3    3    0    0  0.10394797126E+02  0.15250745157E+02 -0.53661598245E+01  0.19220632310E+02  0.00000000000E+00 0. -1.
</event>
<event>
 7    1  0.2328810E-008  0.4614232E+02  0.7816164E-02  0.1320468E+00
        -11   -1    0    0    0    0  0.00000000000E+00  0.00000000000E+00  0.45593999997E+02  0.45594000000E+02  0.51100000000E-03 0.  1.
         11   -1    0    0    0    0 -0.00000000000E+00 -0.00000000000E+00 -0.45593999997E+02  0.45594000000E+02  0.51100000000E-03 0. -1.
    9900012    2    1    2    0    0  0.12903659445E+02 -0.31375060402E+02  0.29634686385E+02  0.46142317861E+02  0.10000000908E+02 0.  0.
         12    1    1    2    0    0 -0.12903659445E+02  0.31375060402E+02 -0.29634686385E+02  0.45045682139E+02  0.00000000000E+00 0. -1.
         11    1    3    3    0    0 -0.30078473337E+00 -0.37905265371E+01  0.21734558777E+01  0.43797800856E+01  0.51100000000E-03 0. -1.
        -11    1    3    3    0    0  0.12400964760E+02 -0.25141453302E+02  0.27385182163E+02  0.39189600706E+02  0.51100000000E-03 0.  1.
        -12    1    3    3    0    0  0.80347941862E+00 -0.24430805630E+01  0.76048343796E-01  0.25729370695E+01  0.00000000000E+00 0.  1.
</event>
<event>
 7    1  0.2328810E-008  0.4614232E+02  0.7816164E-02  0.1320468E+00
        -11   -1    0    0    0    0  0.00000000000E+00  0.00000000000E+00  0.45593999997E+02  0.45594000000E+02  0.51100000000E-03 0.  1.
         11   -1    0    0    0    0 -0.00000000000E+00 -0.00000000000E+00 -0.45593999997E+02  0.45594000000E+02  0.51100000000E-03 0. -1.
    9900012    2    1    2    0    0  0.14946172977E+02 -0.97233160612E+00  0.42482702249E+02  0.46142317567E+02  0.99999982343E+01 0.  0.
         12    1    1    2    0    0 -0.14946172977E+02  0.97233160612E+00 -0.42482702249E+02  0.45045682433E+02  0.00000000000E+00 0. -1.
         11    1    3    3    0    0  0.10580476874E+02 -0.15247136430E+01  0.15826938059E+02  0.19098775122E+02  0.51100000000E-03 0. -1.
        -11    1    3    3    0    0 -0.26998376456E-01  0.14885147618E+00  0.97881956327E+00  0.99044115063E+00  0.51100000000E-03 0.  1.
        -12    1    3    3    0    0  0.43926944793E+01  0.40353056067E+00  0.25676944627E+02  0.26053101295E+02  0.00000000000E+00 0.  1.
</event>
<event>
 7    1  0.2328810E-008  0.4614232E+02  0.7816164E-02  0.1320468E+00
        -11   -1    0    0    0    0  0.00000000000E+00  0.00000000000E+00  0.45593999997E+02  0.45594000000E+02  0.51100000000E-03 0. -1.
         11   -1    0    0    0    0 -0.00000000000E+00 -0.00000000000E+00 -0.45593999997E+02  0.45594000000E+02  0.51100000000E-03 0.  1.
    9900012    2    1    2    0    0 -0.23073836750E+02 -0.38614360739E+02 -0.23753609846E+01  0.46142321656E+02  0.10000035517E+02 0.  0.
         12    1    1    2    0    0  0.23073836750E+02  0.38614360739E+02  0.23753609846E+01  0.45045678344E+02  0.00000000000E+00 0. -1.
         11    1    3    3    0    0 -0.67758026570E+01 -0.16704695190E+02 -0.30778993092E+01  0.18287476793E+02  0.51100000000E-03 0.  1.
        -11    1    3    3    0    0 -0.19213343296E+01 -0.62176102568E+01  0.91443510624E+00  0.65716356210E+01  0.51100000000E-03 0. -1.
         12    1    3    3    0    0 -0.14376699763E+02 -0.15692055292E+02 -0.21189678164E+00  0.21283209242E+02  0.00000000000E+00 0. -1.
</event>
<event>
 7    1  0.2328810E-008  0.4614232E+02  0.7816164E-02  0.1320468E+00
        -11   -1    0    0    0    0  0.00000000000E+00  0.00000000000E+00  0.45593999997E+02  0.45594000000E+02  0.51100000000E-03 0. -1.
         11   -1    0    0    0    0 -0.00000000000E+00 -0.00000000000E+00 -0.45593999997E+02  0.45594000000E+02  0.51100000000E-03 0.  1.
    9900012    2    1    2    0    0 -0.20501656770E+02  0.26281339628E+02 -0.30299946186E+02  0.46142317834E+02  0.10000000665E+02 0.  0.
         12    1    1    2    0    0  0.20501656770E+02 -0.26281339628E+02  0.30299946186E+02  0.45045682166E+02  0.00000000000E+00 0. -1.
         11    1    3    3    0    0 -0.61716730911E+01  0.10818348736E+02 -0.73077469287E+01  0.14440546512E+02  0.51100000000E-03 0. -1.
        -11    1    3    3    0    0 -0.51687963359E+01  0.87390260993E+01 -0.13519301506E+02  0.16907351839E+02  0.51100000000E-03 0.  1.
         12    1    3    3    0    0 -0.91611873430E+01  0.67239647920E+01 -0.94728977511E+01  0.14794419484E+02  0.00000000000E+00 0. -1.
</event>
<event>
 7    1  0.2328810E-008  0.4614232E+02  0.7816164E-02  0.1320468E+00
        -11   -1    0    0    0    0  0.00000000000E+00  0.00000000000E+00  0.45593999997E+02  0.45594000000E+02  0.51100000000E-03 0. -1.
         11   -1    0    0    0    0 -0.00000000000E+00 -0.00000000000E+00 -0.45593999997E+02  0.45594000000E+02  0.51100000000E-03 0.  1.
    9900012    2    1    2    0    0  0.14014387841E+02  0.10913982330E+01 -0.42796252706E+02  0.46142318050E+02  0.10000002633E+02 0.  0.
         12    1    1    2    0    0 -0.14014387841E+02 -0.10913982330E+01  0.42796252706E+02  0.45045681950E+02  0.00000000000E+00 0. -1.
         11    1    3    3    0    0  0.52765420112E+01 -0.12036287323E+01 -0.15402807778E+02  0.16325964150E+02  0.51100000000E-03 0. -1.
        -11    1    3    3    0    0  0.56461800565E+01  0.36889102295E+01 -0.24325674231E+02  0.25243332485E+02  0.51100000000E-03 0.  1.
         12    1    3    3    0    0  0.30916657733E+01 -0.13938832641E+01 -0.30677706976E+01  0.45730214149E+01  0.00000000000E+00 0. -1.
</event>
<event>
 7    1  0.2328810E-008  0.4614232E+02  0.7816164E-02  0.1320468E+00
        -11   -1    0    0    0    0  0.00000000000E+00  0.00000000000E+00  0.45593999997E+02  0.45594000000E+02  0.51100000000E-03 0.  1.
         11   -1    0    0    0    0 -0.00000000000E+00 -0.00000000000E+00 -0.45593999997E+02  0.45594000000E+02  0.51100000000E-03 0. -1.
    9900012    2    1    2    0    0 -0.21123597621E+02 -0.38480969387E+02  0.10105546354E+02  0.46142318204E+02  0.10000004036E+02 0.  0.
         12    1    1    2    0    0  0.21123597621E+02  0.38480969387E+02 -0.10105546354E+02  0.45045681796E+02  0.00000000000E+00 0. -1.
         11    1    3    3    0    0 -0.58052609515E+01 -0.90517827661E+01  0.20524452661E+01  0.10947527474E+02  0.51100000000E-03 0. -1.
        -11    1    3    3    0    0 -0.10265540885E+02 -0.15193353424E+02  0.58986997461E+00  0.18345769669E+02  0.51100000000E-03 0.  1.
         12    1    3    3    0    0 -0.50527957844E+01 -0.14235833197E+02  0.74632311129E+01  0.16849021061E+02  0.00000000000E+00 0. -1.
</event>
<event>
 7    1  0.2328810E-008  0.4614232E+02  0.7816164E-02  0.1320468E+00
        -11   -1    0    0    0    0  0.00000000000E+00  0.00000000000E+00  0.45593999997E+02  0.45594000000E+02  0.51100000000E-03 0.  1.
         11   -1    0    0    0    0 -0.00000000000E+00 -0.00000000000E+00 -0.45593999997E+02  0.45594000000E+02  0.51100000000E-03 0. -1.
    9900012    2    1    2    0    0 -0.40776888868E+02  0.15000437174E+02  0.11888889567E+02  0.46142317895E+02  0.10000001224E+02 0.  0.
         12    1    1    2    0    0  0.40776888868E+02 -0.15000437174E+02 -0.11888889567E+02  0.45045682105E+02  0.00000000000E+00 0. -1.
         11    1    3    3    0    0 -0.15323733220E+02  0.75941540127E+01  0.26088569938E+01  0.17300118787E+02  0.51100000000E-03 0.  1.
        -11    1    3    3    0    0 -0.39703543402E+01 -0.33535196640E+00 -0.47103556694E+00  0.40122374425E+01  0.51100000000E-03 0. -1.
         12    1    3    3    0    0 -0.21482801307E+02  0.77416351281E+01  0.97510681398E+01  0.24829961666E+02  0.00000000000E+00 0. -1.
</event>
<event>
 7    1  0.2328810E-008  0.4614232E+02  0.7816164E-02  0.1320468E+00
        -11   -1    0    0    0    0  0.00000000000E+00  0.00000000000E+00  0.45593999997E+02  0.45594000000E+02  0.51100000000E-03 0.  1.
         11   -1    0    0    0    0 -0.00000000000E+00 -0.00000000000E+00 -0.45593999997E+02  0.45594000000E+02  0.51100000000E-03 0. -1.
    9900012    2    1    2    0    0 -0.70683885697E+01  0.37122147204E+02  0.24517291283E+02  0.46142317612E+02  0.99999986387E+01 0.  0.
         12    1    1    2    0    0  0.70683885697E+01 -0.37122147204E+02 -0.24517291283E+02  0.45045682388E+02  0.00000000000E+00 0. -1.
         11    1    3    3    0    0 -0.36504524554E+01  0.53270187656E+01  0.13322306543E+01  0.65937675751E+01  0.51100000000E-03 0. -1.
        -11    1    3    3    0    0  0.11143475342E+00  0.19145325396E+01  0.97936567240E+00  0.21533717587E+01  0.51100000000E-03 0.  1.
        -12    1    3    3    0    0 -0.35293708677E+01  0.29880595898E+02  0.22205694956E+02  0.37395178278E+02  0.00000000000E+00 0.  1.
</event>
<event>
 7    1  0.2328810E-008  0.4614232E+02  0.7816164E-02  0.1320468E+00
        -11   -1    0    0    0    0  0.00000000000E+00  0.00000000000E+00  0.45593999997E+02  0.45594000000E+02  0.51100000000E-03 0. -1.
         11   -1    0    0    0    0 -0.00000000000E+00 -0.00000000000E+00 -0.45593999997E+02  0.45594000000E+02  0.51100000000E-03 0.  1.
    9900012    2    1    2    0    0  0.30960336792E+01 -0.35324440324E+02 -0.27779704787E+02  0.46142317556E+02  0.99999981316E+01 0.  0.
         12    1    1    2    0    0 -0.30960336792E+01  0.35324440324E+02  0.27779704787E+02  0.45045682444E+02  0.00000000000E+00 0. -1.
         11    1    3    3    0    0  0.23382066011E+01 -0.43081041959E+01 -0.76848161079E+01  0.91150079948E+01  0.51100000000E-03 0. -1.
        -11    1    3    3    0    0 -0.75522384556E+00 -0.92835296393E+01 -0.59219527816E+01  0.11037382417E+02  0.51100000000E-03 0.  1.
        -12    1    3    3    0    0  0.15130509236E+01 -0.21732806489E+02 -0.14172935898E+02  0.25989927144E+02  0.00000000000E+00 0.  1.
</event>
<event>
 7    1  0.2328810E-008  0.4614232E+02  0.7816164E-02  0.1320468E+00
        -11   -1    0    0    0    0  0.00000000000E+00  0.00000000000E+00  0.45593999997E+02  0.45594000000E+02  0.51100000000E-03 0.  1.
         11   -1    0    0    0    0 -0.00000000000E+00 -0.00000000000E+00 -0.45593999997E+02  0.45594000000E+02  0.51100000000E-03 0. -1.
    9900012    2    1    2    0    0  0.20508612950E+02 -0.17780746132E+02  0.35949344853E+02  0.46142317260E+02  0.99999954329E+01 0.  0.
         12    1    1    2    0    0 -0.20508612950E+02  0.17780746132E+02 -0.35949344853E+02  0.45045682740E+02  0.00000000000E+00 0. -1.
         11    1    3    3    0    0  0.14095794334E+01 -0.36288608822E+01  0.79070517527E+01  0.88134563686E+01  0.51100000000E-03 0. -1.
        -11    1    3    3    0    0  0.47627410397E+01 -0.38960561417E+01  0.12041636828E+02  0.13522720637E+02  0.51100000000E-03 0.  1.
        -12    1    3    3    0    0  0.14336292477E+02 -0.10255829108E+02  0.16000656272E+02  0.23806140255E+02  0.00000000000E+00 0.  1.
</event>
<event>
 7    1  0.2328810E-008  0.4614232E+02  0.7816164E-02  0.1320468E+00
        -11   -1    0    0    0    0  0.00000000000E+00  0.00000000000E+00  0.45593999997E+02  0.45594000000E+02  0.51100000000E-03 0.  1.
         11   -1    0    0    0    0 -0.00000000000E+00 -0.00000000000E+00 -0.45593999997E+02  0.45594000000E+02  0.51100000000E-03 0. -1.
    9900012    2    1    2    0    0  0.33359918129E+02 -0.24876234940E+02 -0.17245355464E+02  0.46142317771E+02  0.10000000094E+02 0.  0.
         12    1    1    2    0    0 -0.33359918129E+02  0.24876234940E+02  0.17245355464E+02  0.45045682229E+02  0.00000000000E+00 0. -1.
         11    1    3    3    0    0  0.10834214315E+02 -0.11353633079E+02 -0.71983280155E+01  0.17265604837E+02  0.51100000000E-03 0. -1.
        -11    1    3    3    0    0  0.19944135339E+02 -0.13164518237E+02 -0.10710122963E+02  0.26187397904E+02  0.51100000000E-03 0.  1.
         12    1    3    3    0    0  0.25815684749E+01 -0.35808362386E+00  0.66309551378E+00  0.26893150303E+01  0.00000000000E+00 0. -1.
</event>
<event>
 7    1  0.2328810E-008  0.4614232E+02  0.7816164E-02  0.1320468E+00
        -11   -1    0    0    0    0  0.00000000000E+00  0.00000000000E+00  0.45593999997E+02  0.45594000000E+02  0.51100000000E-03 0.  1.
         11   -1    0    0    0    0 -0.00000000000E+00 -0.00000000000E+00 -0.45593999997E+02  0.45594000000E+02  0.51100000000E-03 0. -1.
    9900012    2    1    2    0    0  0.12362246945E+02 -0.63119456731E+01  0.42853793804E+02  0.46142318175E+02  0.10000003774E+02 0.  0.
         12    1    1    2    0    0 -0.12362246945E+02  0.63119456731E+01 -0.42853793804E+02  0.45045681825E+02  0.00000000000E+00 0. -1.
         11    1    3    3    0    0  0.16122212921E+01  0.33356515135E+00  0.32148317081E+00  0.16774608476E+01  0.51100000000E-03 0. -1.
        -11    1    3    3    0    0  0.77800045170E+01 -0.46196384203E+01  0.34461043439E+02  0.35629103898E+02  0.51100000000E-03 0.  1.
         12    1    3    3    0    0  0.29700211359E+01 -0.20258724041E+01  0.80712671942E+01  0.88357534295E+01  0.00000000000E+00 0. -1.
</event>
<event>
 7    1  0.2328810E-008  0.4614232E+02  0.7816164E-02  0.1320468E+00
        -11   -1    0    0    0    0  0.00000000000E+00  0.00000000000E+00  0.45593999997E+02  0.45594000000E+02  0.51100000000E-03 0.  1.
         11   -1    0    0    0    0 -0.00000000000E+00 -0.00000000000E+00 -0.45593999997E+02  0.45594000000E+02  0.51100000000E-03 0. -1.
    9900012    2    1    2    0    0  0.14028785139E+02  0.15853366927E+02  0.39761508228E+02  0.46142316611E+02  0.99999895110E+01 0.  0.
         12    1    1    2    0    0 -0.14028785139E+02 -0.15853366927E+02 -0.39761508228E+02  0.45045683389E+02  0.00000000000E+00 0. -1.
         11    1    3    3    0    0  0.46442617444E+01  0.63475529189E+01  0.99137971644E+01  0.12654800263E+02  0.51100000000E-03 0. -1.
        -11    1    3    3    0    0  0.58139093819E+01  0.78921438241E+01  0.13540973047E+02  0.16716621302E+02  0.51100000000E-03 0.  1.
         12    1    3    3    0    0  0.35706140125E+01  0.16136701843E+01  0.16306738017E+02  0.16770895046E+02  0.00000000000E+00 0. -1.
</event>
<event>
 7    1  0.2328810E-008  0.4614232E+02  0.7816164E-02  0.1320468E+00
        -11   -1    0    0    0    0  0.00000000000E+00  0.00000000000E+00  0.45593999997E+02  0.45594000000E+02  0.51100000000E-03 0.  1.
         11   -1    0    0    0    0 -0.00000000000E+00 -0.00000000000E+00 -0.45593999997E+02  0.45594000000E+02  0.51100000000E-03 0. -1.
    9900012    2    1    2    0    0 -0.30197596736E+02  0.33034804886E+02  0.50911971920E+01  0.46142317950E+02  0.10000001724E+02 0.  0.
         12    1    1    2    0    0  0.30197596736E+02 -0.33034804886E+02 -0.50911971920E+01  0.45045682050E+02  0.00000000000E+00 0. -1.
         11    1    3    3    0    0 -0.25397985544E+01  0.36581873397E+01 -0.50895701486E+00  0.44824043563E+01  0.51100000000E-03 0. -1.
        -11    1    3    3    0    0 -0.12535036131E+02  0.16427179114E+02  0.66932881017E+01  0.21720484578E+02  0.51100000000E-03 0.  1.
        -12    1    3    3    0    0 -0.15122762051E+02  0.12949438432E+02 -0.10931338948E+01  0.19939429016E+02  0.00000000000E+00 0.  1.
</event>
<event>
 7    1  0.2328810E-008  0.4614232E+02  0.7816164E-02  0.1320468E+00
        -11   -1    0    0    0    0  0.00000000000E+00  0.00000000000E+00  0.45593999997E+02  0.45594000000E+02  0.51100000000E-03 0. -1.
         11   -1    0    0    0    0 -0.00000000000E+00 -0.00000000000E+00 -0.45593999997E+02  0.45594000000E+02  0.51100000000E-03 0.  1.
    9900012    2    1    2    0    0 -0.36461391093E+02 -0.22409220789E+02 -0.14053729162E+02  0.46142317409E+02  0.99999967870E+01 0.  0.
         12    1    1    2    0    0  0.36461391093E+02  0.22409220789E+02  0.14053729162E+02  0.45045682591E+02  0.00000000000E+00 0. -1.
         11    1    3    3    0    0 -0.19417827432E+02 -0.13018323565E+02 -0.91657113593E+01  0.25110536346E+02  0.51100000000E-03 0. -1.
        -11    1    3    3    0    0 -0.13670392860E+02 -0.87745294228E+01 -0.61621963129E+01  0.17373677538E+02  0.51100000000E-03 0.  1.
         12    1    3    3    0    0 -0.33731708007E+01 -0.61636780056E+00  0.12741785106E+01  0.36581035241E+01  0.00000000000E+00 0. -1.
</event>
<event>
 7    1  0.2328810E-008  0.4614232E+02  0.7816164E-02  0.1320468E+00
        -11   -1    0    0    0    0  0.00000000000E+00  0.00000000000E+00  0.45593999997E+02  0.45594000000E+02  0.51100000000E-03 0.  1.
         11   -1    0    0    0    0 -0.00000000000E+00 -0.00000000000E+00 -0.45593999997E+02  0.45594000000E+02  0.51100000000E-03 0. -1.
    9900012    2    1    2    0    0  0.37560236410E+02  0.22656200681E+02  0.10248836049E+02  0.46142318422E+02  0.10000006030E+02 0.  0.
         12    1    1    2    0    0 -0.37560236410E+02 -0.22656200681E+02 -0.10248836049E+02  0.45045681578E+02  0.00000000000E+00 0. -1.
         11    1    3    3    0    0  0.50773685751E+01  0.22590601638E+01 -0.17657686176E+01  0.58310345174E+01  0.51100000000E-03 0. -1.
        -11    1    3    3    0    0  0.17920318917E+02  0.11705467061E+02  0.51493856839E+01  0.22015266576E+02  0.51100000000E-03 0.  1.
        -12    1    3    3    0    0  0.14562548917E+02  0.86916734556E+01  0.68652189830E+01  0.18296017329E+02  0.00000000000E+00 0.  1.
</event>
<event>
 7    1  0.2328810E-008  0.4614232E+02  0.7816164E-02  0.1320468E+00
        -11   -1    0    0    0    0  0.00000000000E+00  0.00000000000E+00  0.45593999997E+02  0.45594000000E+02  0.51100000000E-03 0.  1.
         11   -1    0    0    0    0 -0.00000000000E+00 -0.00000000000E+00 -0.45593999997E+02  0.45594000000E+02  0.51100000000E-03 0. -1.
    9900012    2    1    2    0    0 -0.77391750604E+01  0.25854799318E+02  0.36065883429E+02  0.46142318454E+02  0.10000006317E+02 0.  0.
         12    1    1    2    0    0  0.77391750604E+01 -0.25854799318E+02 -0.36065883429E+02  0.45045681546E+02  0.00000000000E+00 0. -1.
         11    1    3    3    0    0 -0.28346103874E+01  0.42481199504E+01  0.85368029031E+01  0.99477908718E+01  0.51100000000E-03 0. -1.
        -11    1    3    3    0    0  0.12391969588E+01  0.17692931424E+01  0.55539043005E+01  0.59591828774E+01  0.51100000000E-03 0.  1.
        -12    1    3    3    0    0 -0.61437616318E+01  0.19837386226E+02  0.21975176226E+02  0.30235344705E+02  0.00000000000E+00 0.  1.
</event>
<event>
 7    1  0.2328810E-008  0.4614232E+02  0.7816164E-02  0.1320468E+00
        -11   -1    0    0    0    0  0.00000000000E+00  0.00000000000E+00  0.45593999997E+02  0.45594000000E+02  0.51100000000E-03 0.  1.
         11   -1    0    0    0    0 -0.00000000000E+00 -0.00000000000E+00 -0.45593999997E+02  0.45594000000E+02  0.51100000000E-03 0. -1.
    9900012    2    1    2    0    0 -0.52188046333E+01  0.37248354272E+02  0.24787852272E+02  0.46142318320E+02  0.10000005096E+02 0.  0.
         12    1    1    2    0    0  0.52188046333E+01 -0.37248354272E+02 -0.24787852272E+02  0.45045681680E+02  0.00000000000E+00 0. -1.
         11    1    3    3    0    0 -0.38152149205E+01  0.24215193900E+02  0.11323610427E+02  0.27002881955E+02  0.51100000000E-03 0. -1.
        -11    1    3    3    0    0  0.49027134808E-01  0.11388478922E+02  0.10896024001E+02  0.15761446479E+02  0.51100000000E-03 0.  1.
         12    1    3    3    0    0 -0.14526168476E+01  0.16446814497E+01  0.25682178434E+01  0.33779898857E+01  0.00000000000E+00 0. -1.
</event>
<event>
 7    1  0.2328810E-008  0.4614232E+02  0.7816164E-02  0.1320468E+00
        -11   -1    0    0    0    0  0.00000000000E+00  0.00000000000E+00  0.45593999997E+02  0.45594000000E+02  0.51100000000E-03 0.  1.
         11   -1    0    0    0    0 -0.00000000000E+00 -0.00000000000E+00 -0.45593999997E+02  0.45594000000E+02  0.51100000000E-03 0. -1.
    9900012    2    1    2    0    0  0.90750778721E+01 -0.31273462895E+02  0.31124378372E+02  0.46142318199E+02  0.10000003997E+02 0.  0.
         12    1    1    2    0    0 -0.90750778721E+01  0.31273462895E+02 -0.31124378372E+02  0.45045681801E+02  0.00000000000E+00 0. -1.
         11    1    3    3    0    0  0.71282054525E+01 -0.22749571206E+02  0.21148972687E+02  0.31869002950E+02  0.51100000000E-03 0.  1.
        -11    1    3    3    0    0  0.32568769820E+01 -0.62327014998E+01  0.90832451651E+01  0.11487347764E+02  0.51100000000E-03 0. -1.
         12    1    3    3    0    0 -0.13100045624E+01 -0.22911901897E+01  0.89216051935E+00  0.27859674857E+01  0.00000000000E+00 0. -1.
</event>
<event>
 7    1  0.2328810E-008  0.4614232E+02  0.7816164E-02  0.1320468E+00
        -11   -1    0    0    0    0  0.00000000000E+00  0.00000000000E+00  0.45593999997E+02  0.45594000000E+02  0.51100000000E-03 0.  1.
         11   -1    0    0    0    0 -0.00000000000E+00 -0.00000000000E+00 -0.45593999997E+02  0.45594000000E+02  0.51100000000E-03 0. -1.
    9900012    2    1    2    0    0  0.57666245478E+01 -0.19407740737E+02  0.40239273231E+02  0.46142317972E+02  0.10000001923E+02 0.  0.
         12    1    1    2    0    0 -0.57666245478E+01  0.19407740737E+02 -0.40239273231E+02  0.45045682028E+02  0.00000000000E+00 0. -1.
         11    1    3    3    0    0  0.51205182774E+01 -0.49616234428E+01  0.93180544209E+01  0.11733011253E+02  0.51100000000E-03 0. -1.
        -11    1    3    3    0    0 -0.16830525495E+01 -0.78432709103E+01  0.14823423655E+02  0.16854775393E+02  0.51100000000E-03 0.  1.
         12    1    3    3    0    0  0.23291588199E+01 -0.66028463837E+01  0.16097795156E+02  0.17554531325E+02  0.00000000000E+00 0. -1.
</event>
<event>
 7    1  0.2328810E-008  0.4614233E+02  0.7816164E-02  0.1320468E+00
        -11   -1    0    0    0    0  0.00000000000E+00  0.00000000000E+00  0.45593999997E+02  0.45594000000E+02  0.51100000000E-03 0. -1.
         11   -1    0    0    0    0 -0.00000000000E+00 -0.00000000000E+00 -0.45593999997E+02  0.45594000000E+02  0.51100000000E-03 0.  1.
    9900012    2    1    2    0    0 -0.14438167437E+02  0.42269921579E+02 -0.58228086975E+01  0.46142333723E+02  0.10000145550E+02 0.  0.
         12    1    1    2    0    0  0.14438167437E+02 -0.42269921579E+02  0.58228086975E+01  0.45045666277E+02  0.00000000000E+00 0. -1.
         11    1    3    3    0    0 -0.11828276583E+01  0.15189550167E+02 -0.32801231120E+01  0.15584631001E+02  0.51100000000E-03 0. -1.
        -11    1    3    3    0    0 -0.78848981319E+01  0.18662349360E+02 -0.23934816366E-01  0.20259700771E+02  0.51100000000E-03 0.  1.
         12    1    3    3    0    0 -0.53704416463E+01  0.84180220517E+01 -0.25187507691E+01  0.10298001951E+02  0.00000000000E+00 0. -1.
</event>
<event>
 7    1  0.2328810E-008  0.4614232E+02  0.7816164E-02  0.1320468E+00
        -11   -1    0    0    0    0  0.00000000000E+00  0.00000000000E+00  0.45593999997E+02  0.45594000000E+02  0.51100000000E-03 0. -1.
         11   -1    0    0    0    0 -0.00000000000E+00 -0.00000000000E+00 -0.45593999997E+02  0.45594000000E+02  0.51100000000E-03 0.  1.
    9900012    2    1    2    0    0 -0.31198047474E+02 -0.19761291048E+02 -0.25793152539E+02  0.46142317544E+02  0.99999980177E+01 0.  0.
         12    1    1    2    0    0  0.31198047474E+02  0.19761291048E+02  0.25793152539E+02  0.45045682456E+02  0.00000000000E+00 0. -1.
         11    1    3    3    0    0 -0.53730461131E+01 -0.26166780070E+01 -0.58244150505E+00  0.60046537530E+01  0.51100000000E-03 0. -1.
        -11    1    3    3    0    0 -0.47363582354E+01 -0.18938146982E+01 -0.54151212771E+01  0.74392984986E+01  0.51100000000E-03 0.  1.
        -12    1    3    3    0    0 -0.21088643125E+02 -0.15250798342E+02 -0.19795589757E+02  0.32698365292E+02  0.00000000000E+00 0.  1.
</event>
<event>
 7    1  0.2328810E-008  0.4614232E+02  0.7816164E-02  0.1320468E+00
        -11   -1    0    0    0    0  0.00000000000E+00  0.00000000000E+00  0.45593999997E+02  0.45594000000E+02  0.51100000000E-03 0.  1.
         11   -1    0    0    0    0 -0.00000000000E+00 -0.00000000000E+00 -0.45593999997E+02  0.45594000000E+02  0.51100000000E-03 0. -1.
    9900012    2    1    2    0    0 -0.31501566074E+02 -0.78714691652E+01  0.31221863686E+02  0.46142318032E+02  0.10000002472E+02 0.  0.
         12    1    1    2    0    0  0.31501566074E+02  0.78714691652E+01 -0.31221863686E+02  0.45045681968E+02  0.00000000000E+00 0. -1.
         11    1    3    3    0    0 -0.43313014777E+01 -0.32714514851E+01  0.27917036757E+01  0.61037838251E+01  0.51100000000E-03 0. -1.
        -11    1    3    3    0    0 -0.42257563899E+01 -0.29344383747E+01  0.60764883216E+01  0.79618877300E+01  0.51100000000E-03 0.  1.
        -12    1    3    3    0    0 -0.22944508206E+02 -0.16655793054E+01  0.22353671689E+02  0.32076646477E+02  0.00000000000E+00 0.  1.
</event>
<event>
 7    1  0.2328810E-008  0.4614232E+02  0.7816164E-02  0.1320468E+00
        -11   -1    0    0    0    0  0.00000000000E+00  0.00000000000E+00  0.45593999997E+02  0.45594000000E+02  0.51100000000E-03 0.  1.
         11   -1    0    0    0    0 -0.00000000000E+00 -0.00000000000E+00 -0.45593999997E+02  0.45594000000E+02  0.51100000000E-03 0. -1.
    9900012    2    1    2    0    0 -0.34589245126E+02  0.26248801749E+02 -0.11987412819E+02  0.46142317214E+02  0.99999950079E+01 0.  0.
         12    1    1    2    0    0  0.34589245126E+02 -0.26248801749E+02  0.11987412819E+02  0.45045682786E+02  0.00000000000E+00 0. -1.
         11    1    3    3    0    0 -0.13299913912E+02  0.72621186899E+01 -0.14635028651E+01  0.15223925868E+02  0.51100000000E-03 0. -1.
        -11    1    3    3    0    0 -0.13365375602E+02  0.90220995443E+01 -0.40054344890E+01  0.16615506338E+02  0.51100000000E-03 0.  1.
         12    1    3    3    0    0 -0.79239556115E+01  0.99645835144E+01 -0.65184754652E+01  0.14302885008E+02  0.00000000000E+00 0. -1.
</event>
<event>
 7    1  0.2328810E-008  0.4614232E+02  0.7816164E-02  0.1320468E+00
        -11   -1    0    0    0    0  0.00000000000E+00  0.00000000000E+00  0.45593999997E+02  0.45594000000E+02  0.51100000000E-03 0. -1.
         11   -1    0    0    0    0 -0.00000000000E+00 -0.00000000000E+00 -0.45593999997E+02  0.45594000000E+02  0.51100000000E-03 0.  1.
    9900012    2    1    2    0    0  0.21864021725E+02  0.29963436886E+02 -0.25559155098E+02  0.46142318683E+02  0.10000008407E+02 0.  0.
         12    1    1    2    0    0 -0.21864021725E+02 -0.29963436886E+02  0.25559155098E+02  0.45045681317E+02  0.00000000000E+00 0. -1.
         11    1    3    3    0    0  0.49709062157E+01  0.28111441586E+01 -0.27301560342E+01  0.63297861194E+01  0.51100000000E-03 0. -1.
        -11    1    3    3    0    0  0.12241738202E+01  0.34590106012E+01 -0.52573958332E+01  0.64112063677E+01  0.51100000000E-03 0.  1.
        -12    1    3    3    0    0  0.15668941689E+02  0.23693282126E+02 -0.17571603230E+02  0.33401326196E+02  0.00000000000E+00 0.  1.
</event>
<event>
 7    1  0.2328810E-008  0.4614232E+02  0.7816164E-02  0.1320468E+00
        -11   -1    0    0    0    0  0.00000000000E+00  0.00000000000E+00  0.45593999997E+02  0.45594000000E+02  0.51100000000E-03 0. -1.
         11   -1    0    0    0    0 -0.00000000000E+00 -0.00000000000E+00 -0.45593999997E+02  0.45594000000E+02  0.51100000000E-03 0.  1.
    9900012    2    1    2    0    0 -0.27290970526E+02 -0.35508454344E+02 -0.48441919319E+01  0.46142316548E+02  0.99999889391E+01 0.  0.
         12    1    1    2    0    0  0.27290970526E+02  0.35508454344E+02  0.48441919319E+01  0.45045683452E+02  0.00000000000E+00 0. -1.
         11    1    3    3    0    0 -0.97437421930E+01 -0.18952074182E+02 -0.84813669403E-01  0.21310298480E+02  0.51100000000E-03 0. -1.
        -11    1    3    3    0    0 -0.13243662274E+02 -0.14069268526E+02 -0.45843790768E+01  0.19858384603E+02  0.51100000000E-03 0.  1.
         12    1    3    3    0    0 -0.43035660598E+01 -0.24871116369E+01 -0.17499918564E+00  0.49736334646E+01  0.00000000000E+00 0. -1.
</event>
<event>
 7    1  0.2328810E-008  0.4614232E+02  0.7816164E-02  0.1320468E+00
        -11   -1    0    0    0    0  0.00000000000E+00  0.00000000000E+00  0.45593999997E+02  0.45594000000E+02  0.51100000000E-03 0.  1.
         11   -1    0    0    0    0 -0.00000000000E+00 -0.00000000000E+00 -0.45593999997E+02  0.45594000000E+02  0.51100000000E-03 0. -1.
    9900012    2    1    2    0    0  0.43771235812E+02 -0.94070653856E+01  0.49698600757E+01  0.46142317933E+02  0.10000001567E+02 0.  0.
         12    1    1    2    0    0 -0.43771235812E+02  0.94070653856E+01 -0.49698600757E+01  0.45045682067E+02  0.00000000000E+00 0. -1.
         11    1    3    3    0    0  0.17805993353E+02 -0.56475304144E+01  0.15268719844E+01  0.18742447476E+02  0.51100000000E-03 0. -1.
        -11    1    3    3    0    0  0.19299093562E+02 -0.16842170858E+01 -0.50534401344E+00  0.19379034350E+02  0.51100000000E-03 0.  1.
         12    1    3    3    0    0  0.66661488973E+01 -0.20753178854E+01  0.39483321047E+01  0.80208361070E+01  0.00000000000E+00 0. -1.
</event>
<event>
 7    1  0.2328810E-008  0.4614232E+02  0.7816164E-02  0.1320468E+00
        -11   -1    0    0    0    0  0.00000000000E+00  0.00000000000E+00  0.45593999997E+02  0.45594000000E+02  0.51100000000E-03 0. -1.
         11   -1    0    0    0    0 -0.00000000000E+00 -0.00000000000E+00 -0.45593999997E+02  0.45594000000E+02  0.51100000000E-03 0.  1.
    9900012    2    1    2    0    0  0.96758606067E+01 -0.38105830011E+02 -0.21987202006E+02  0.46142316396E+02  0.99999875528E+01 0.  0.
         12    1    1    2    0    0 -0.96758606067E+01  0.38105830011E+02  0.21987202006E+02  0.45045683604E+02  0.00000000000E+00 0. -1.
         11    1    3    3    0    0  0.17478588939E+01 -0.36761413372E+01 -0.11858895547E+01  0.42397358575E+01  0.51100000000E-03 0. -1.
        -11    1    3    3    0    0  0.85453668339E+01 -0.19424742646E+02 -0.10384793823E+02  0.23625999751E+02  0.51100000000E-03 0.  1.
         12    1    3    3    0    0 -0.61736512112E+00 -0.15004946027E+02 -0.10416518628E+02  0.18276580788E+02  0.00000000000E+00 0. -1.
</event>
<event>
 7    1  0.2328810E-008  0.4614232E+02  0.7816164E-02  0.1320468E+00
        -11   -1    0    0    0    0  0.00000000000E+00  0.00000000000E+00  0.45593999997E+02  0.45594000000E+02  0.51100000000E-03 0.  1.
         11   -1    0    0    0    0 -0.00000000000E+00 -0.00000000000E+00 -0.45593999997E+02  0.45594000000E+02  0.51100000000E-03 0. -1.
    9900012    2    1    2    0    0 -0.30772954905E+02 -0.26146886912E+02  0.19961926810E+02  0.46142323507E+02  0.10000052395E+02 0.  0.
         12    1    1    2    0    0  0.30772954905E+02  0.26146886912E+02 -0.19961926810E+02  0.45045676493E+02  0.00000000000E+00 0. -1.
         11    1    3    3    0    0 -0.19939395382E+01 -0.41689837750E+01  0.43953965698E+01  0.63777528852E+01  0.51100000000E-03 0. -1.
        -11    1    3    3    0    0 -0.15201971382E+02 -0.11459542020E+02  0.11025608819E+02  0.21999661073E+02  0.51100000000E-03 0.  1.
        -12    1    3    3    0    0 -0.13577043985E+02 -0.10518361116E+02  0.45409214209E+01  0.17764909549E+02  0.00000000000E+00 0.  1.
</event>
<event>
 7    1  0.2328810E-008  0.4614231E+02  0.7816164E-02  0.1320468E+00
        -11   -1    0    0    0    0  0.00000000000E+00  0.00000000000E+00  0.45593999997E+02  0.45594000000E+02  0.51100000000E-03 0.  1.
         11   -1    0    0    0    0 -0.00000000000E+00 -0.00000000000E+00 -0.45593999997E+02  0.45594000000E+02  0.51100000000E-03 0. -1.
    9900012    2    1    2    0    0 -0.25114723297E+02  0.62761174408E+01  0.36864275144E+02  0.46142314765E+02  0.99999726749E+01 0.  0.
         12    1    1    2    0    0  0.25114723297E+02 -0.62761174408E+01 -0.36864275144E+02  0.45045685235E+02  0.00000000000E+00 0. -1.
         11    1    3    3    0    0 -0.12636352953E+00  0.51545742318E+00  0.32328137513E+01  0.32760874696E+01  0.51100000000E-03 0. -1.
        -11    1    3    3    0    0 -0.22744930718E+01  0.12052316461E+01  0.75760430683E+01  0.80013955588E+01  0.51100000000E-03 0.  1.
        -12    1    3    3    0    0 -0.22713866696E+02  0.45554283715E+01  0.26055418325E+02  0.34864831736E+02  0.00000000000E+00 0.  1.
</event>
<event>
 7    1  0.2328810E-008  0.4614232E+02  0.7816164E-02  0.1320468E+00
        -11   -1    0    0    0    0  0.00000000000E+00  0.00000000000E+00  0.45593999997E+02  0.45594000000E+02  0.51100000000E-03 0.  1.
         11   -1    0    0    0    0 -0.00000000000E+00 -0.00000000000E+00 -0.45593999997E+02  0.45594000000E+02  0.51100000000E-03 0. -1.
    9900012    2    1    2    0    0 -0.15767905857E+02 -0.27875465536E+02  0.31677202905E+02  0.46142316324E+02  0.99999868951E+01 0.  0.
         12    1    1    2    0    0  0.15767905857E+02  0.27875465536E+02 -0.31677202905E+02  0.45045683676E+02  0.00000000000E+00 0. -1.
         11    1    3    3    0    0 -0.22669231821E+01 -0.35385770009E+01  0.18943445829E+01  0.46096647996E+01  0.51100000000E-03 0. -1.
        -11    1    3    3    0    0  0.46565862684E+00 -0.50547975258E+01  0.42390044364E+01  0.66133935961E+01  0.51100000000E-03 0.  1.
         12    1    3    3    0    0 -0.13966641301E+02 -0.19282091010E+02  0.25543853885E+02  0.34919257928E+02  0.00000000000E+00 0. -1.
</event>
<event>
 7    1  0.2328810E-008  0.4614232E+02  0.7816164E-02  0.1320468E+00
        -11   -1    0    0    0    0  0.00000000000E+00  0.00000000000E+00  0.45593999997E+02  0.45594000000E+02  0.51100000000E-03 0.  1.
         11   -1    0    0    0    0 -0.00000000000E+00 -0.00000000000E+00 -0.45593999997E+02  0.45594000000E+02  0.51100000000E-03 0. -1.
    9900012    2    1    2    0    0  0.97836530068E+01 -0.43470905458E+02 -0.66086290125E+01  0.46142318021E+02  0.10000002370E+02 0.  0.
         12    1    1    2    0    0 -0.97836530068E+01  0.43470905458E+02  0.66086290125E+01  0.45045681979E+02  0.00000000000E+00 0. -1.
         11    1    3    3    0    0  0.78386478452E+01 -0.21408013916E+02 -0.56146291410E+01  0.23479172058E+02  0.51100000000E-03 0. -1.
        -11    1    3    3    0    0  0.35139409692E+01 -0.15356398093E+02 -0.75797623948E+00  0.15771533590E+02  0.51100000000E-03 0.  1.
        -12    1    3    3    0    0 -0.15689358076E+01 -0.67064934490E+01 -0.23602363194E+00  0.68916123734E+01  0.00000000000E+00 0.  1.
</event>
<event>
 7    1  0.2328810E-008  0.4614232E+02  0.7816164E-02  0.1320468E+00
        -11   -1    0    0    0    0  0.00000000000E+00  0.00000000000E+00  0.45593999997E+02  0.45594000000E+02  0.51100000000E-03 0. -1.
         11   -1    0    0    0    0 -0.00000000000E+00 -0.00000000000E+00 -0.45593999997E+02  0.45594000000E+02  0.51100000000E-03 0.  1.
    9900012    2    1    2    0    0 -0.39561056408E+02 -0.19357909614E+02  0.94502668809E+01  0.46142318821E+02  0.10000009668E+02 0.  0.
         12    1    1    2    0    0  0.39561056408E+02  0.19357909614E+02 -0.94502668809E+01  0.45045681179E+02  0.00000000000E+00 0. -1.
         11    1    3    3    0    0 -0.95007615060E+01 -0.49172970663E+01  0.45742369704E+01  0.11634772183E+02  0.51100000000E-03 0. -1.
        -11    1    3    3    0    0 -0.25907829127E+00 -0.16932189467E+01  0.59317632286E+00  0.18127245719E+01  0.51100000000E-03 0.  1.
        -12    1    3    3    0    0 -0.29801216611E+02 -0.12747393601E+02  0.42828535876E+01  0.32694822066E+02  0.00000000000E+00 0.  1.
</event>
<event>
 7    1  0.2328810E-008  0.4614231E+02  0.7816164E-02  0.1320468E+00
        -11   -1    0    0    0    0  0.00000000000E+00  0.00000000000E+00  0.45593999997E+02  0.45594000000E+02  0.51100000000E-03 0.  1.
         11   -1    0    0    0    0 -0.00000000000E+00 -0.00000000000E+00 -0.45593999997E+02  0.45594000000E+02  0.51100000000E-03 0. -1.
    9900012    2    1    2    0    0  0.13453447297E+01  0.43886700174E+01  0.44811198607E+02  0.46142313219E+02  0.99999585839E+01 0.  0.
         12    1    1    2    0    0 -0.13453447297E+01 -0.43886700174E+01 -0.44811198607E+02  0.45045686781E+02  0.00000000000E+00 0. -1.
         11    1    3    3    0    0  0.11420286193E+01  0.52174940252E-01  0.14334370929E+02  0.14379886710E+02  0.51100000000E-03 0. -1.
        -11    1    3    3    0    0  0.38935363504E+01  0.30654612253E+01  0.14824256756E+02  0.15630587528E+02  0.51100000000E-03 0.  1.
         12    1    3    3    0    0 -0.36902202399E+01  0.12710338519E+01  0.15652570922E+02  0.16131838982E+02  0.00000000000E+00 0. -1.
</event>
<event>
 7    1  0.2328810E-008  0.4614232E+02  0.7816164E-02  0.1320468E+00
        -11   -1    0    0    0    0  0.00000000000E+00  0.00000000000E+00  0.45593999997E+02  0.45594000000E+02  0.51100000000E-03 0.  1.
         11   -1    0    0    0    0 -0.00000000000E+00 -0.00000000000E+00 -0.45593999997E+02  0.45594000000E+02  0.51100000000E-03 0. -1.
    9900012    2    1    2    0    0 -0.23969233036E+02 -0.14764998806E+02  0.35165099121E+02  0.46142317429E+02  0.99999969756E+01 0.  0.
         12    1    1    2    0    0  0.23969233036E+02  0.14764998806E+02 -0.35165099121E+02  0.45045682571E+02  0.00000000000E+00 0. -1.
         11    1    3    3    0    0 -0.92436866439E+01 -0.41798439380E+01  0.12537646719E+02  0.16127908222E+02  0.51100000000E-03 0.  1.
        -11    1    3    3    0    0 -0.80888653919E+00  0.11204369438E+01  0.77237373490E+00  0.15831101748E+01  0.51100000000E-03 0. -1.
         12    1    3    3    0    0 -0.13916659853E+02 -0.11705591812E+02  0.21855078667E+02  0.28431299032E+02  0.00000000000E+00 0. -1.
</event>
<event>
 7    1  0.2328810E-008  0.4614232E+02  0.7816164E-02  0.1320468E+00
        -11   -1    0    0    0    0  0.00000000000E+00  0.00000000000E+00  0.45593999997E+02  0.45594000000E+02  0.51100000000E-03 0. -1.
         11   -1    0    0    0    0 -0.00000000000E+00 -0.00000000000E+00 -0.45593999997E+02  0.45594000000E+02  0.51100000000E-03 0.  1.
    9900012    2    1    2    0    0  0.22582006870E+02 -0.26776299977E+02 -0.28323065381E+02  0.46142319771E+02  0.10000018325E+02 0.  0.
         12    1    1    2    0    0 -0.22582006870E+02  0.26776299977E+02  0.28323065381E+02  0.45045680229E+02  0.00000000000E+00 0. -1.
         11    1    3    3    0    0  0.15282715532E+02 -0.19563058091E+02 -0.15636223735E+02  0.29338816078E+02  0.51100000000E-03 0. -1.
        -11    1    3    3    0    0  0.77162046551E+01 -0.69265687509E+01 -0.12549878221E+02  0.16279330839E+02  0.51100000000E-03 0.  1.
         12    1    3    3    0    0 -0.41691331724E+00 -0.28667313561E+00 -0.13696342475E+00  0.52417285364E+00  0.00000000000E+00 0. -1.
</event>
<event>
 7    1  0.2328810E-008  0.4614232E+02  0.7816164E-02  0.1320468E+00
        -11   -1    0    0    0    0  0.00000000000E+00  0.00000000000E+00  0.45593999997E+02  0.45594000000E+02  0.51100000000E-03 0. -1.
         11   -1    0    0    0    0 -0.00000000000E+00 -0.00000000000E+00 -0.45593999997E+02  0.45594000000E+02  0.51100000000E-03 0.  1.
    9900012    2    1    2    0    0  0.96130428792E+01  0.44118463030E+01 -0.43786282718E+02  0.46142317238E+02  0.99999952337E+01 0.  0.
         12    1    1    2    0    0 -0.96130428792E+01 -0.44118463030E+01  0.43786282718E+02  0.45045682762E+02  0.00000000000E+00 0. -1.
         11    1    3    3    0    0  0.79075212547E+00  0.11533472042E+01 -0.16911325240E+01  0.21944083878E+01  0.51100000000E-03 0. -1.
        -11    1    3    3    0    0  0.56027287242E+01  0.53399801095E+01 -0.18664531954E+02  0.20205709838E+02  0.51100000000E-03 0.  1.
         12    1    3    3    0    0  0.32195620295E+01 -0.20814810107E+01 -0.23430618240E+02  0.23742199013E+02  0.00000000000E+00 0. -1.
</event>
<event>
 7    1  0.2328810E-008  0.4614232E+02  0.7816164E-02  0.1320468E+00
        -11   -1    0    0    0    0  0.00000000000E+00  0.00000000000E+00  0.45593999997E+02  0.45594000000E+02  0.51100000000E-03 0.  1.
         11   -1    0    0    0    0 -0.00000000000E+00 -0.00000000000E+00 -0.45593999997E+02  0.45594000000E+02  0.51100000000E-03 0. -1.
    9900012    2    1    2    0    0 -0.15269276337E+02 -0.94192480502E+01  0.41318766135E+02  0.46142317980E+02  0.10000002000E+02 0.  0.
         12    1    1    2    0    0  0.15269276337E+02  0.94192480502E+01 -0.41318766135E+02  0.45045682020E+02  0.00000000000E+00 0. -1.
         11    1    3    3    0    0 -0.50320302679E+01 -0.71147422987E+01  0.21477622308E+02  0.23178204134E+02  0.51100000000E-03 0.  1.
        -11    1    3    3    0    0 -0.72326272369E+01 -0.26597753317E+01  0.97415699671E+01  0.12421090421E+02  0.51100000000E-03 0. -1.
        -12    1    3    3    0    0 -0.30046188320E+01  0.35526958020E+00  0.10099573860E+02  0.10543023426E+02  0.00000000000E+00 0.  1.
</event>
<event>
 7    1  0.2328810E-008  0.4614232E+02  0.7816164E-02  0.1320468E+00
        -11   -1    0    0    0    0  0.00000000000E+00  0.00000000000E+00  0.45593999997E+02  0.45594000000E+02  0.51100000000E-03 0.  1.
         11   -1    0    0    0    0 -0.00000000000E+00 -0.00000000000E+00 -0.45593999997E+02  0.45594000000E+02  0.51100000000E-03 0. -1.
    9900012    2    1    2    0    0  0.25435396152E+02 -0.24075494554E+02  0.28328856380E+02  0.46142324078E+02  0.10000057602E+02 0.  0.
         12    1    1    2    0    0 -0.25435396152E+02  0.24075494554E+02 -0.28328856380E+02  0.45045675922E+02  0.00000000000E+00 0. -1.
         11    1    3    3    0    0  0.47815653008E+00 -0.22711808096E+01  0.82404377872E+00  0.24629137921E+01  0.51100000000E-03 0. -1.
        -11    1    3    3    0    0  0.12779827370E+02 -0.13323396750E+02  0.11026482150E+02  0.21503957715E+02  0.51100000000E-03 0.  1.
        -12    1    3    3    0    0  0.12177412252E+02 -0.84809169947E+01  0.16478330452E+02  0.22175452571E+02  0.00000000000E+00 0.  1.
</event>
<event>
 7    1  0.2328810E-008  0.4614232E+02  0.7816164E-02  0.1320468E+00
        -11   -1    0    0    0    0  0.00000000000E+00  0.00000000000E+00  0.45593999997E+02  0.45594000000E+02  0.51100000000E-03 0.  1.
         11   -1    0    0    0    0 -0.00000000000E+00 -0.00000000000E+00 -0.45593999997E+02  0.45594000000E+02  0.51100000000E-03 0. -1.
    9900012    2    1    2    0    0  0.34751548958E+02 -0.58206878703E+01  0.28063547497E+02  0.46142320292E+02  0.10000023077E+02 0.  0.
         12    1    1    2    0    0 -0.34751548958E+02  0.58206878703E+01 -0.28063547497E+02  0.45045679708E+02  0.00000000000E+00 0. -1.
         11    1    3    3    0    0  0.16937211439E+01 -0.19574215865E+01  0.22403134305E+01  0.34233309961E+01  0.51100000000E-03 0. -1.
        -11    1    3    3    0    0  0.69282216741E+01 -0.21212027324E+01  0.91606299340E+01  0.11679764452E+02  0.51100000000E-03 0.  1.
        -12    1    3    3    0    0  0.26129606140E+02 -0.17420635513E+01  0.16662604132E+02  0.31039224844E+02  0.00000000000E+00 0.  1.
</event>
<event>
 7    1  0.2328810E-008  0.4614232E+02  0.7816164E-02  0.1320468E+00
        -11   -1    0    0    0    0  0.00000000000E+00  0.00000000000E+00  0.45593999997E+02  0.45594000000E+02  0.51100000000E-03 0.  1.
         11   -1    0    0    0    0 -0.00000000000E+00 -0.00000000000E+00 -0.45593999997E+02  0.45594000000E+02  0.51100000000E-03 0. -1.
    9900012    2    1    2    0    0 -0.74815824252E+01 -0.19471210339E+01  0.44377335974E+02  0.46142319806E+02  0.10000018651E+02 0.  0.
         12    1    1    2    0    0  0.74815824252E+01  0.19471210339E+01 -0.44377335974E+02  0.45045680194E+02  0.00000000000E+00 0. -1.
         11    1    3    3    0    0  0.66260052762E-01 -0.10939196600E+01  0.17972720250E+02  0.18006102412E+02  0.51100000000E-03 0. -1.
        -11    1    3    3    0    0  0.17736448442E+00  0.15529095922E+01  0.31985358464E+01  0.35600025539E+01  0.51100000000E-03 0.  1.
         12    1    3    3    0    0 -0.77252069624E+01 -0.24061109661E+01  0.23206079878E+02  0.24576214841E+02  0.00000000000E+00 0. -1.
</event>
<event>
 7    1  0.2328810E-008  0.4614232E+02  0.7816164E-02  0.1320468E+00
        -11   -1    0    0    0    0  0.00000000000E+00  0.00000000000E+00  0.45593999997E+02  0.45594000000E+02  0.51100000000E-03 0. -1.
         11   -1    0    0    0    0 -0.00000000000E+00 -0.00000000000E+00 -0.45593999997E+02  0.45594000000E+02  0.51100000000E-03 0.  1.
    9900012    2    1    2    0    0 -0.31770584300E+01 -0.18772945438E+02 -0.40823966715E+02  0.46142318309E+02  0.10000004997E+02 0.  0.
         12    1    1    2    0    0  0.31770584300E+01  0.18772945438E+02  0.40823966715E+02  0.45045681691E+02  0.00000000000E+00 0. -1.
         11    1    3    3    0    0 -0.39381147253E+00 -0.81553537178E+01 -0.17964595404E+02  0.19733007121E+02  0.51100000000E-03 0. -1.
        -11    1    3    3    0    0 -0.90336772631E-01 -0.76804128078E+01 -0.20219811905E+02  0.21629556060E+02  0.51100000000E-03 0.  1.
         12    1    3    3    0    0 -0.26929101848E+01 -0.29371789124E+01 -0.26395594051E+01  0.47797551276E+01  0.00000000000E+00 0. -1.
</event>
<event>
 7    1  0.2328810E-008  0.4614232E+02  0.7816164E-02  0.1320468E+00
        -11   -1    0    0    0    0  0.00000000000E+00  0.00000000000E+00  0.45593999997E+02  0.45594000000E+02  0.51100000000E-03 0.  1.
         11   -1    0    0    0    0 -0.00000000000E+00 -0.00000000000E+00 -0.45593999997E+02  0.45594000000E+02  0.51100000000E-03 0. -1.
    9900012    2    1    2    0    0 -0.33511992099E+02  0.40284959733E+01  0.29830037414E+02  0.46142317339E+02  0.99999961514E+01 0.  0.
         12    1    1    2    0    0  0.33511992099E+02 -0.40284959733E+01 -0.29830037414E+02  0.45045682661E+02  0.00000000000E+00 0. -1.
         11    1    3    3    0    0 -0.17577915994E+02 -0.24553361517E+01  0.14970275608E+02  0.23218978409E+02  0.51100000000E-03 0. -1.
        -11    1    3    3    0    0 -0.31448263084E+01  0.90458576420E+00  0.44070995831E+01  0.54891470112E+01  0.51100000000E-03 0.  1.
        -12    1    3    3    0    0 -0.12789249797E+02  0.55792463608E+01  0.10452662223E+02  0.17434191919E+02  0.00000000000E+00 0.  1.
</event>
<event>
 7    1  0.2328810E-008  0.4614232E+02  0.7816164E-02  0.1320468E+00
        -11   -1    0    0    0    0  0.00000000000E+00  0.00000000000E+00  0.45593999997E+02  0.45594000000E+02  0.51100000000E-03 0. -1.
         11   -1    0    0    0    0 -0.00000000000E+00 -0.00000000000E+00 -0.45593999997E+02  0.45594000000E+02  0.51100000000E-03 0.  1.
    9900012    2    1    2    0    0  0.34740740733E+02 -0.28557079315E+02 -0.25860453131E+01  0.46142317898E+02  0.10000001248E+02 0.  0.
         12    1    1    2    0    0 -0.34740740733E+02  0.28557079315E+02  0.25860453131E+01  0.45045682102E+02  0.00000000000E+00 0. -1.
         11    1    3    3    0    0  0.48334544809E+01 -0.34499959529E+01 -0.26289045426E+01  0.64942970096E+01  0.51100000000E-03 0. -1.
        -11    1    3    3    0    0  0.53372738315E+00  0.37975411167E+00 -0.37813571638E+00  0.75634977753E+00  0.51100000000E-03 0.  1.
        -12    1    3    3    0    0  0.29373558869E+02 -0.25486837474E+02  0.42099494593E+00  0.38891671111E+02  0.00000000000E+00 0.  1.
</event>
<event>
 7    1  0.2328810E-008  0.4614232E+02  0.7816164E-02  0.1320468E+00
        -11   -1    0    0    0    0  0.00000000000E+00  0.00000000000E+00  0.45593999997E+02  0.45594000000E+02  0.51100000000E-03 0. -1.
         11   -1    0    0    0    0 -0.00000000000E+00 -0.00000000000E+00 -0.45593999997E+02  0.45594000000E+02  0.51100000000E-03 0.  1.
    9900012    2    1    2    0    0 -0.29986118849E+02  0.15732687994E+02 -0.29705701690E+02  0.46142317542E+02  0.99999980053E+01 0.  0.
         12    1    1    2    0    0  0.29986118849E+02 -0.15732687994E+02  0.29705701690E+02  0.45045682458E+02  0.00000000000E+00 0. -1.
         11    1    3    3    0    0 -0.13307294154E+02  0.60374534738E+01 -0.13292163448E+02  0.19753899148E+02  0.51100000000E-03 0. -1.
        -11    1    3    3    0    0 -0.45039852961E+01  0.44018195404E+01 -0.95599761107E+01  0.11447927424E+02  0.51100000000E-03 0.  1.
        -12    1    3    3    0    0 -0.12174839399E+02  0.52934149801E+01 -0.68535621317E+01  0.14940490970E+02  0.00000000000E+00 0.  1.
</event>
<event>
 7    1  0.2328810E-008  0.4614232E+02  0.7816164E-02  0.1320468E+00
        -11   -1    0    0    0    0  0.00000000000E+00  0.00000000000E+00  0.45593999997E+02  0.45594000000E+02  0.51100000000E-03 0.  1.
         11   -1    0    0    0    0 -0.00000000000E+00 -0.00000000000E+00 -0.45593999997E+02  0.45594000000E+02  0.51100000000E-03 0. -1.
    9900012    2    1    2    0    0 -0.93718543167E+01 -0.46837593076E+00  0.44057491064E+02  0.46142317097E+02  0.99999939414E+01 0.  0.
         12    1    1    2    0    0  0.93718543167E+01  0.46837593076E+00 -0.44057491064E+02  0.45045682903E+02  0.00000000000E+00 0. -1.
         11    1    3    3    0    0 -0.14530678286E+01  0.23420267170E+01  0.50702438744E+01  0.57709503953E+01  0.51100000000E-03 0. -1.
        -11    1    3    3    0    0  0.95586588418E+00  0.36572925387E+00  0.48423076463E+01  0.49492808647E+01  0.51100000000E-03 0.  1.
        -12    1    3    3    0    0 -0.88746523723E+01 -0.31761319017E+01  0.34144939544E+02  0.35422085837E+02  0.00000000000E+00 0.  1.
</event>
<event>
 7    1  0.2328810E-008  0.4614232E+02  0.7816164E-02  0.1320468E+00
        -11   -1    0    0    0    0  0.00000000000E+00  0.00000000000E+00  0.45593999997E+02  0.45594000000E+02  0.51100000000E-03 0. -1.
         11   -1    0    0    0    0 -0.00000000000E+00 -0.00000000000E+00 -0.45593999997E+02  0.45594000000E+02  0.51100000000E-03 0.  1.
    9900012    2    1    2    0    0 -0.29002425916E+02 -0.15587303969E+02  0.30740993098E+02  0.46142318623E+02  0.10000007861E+02 0.  0.
         12    1    1    2    0    0  0.29002425916E+02  0.15587303969E+02 -0.30740993098E+02  0.45045681377E+02  0.00000000000E+00 0. -1.
         11    1    3    3    0    0 -0.29762396686E+01 -0.36597668091E+00  0.58388484758E+01  0.65638474449E+01  0.51100000000E-03 0. -1.
        -11    1    3    3    0    0 -0.18471169815E+02 -0.83471379608E+01  0.18995486888E+02  0.27779261129E+02  0.51100000000E-03 0.  1.
        -12    1    3    3    0    0 -0.75550164322E+01 -0.68741893278E+01  0.59066577335E+01  0.11799210049E+02  0.00000000000E+00 0.  1.
</event>
<event>
 7    1  0.2328810E-008  0.4614232E+02  0.7816164E-02  0.1320468E+00
        -11   -1    0    0    0    0  0.00000000000E+00  0.00000000000E+00  0.45593999997E+02  0.45594000000E+02  0.51100000000E-03 0.  1.
         11   -1    0    0    0    0 -0.00000000000E+00 -0.00000000000E+00 -0.45593999997E+02  0.45594000000E+02  0.51100000000E-03 0. -1.
    9900012    2    1    2    0    0  0.40683954307E+02 -0.18836812399E+02  0.43707894279E+01  0.46142318302E+02  0.10000004934E+02 0.  0.
         12    1    1    2    0    0 -0.40683954307E+02  0.18836812399E+02 -0.43707894279E+01  0.45045681698E+02  0.00000000000E+00 0. -1.
         11    1    3    3    0    0  0.10836816374E+02 -0.70049762220E+01  0.47604919414E+01  0.13753856360E+02  0.51100000000E-03 0. -1.
        -11    1    3    3    0    0  0.24579001810E+02 -0.11408199532E+02 -0.15063601697E+00  0.27097915751E+02  0.51100000000E-03 0.  1.
         12    1    3    3    0    0  0.52681361226E+01 -0.42363664534E+00 -0.23906649657E+00  0.52905461914E+01  0.00000000000E+00 0. -1.
</event>
<event>
 7    1  0.2328810E-008  0.4614232E+02  0.7816164E-02  0.1320468E+00
        -11   -1    0    0    0    0  0.00000000000E+00  0.00000000000E+00  0.45593999997E+02  0.45594000000E+02  0.51100000000E-03 0.  1.
         11   -1    0    0    0    0 -0.00000000000E+00 -0.00000000000E+00 -0.45593999997E+02  0.45594000000E+02  0.51100000000E-03 0. -1.
    9900012    2    1    2    0    0 -0.17008873322E+02 -0.69637469052E+00  0.41705236912E+02  0.46142317685E+02  0.99999993022E+01 0.  0.
         12    1    1    2    0    0  0.17008873322E+02  0.69637469052E+00 -0.41705236912E+02  0.45045682315E+02  0.00000000000E+00 0. -1.
         11    1    3    3    0    0 -0.55029291964E+01 -0.24508092027E+01  0.69347861006E+01  0.91858561937E+01  0.51100000000E-03 0. -1.
        -11    1    3    3    0    0 -0.47546978444E+01  0.91863093314E+00  0.21561876300E+02  0.22098994190E+02  0.51100000000E-03 0.  1.
         12    1    3    3    0    0 -0.67512462811E+01  0.83580357902E+00  0.13208574511E+02  0.14857467300E+02  0.00000000000E+00 0. -1.
</event>
<event>
 7    1  0.2328810E-008  0.4614232E+02  0.7816164E-02  0.1320468E+00
        -11   -1    0    0    0    0  0.00000000000E+00  0.00000000000E+00  0.45593999997E+02  0.45594000000E+02  0.51100000000E-03 0.  1.
         11   -1    0    0    0    0 -0.00000000000E+00 -0.00000000000E+00 -0.45593999997E+02  0.45594000000E+02  0.51100000000E-03 0. -1.
    9900012    2    1    2    0    0  0.12183499703E+01  0.28045360807E+02  0.35229062078E+02  0.46142318139E+02  0.10000003448E+02 0.  0.
         12    1    1    2    0    0 -0.12183499703E+01 -0.28045360807E+02 -0.35229062078E+02  0.45045681861E+02  0.00000000000E+00 0. -1.
         11    1    3    3    0    0  0.27306258899E+01  0.20442138389E+02  0.27003659504E+02  0.33978448560E+02  0.51100000000E-03 0. -1.
        -11    1    3    3    0    0 -0.30922856046E+01  0.44479825536E+01  0.53236894358E+01  0.75952912075E+01  0.51100000000E-03 0.  1.
         12    1    3    3    0    0  0.15800096850E+01  0.31552398641E+01  0.29017131374E+01  0.45685783715E+01  0.00000000000E+00 0. -1.
</event>
<event>
 7    1  0.2328810E-008  0.4614232E+02  0.7816164E-02  0.1320468E+00
        -11   -1    0    0    0    0  0.00000000000E+00  0.00000000000E+00  0.45593999997E+02  0.45594000000E+02  0.51100000000E-03 0.  1.
         11   -1    0    0    0    0 -0.00000000000E+00 -0.00000000000E+00 -0.45593999997E+02  0.45594000000E+02  0.51100000000E-03 0. -1.
    9900012    2    1    2    0    0 -0.26825915993E+02 -0.11866903884E+02  0.34185671434E+02  0.46142319762E+02  0.10000018249E+02 0.  0.
         12    1    1    2    0    0  0.26825915993E+02  0.11866903884E+02 -0.34185671434E+02  0.45045680238E+02  0.00000000000E+00 0. -1.
         11    1    3    3    0    0 -0.12057186090E+02 -0.53479116950E+01  0.97282035490E+01  0.16389442958E+02  0.51100000000E-03 0. -1.
        -11    1    3    3    0    0 -0.41378971102E+01  0.34090143601E+00  0.44983963132E+01  0.61215991322E+01  0.51100000000E-03 0.  1.
         12    1    3    3    0    0 -0.10630832793E+02 -0.68598936255E+01  0.19959071572E+02  0.23631277672E+02  0.00000000000E+00 0. -1.
</event>
<event>
 7    1  0.2328810E-008  0.4614232E+02  0.7816164E-02  0.1320468E+00
        -11   -1    0    0    0    0  0.00000000000E+00  0.00000000000E+00  0.45593999997E+02  0.45594000000E+02  0.51100000000E-03 0.  1.
         11   -1    0    0    0    0 -0.00000000000E+00 -0.00000000000E+00 -0.45593999997E+02  0.45594000000E+02  0.51100000000E-03 0. -1.
    9900012    2    1    2    0    0  0.15439783736E+02 -0.49723750877E+01  0.42023827456E+02  0.46142317523E+02  0.99999978255E+01 0.  0.
         12    1    1    2    0    0 -0.15439783736E+02  0.49723750877E+01 -0.42023827456E+02  0.45045682477E+02  0.00000000000E+00 0. -1.
         11    1    3    3    0    0 -0.90514277305E+00  0.10855973060E+01  0.33727583710E+01  0.36569528628E+01  0.51100000000E-03 0. -1.
        -11    1    3    3    0    0  0.87171389022E+01 -0.37472304012E+01  0.23984017011E+02  0.25792698939E+02  0.51100000000E-03 0.  1.
         12    1    3    3    0    0  0.76277876070E+01 -0.23107419925E+01  0.14667052074E+02  0.16692665721E+02  0.00000000000E+00 0. -1.
</event>
<event>
 7    1  0.2328810E-008  0.4614232E+02  0.7816164E-02  0.1320468E+00
        -11   -1    0    0    0    0  0.00000000000E+00  0.00000000000E+00  0.45593999997E+02  0.45594000000E+02  0.51100000000E-03 0.  1.
         11   -1    0    0    0    0 -0.00000000000E+00 -0.00000000000E+00 -0.45593999997E+02  0.45594000000E+02  0.51100000000E-03 0. -1.
    9900012    2    1    2    0    0 -0.83879981548E+01 -0.38224241899E+02  0.22308347014E+02  0.46142317318E+02  0.99999959594E+01 0.  0.
         12    1    1    2    0    0  0.83879981548E+01  0.38224241899E+02 -0.22308347014E+02  0.45045682682E+02  0.00000000000E+00 0. -1.
         11    1    3    3    0    0 -0.58051926147E+01 -0.34544700322E+02  0.17859586804E+02  0.39319224595E+02  0.51100000000E-03 0. -1.
        -11    1    3    3    0    0 -0.27422042024E+01 -0.24760578119E+01  0.22911643092E+01  0.43474107614E+01  0.51100000000E-03 0.  1.
         12    1    3    3    0    0  0.15939866232E+00 -0.12034837646E+01  0.21575959008E+01  0.24756819619E+01  0.00000000000E+00 0. -1.
</event>
<event>
 7    1  0.2328810E-008  0.4614233E+02  0.7816164E-02  0.1320468E+00
        -11   -1    0    0    0    0  0.00000000000E+00  0.00000000000E+00  0.45593999997E+02  0.45594000000E+02  0.51100000000E-03 0.  1.
         11   -1    0    0    0    0 -0.00000000000E+00 -0.00000000000E+00 -0.45593999997E+02  0.45594000000E+02  0.51100000000E-03 0. -1.
    9900012    2    1    2    0    0 -0.37853767118E+02  0.24356571551E+02  0.17211770812E+01  0.46142326364E+02  0.10000078450E+02 0.  0.
         12    1    1    2    0    0  0.37853767118E+02 -0.24356571551E+02 -0.17211770812E+01  0.45045673636E+02  0.00000000000E+00 0. -1.
         11    1    3    3    0    0 -0.43558242617E+01  0.31495083505E+01  0.10439627506E+01  0.54756247438E+01  0.51100000000E-03 0. -1.
        -11    1    3    3    0    0 -0.13787165497E+02  0.95538802418E+01 -0.41184143970E+01  0.17272055393E+02  0.51100000000E-03 0.  1.
        -12    1    3    3    0    0 -0.19710777360E+02  0.11653182959E+02  0.47956287276E+01  0.23394646227E+02  0.00000000000E+00 0.  1.
</event>
<event>
 7    1  0.2328810E-008  0.4614232E+02  0.7816164E-02  0.1320468E+00
        -11   -1    0    0    0    0  0.00000000000E+00  0.00000000000E+00  0.45593999997E+02  0.45594000000E+02  0.51100000000E-03 0.  1.
         11   -1    0    0    0    0 -0.00000000000E+00 -0.00000000000E+00 -0.45593999997E+02  0.45594000000E+02  0.51100000000E-03 0. -1.
    9900012    2    1    2    0    0 -0.32722452799E+02 -0.30495433543E+02 -0.53275769824E+01  0.46142318069E+02  0.10000002804E+02 0.  0.
         12    1    1    2    0    0  0.32722452799E+02  0.30495433543E+02  0.53275769824E+01  0.45045681931E+02  0.00000000000E+00 0. -1.
         11    1    3    3    0    0 -0.11256893832E+02 -0.12872200392E+02 -0.45057183273E+01  0.17683684559E+02  0.51100000000E-03 0. -1.
        -11    1    3    3    0    0 -0.17462418192E+02 -0.16747611859E+02 -0.17446040446E+01  0.24258239747E+02  0.51100000000E-03 0.  1.
         12    1    3    3    0    0 -0.40031407749E+01 -0.87562129319E+00  0.92274538956E+00  0.42003937633E+01  0.00000000000E+00 0. -1.
</event>
<event>
 7    1  0.2328810E-008  0.4614232E+02  0.7816164E-02  0.1320468E+00
        -11   -1    0    0    0    0  0.00000000000E+00  0.00000000000E+00  0.45593999997E+02  0.45594000000E+02  0.51100000000E-03 0.  1.
         11   -1    0    0    0    0 -0.00000000000E+00 -0.00000000000E+00 -0.45593999997E+02  0.45594000000E+02  0.51100000000E-03 0. -1.
    9900012    2    1    2    0    0 -0.44312110035E+02  0.22634799098E+01  0.77734847389E+01  0.46142317610E+02  0.99999986200E+01 0.  0.
         12    1    1    2    0    0  0.44312110035E+02 -0.22634799098E+01 -0.77734847389E+01  0.45045682390E+02  0.00000000000E+00 0. -1.
         11    1    3    3    0    0 -0.30620478139E+02  0.72164414488E+00  0.49170061760E+01  0.31021144429E+02  0.51100000000E-03 0. -1.
        -11    1    3    3    0    0 -0.71519863021E+01  0.15402041960E+01  0.42130179633E+01  0.84423135248E+01  0.51100000000E-03 0.  1.
         12    1    3    3    0    0 -0.65396455936E+01  0.16315689271E-02 -0.13565394004E+01  0.66788596554E+01  0.00000000000E+00 0. -1.
</event>
<event>
 7    1  0.2328810E-008  0.4614232E+02  0.7816164E-02  0.1320468E+00
        -11   -1    0    0    0    0  0.00000000000E+00  0.00000000000E+00  0.45593999997E+02  0.45594000000E+02  0.51100000000E-03 0.  1.
         11   -1    0    0    0    0 -0.00000000000E+00 -0.00000000000E+00 -0.45593999997E+02  0.45594000000E+02  0.51100000000E-03 0. -1.
    9900012    2    1    2    0    0  0.41973151169E+01 -0.41142399038E+02  0.17854944128E+02  0.46142317825E+02  0.10000000587E+02 0.  0.
         12    1    1    2    0    0 -0.41973151169E+01  0.41142399038E+02 -0.17854944128E+02  0.45045682175E+02  0.00000000000E+00 0. -1.
         11    1    3    3    0    0  0.19313179096E+01 -0.75915833938E+01  0.57781607196E+01  0.97339236105E+01  0.51100000000E-03 0.  1.
        -11    1    3    3    0    0  0.30995615353E+00 -0.11101987618E+02  0.75356612888E+01  0.13421489977E+02  0.51100000000E-03 0. -1.
        -12    1    3    3    0    0  0.19560410537E+01 -0.22448828025E+02  0.45411221197E+01  0.22986904237E+02  0.00000000000E+00 0.  1.
</event>
<event>
 7    1  0.2328810E-008  0.4614232E+02  0.7816164E-02  0.1320468E+00
        -11   -1    0    0    0    0  0.00000000000E+00  0.00000000000E+00  0.45593999997E+02  0.45594000000E+02  0.51100000000E-03 0. -1.
         11   -1    0    0    0    0 -0.00000000000E+00 -0.00000000000E+00 -0.45593999997E+02  0.45594000000E+02  0.51100000000E-03 0.  1.
    9900012    2    1    2    0    0 -0.20868391040E+02  0.37422108274E+02  0.13899983963E+02  0.46142317782E+02  0.10000000191E+02 0.  0.
         12    1    1    2    0    0  0.20868391040E+02 -0.37422108274E+02 -0.13899983963E+02  0.45045682218E+02  0.00000000000E+00 0. -1.
         11    1    3    3    0    0 -0.11605474540E+02  0.19762495943E+02  0.74290720270E+01  0.24092206139E+02  0.51100000000E-03 0.  1.
        -11    1    3    3    0    0  0.65507844249E+00 -0.98810826030E-01 -0.11029198992E+00  0.67160697533E+00  0.51100000000E-03 0. -1.
         12    1    3    3    0    0 -0.99179949426E+01  0.17758423157E+02  0.65812039259E+01  0.21378504667E+02  0.00000000000E+00 0. -1.
</event>
<event>
 7    1  0.2328810E-008  0.4614232E+02  0.7816164E-02  0.1320468E+00
        -11   -1    0    0    0    0  0.00000000000E+00  0.00000000000E+00  0.45593999997E+02  0.45594000000E+02  0.51100000000E-03 0.  1.
         11   -1    0    0    0    0 -0.00000000000E+00 -0.00000000000E+00 -0.45593999997E+02  0.45594000000E+02  0.51100000000E-03 0. -1.
    9900012    2    1    2    0    0  0.66612862996E+01  0.22996871047E+02  0.38156057248E+02  0.46142317434E+02  0.99999970176E+01 0.  0.
         12    1    1    2    0    0 -0.66612862996E+01 -0.22996871047E+02 -0.38156057248E+02  0.45045682566E+02  0.00000000000E+00 0. -1.
         11    1    3    3    0    0  0.13387006729E+01  0.21381767617E+01  0.79042639892E+01  0.82970662784E+01  0.51100000000E-03 0. -1.
        -11    1    3    3    0    0  0.68658189286E+01  0.19215116707E+02  0.28113178487E+02  0.34737745818E+02  0.51100000000E-03 0.  1.
        -12    1    3    3    0    0 -0.15432333020E+01  0.16435775781E+01  0.21386147718E+01  0.31075053373E+01  0.00000000000E+00 0.  1.
</event>
<event>
 7    1  0.2328810E-008  0.4614232E+02  0.7816164E-02  0.1320468E+00
        -11   -1    0    0    0    0  0.00000000000E+00  0.00000000000E+00  0.45593999997E+02  0.45594000000E+02  0.51100000000E-03 0.  1.
         11   -1    0    0    0    0 -0.00000000000E+00 -0.00000000000E+00 -0.45593999997E+02  0.45594000000E+02  0.51100000000E-03 0. -1.
    9900012    2    1    2    0    0 -0.75598063887E+01 -0.24976480783E+02  0.36717001227E+02  0.46142318254E+02  0.10000004492E+02 0.  0.
         12    1    1    2    0    0  0.75598063887E+01  0.24976480783E+02 -0.36717001227E+02  0.45045681746E+02  0.00000000000E+00 0. -1.
         11    1    3    3    0    0 -0.32959337006E+01 -0.51179405043E+01  0.72028643610E+01  0.94306812707E+01  0.51100000000E-03 0. -1.
        -11    1    3    3    0    0 -0.51137467699E+01 -0.58032468515E+01  0.11158103352E+02  0.13576868222E+02  0.51100000000E-03 0.  1.
        -12    1    3    3    0    0  0.84987408185E+00 -0.14055293427E+02  0.18356033514E+02  0.23134768761E+02  0.00000000000E+00 0.  1.
</event>
<event>
 7    1  0.2328810E-008  0.4614231E+02  0.7816164E-02  0.1320468E+00
        -11   -1    0    0    0    0  0.00000000000E+00  0.00000000000E+00  0.45593999997E+02  0.45594000000E+02  0.51100000000E-03 0.  1.
         11   -1    0    0    0    0 -0.00000000000E+00 -0.00000000000E+00 -0.45593999997E+02  0.45594000000E+02  0.51100000000E-03 0. -1.
    9900012    2    1    2    0    0  0.36548182036E+02  0.45227549502E+00  0.26327545822E+02  0.46142313943E+02  0.99999651878E+01 0.  0.
         12    1    1    2    0    0 -0.36548182036E+02 -0.45227549502E+00 -0.26327545822E+02  0.45045686057E+02  0.00000000000E+00 0. -1.
         11    1    3    3    0    0  0.18602666961E+01 -0.29035643587E+00  0.44020731692E+01  0.47878123908E+01  0.51100000000E-03 0. -1.
        -11    1    3    3    0    0  0.16966346514E+02 -0.32694231588E+00  0.78461501917E+01  0.18695611207E+02  0.51100000000E-03 0.  1.
        -12    1    3    3    0    0  0.17721568826E+02  0.10695742468E+01  0.14079322461E+02  0.22658890345E+02  0.00000000000E+00 0.  1.
</event>
<event>
 7    1  0.2328810E-008  0.4614232E+02  0.7816164E-02  0.1320468E+00
        -11   -1    0    0    0    0  0.00000000000E+00  0.00000000000E+00  0.45593999997E+02  0.45594000000E+02  0.51100000000E-03 0. -1.
         11   -1    0    0    0    0 -0.00000000000E+00 -0.00000000000E+00 -0.45593999997E+02  0.45594000000E+02  0.51100000000E-03 0.  1.
    9900012    2    1    2    0    0 -0.41097510416E+02 -0.31689451405E+01 -0.18167715556E+02  0.46142318029E+02  0.10000002441E+02 0.  0.
         12    1    1    2    0    0  0.41097510416E+02  0.31689451405E+01  0.18167715556E+02  0.45045681971E+02  0.00000000000E+00 0. -1.
         11    1    3    3    0    0 -0.26580494638E+02 -0.33911599518E+01 -0.13754978273E+02  0.30120127632E+02  0.51100000000E-03 0.  1.
        -11    1    3    3    0    0 -0.95286839844E+01 -0.56301221416E+00 -0.52649440791E+01  0.10901029201E+02  0.51100000000E-03 0. -1.
         12    1    3    3    0    0 -0.49883317941E+01  0.78522702538E+00  0.85220679619E+00  0.51211611958E+01  0.00000000000E+00 0. -1.
</event>
<event>
 7    1  0.2328810E-008  0.4614232E+02  0.7816164E-02  0.1320468E+00
        -11   -1    0    0    0    0  0.00000000000E+00  0.00000000000E+00  0.45593999997E+02  0.45594000000E+02  0.51100000000E-03 0.  1.
         11   -1    0    0    0    0 -0.00000000000E+00 -0.00000000000E+00 -0.45593999997E+02  0.45594000000E+02  0.51100000000E-03 0. -1.
    9900012    2    1    2    0    0 -0.24290497495E+02 -0.25764677322E+01  0.37847681173E+02  0.46142318468E+02  0.10000006447E+02 0.  0.
         12    1    1    2    0    0  0.24290497495E+02  0.25764677322E+01 -0.37847681173E+02  0.45045681532E+02  0.00000000000E+00 0. -1.
         11    1    3    3    0    0 -0.12596990170E+02 -0.19344215834E+01  0.23452080783E+02  0.26691313971E+02  0.51100000000E-03 0. -1.
        -11    1    3    3    0    0 -0.50461571572E+01  0.21425441570E+01  0.86184692886E+01  0.10214314008E+02  0.51100000000E-03 0.  1.
         12    1    3    3    0    0 -0.66473501675E+01 -0.27845903057E+01  0.57771311012E+01  0.92366904885E+01  0.00000000000E+00 0. -1.
</event>
<event>
 7    1  0.2328810E-008  0.4614232E+02  0.7816164E-02  0.1320468E+00
        -11   -1    0    0    0    0  0.00000000000E+00  0.00000000000E+00  0.45593999997E+02  0.45594000000E+02  0.51100000000E-03 0.  1.
         11   -1    0    0    0    0 -0.00000000000E+00 -0.00000000000E+00 -0.45593999997E+02  0.45594000000E+02  0.51100000000E-03 0. -1.
    9900012    2    1    2    0    0 -0.41237402430E+02  0.16069837562E+02  0.83875160675E+01  0.46142318029E+02  0.10000002439E+02 0.  0.
         12    1    1    2    0    0  0.41237402430E+02 -0.16069837562E+02 -0.83875160675E+01  0.45045681971E+02  0.00000000000E+00 0. -1.
         11    1    3    3    0    0 -0.43021054244E+01  0.34227696076E+00  0.10920041477E+01  0.44517117966E+01  0.51100000000E-03 0.  1.
        -11    1    3    3    0    0 -0.25692509408E+01 -0.68568067964E-02  0.25104370693E+01  0.35921291671E+01  0.51100000000E-03 0. -1.
        -12    1    3    3    0    0 -0.34366046065E+02  0.15734417408E+02  0.47850748504E+01  0.38098477065E+02  0.00000000000E+00 0.  1.
</event>
<event>
 7    1  0.2328810E-008  0.4614233E+02  0.7816164E-02  0.1320468E+00
        -11   -1    0    0    0    0  0.00000000000E+00  0.00000000000E+00  0.45593999997E+02  0.45594000000E+02  0.51100000000E-03 0.  1.
         11   -1    0    0    0    0 -0.00000000000E+00 -0.00000000000E+00 -0.45593999997E+02  0.45594000000E+02  0.51100000000E-03 0. -1.
    9900012    2    1    2    0    0  0.41829662391E+02 -0.13499265905E+02  0.98570645132E+01  0.46142328104E+02  0.10000094318E+02 0.  0.
         12    1    1    2    0    0 -0.41829662391E+02  0.13499265905E+02 -0.98570645132E+01  0.45045671896E+02  0.00000000000E+00 0. -1.
         11    1    3    3    0    0  0.78847206905E+01 -0.67245331991E+01  0.26860135207E+01  0.10705271412E+02  0.51100000000E-03 0. -1.
        -11    1    3    3    0    0  0.37832036304E+01  0.24593328683E-01  0.66360951812E+00  0.38410431388E+01  0.51100000000E-03 0.  1.
        -12    1    3    3    0    0  0.30161738070E+02 -0.67993260346E+01  0.65074414744E+01  0.31596013554E+02  0.00000000000E+00 0.  1.
</event>
<event>
 7    1  0.2328810E-008  0.4614232E+02  0.7816164E-02  0.1320468E+00
        -11   -1    0    0    0    0  0.00000000000E+00  0.00000000000E+00  0.45593999997E+02  0.45594000000E+02  0.51100000000E-03 0.  1.
         11   -1    0    0    0    0 -0.00000000000E+00 -0.00000000000E+00 -0.45593999997E+02  0.45594000000E+02  0.51100000000E-03 0. -1.
    9900012    2    1    2    0    0 -0.43551413015E+02  0.86176784773E+00  0.11473676086E+02  0.46142318050E+02  0.10000002638E+02 0.  0.
         12    1    1    2    0    0  0.43551413015E+02 -0.86176784773E+00 -0.11473676086E+02  0.45045681950E+02  0.00000000000E+00 0. -1.
         11    1    3    3    0    0 -0.44347911607E+01 -0.68548958249E+00  0.34803517211E+01  0.56789186445E+01  0.51100000000E-03 0. -1.
        -11    1    3    3    0    0 -0.31931874181E+02  0.35726430505E+01  0.74194245742E+01  0.32976601225E+02  0.51100000000E-03 0.  1.
        -12    1    3    3    0    0 -0.71847476727E+01 -0.20253856203E+01  0.57389979023E+00  0.74867981808E+01  0.00000000000E+00 0.  1.
</event>
<event>
 7    1  0.2328810E-008  0.4614232E+02  0.7816164E-02  0.1320468E+00
        -11   -1    0    0    0    0  0.00000000000E+00  0.00000000000E+00  0.45593999997E+02  0.45594000000E+02  0.51100000000E-03 0. -1.
         11   -1    0    0    0    0 -0.00000000000E+00 -0.00000000000E+00 -0.45593999997E+02  0.45594000000E+02  0.51100000000E-03 0.  1.
    9900012    2    1    2    0    0  0.35978246549E+02  0.27024635169E+02 -0.20852480871E+01  0.46142318849E+02  0.10000009923E+02 0.  0.
         12    1    1    2    0    0 -0.35978246549E+02 -0.27024635169E+02  0.20852480871E+01  0.45045681151E+02  0.00000000000E+00 0. -1.
         11    1    3    3    0    0  0.24437573309E+02  0.21000928239E+02 -0.13568844569E+01  0.32250195532E+02  0.51100000000E-03 0. -1.
        -11    1    3    3    0    0  0.43464290264E+01  0.44094476479E+01 -0.17849960006E+01  0.64436701362E+01  0.51100000000E-03 0.  1.
         12    1    3    3    0    0  0.71942442133E+01  0.16142592820E+01  0.10566323704E+01  0.74484531815E+01  0.00000000000E+00 0. -1.
</event>
<event>
 7    1  0.2328810E-008  0.4614232E+02  0.7816164E-02  0.1320468E+00
        -11   -1    0    0    0    0  0.00000000000E+00  0.00000000000E+00  0.45593999997E+02  0.45594000000E+02  0.51100000000E-03 0.  1.
         11   -1    0    0    0    0 -0.00000000000E+00 -0.00000000000E+00 -0.45593999997E+02  0.45594000000E+02  0.51100000000E-03 0. -1.
    9900012    2    1    2    0    0 -0.19987817795E+02  0.39714096612E+02  0.72381742515E+01  0.46142317672E+02  0.99999991889E+01 0.  0.
         12    1    1    2    0    0  0.19987817795E+02 -0.39714096612E+02 -0.72381742515E+01  0.45045682328E+02  0.00000000000E+00 0. -1.
         11    1    3    3    0    0 -0.61923956780E+01  0.11102088042E+02  0.13487532488E+01  0.12783632454E+02  0.51100000000E-03 0. -1.
        -11    1    3    3    0    0 -0.19415477501E+01  0.23477721317E+01 -0.17953208433E+01  0.35362153271E+01  0.51100000000E-03 0.  1.
        -12    1    3    3    0    0 -0.11853874367E+02  0.26264236438E+02  0.76847418461E+01  0.29822469891E+02  0.00000000000E+00 0.  1.
</event>
<event>
 7    1  0.2328810E-008  0.4614232E+02  0.7816164E-02  0.1320468E+00
        -11   -1    0    0    0    0  0.00000000000E+00  0.00000000000E+00  0.45593999997E+02  0.45594000000E+02  0.51100000000E-03 0. -1.
         11   -1    0    0    0    0 -0.00000000000E+00 -0.00000000000E+00 -0.45593999997E+02  0.45594000000E+02  0.51100000000E-03 0.  1.
    9900012    2    1    2    0    0 -0.36228262867E+02 -0.19144890573E+02 -0.18710949242E+02  0.46142317777E+02  0.10000000141E+02 0.  0.
         12    1    1    2    0    0  0.36228262867E+02  0.19144890573E+02  0.18710949242E+02  0.45045682223E+02  0.00000000000E+00 0. -1.
         11    1    3    3    0    0 -0.17310152156E+02 -0.43932013982E+01 -0.80731499717E+01  0.19598911626E+02  0.51100000000E-03 0. -1.
        -11    1    3    3    0    0 -0.11339674539E+02 -0.63259564184E+01 -0.58098256897E+01  0.14225330157E+02  0.51100000000E-03 0.  1.
         12    1    3    3    0    0 -0.75784361720E+01 -0.84257327567E+01 -0.48279735803E+01  0.12318075994E+02  0.00000000000E+00 0. -1.
</event>
<event>
 7    1  0.2328810E-008  0.4614232E+02  0.7816164E-02  0.1320468E+00
        -11   -1    0    0    0    0  0.00000000000E+00  0.00000000000E+00  0.45593999997E+02  0.45594000000E+02  0.51100000000E-03 0. -1.
         11   -1    0    0    0    0 -0.00000000000E+00 -0.00000000000E+00 -0.45593999997E+02  0.45594000000E+02  0.51100000000E-03 0.  1.
    9900012    2    1    2    0    0  0.44400180674E+02 -0.15744557466E+00  0.75968848591E+01  0.46142317714E+02  0.99999995733E+01 0.  0.
         12    1    1    2    0    0 -0.44400180674E+02  0.15744557466E+00 -0.75968848591E+01  0.45045682286E+02  0.00000000000E+00 0. -1.
         11    1    3    3    0    0  0.89447445885E+01  0.22082180287E+01 -0.64600693467E+00  0.92359086092E+01  0.51100000000E-03 0. -1.
        -11    1    3    3    0    0  0.19086748995E+02 -0.32901790428E+01  0.64494371224E+01  0.20413831213E+02  0.51100000000E-03 0.  1.
        -12    1    3    3    0    0  0.16368687091E+02  0.92451543945E+00  0.17934546714E+01  0.16492577892E+02  0.00000000000E+00 0.  1.
</event>
<event>
 7    1  0.2328810E-008  0.4614232E+02  0.7816164E-02  0.1320468E+00
        -11   -1    0    0    0    0  0.00000000000E+00  0.00000000000E+00  0.45593999997E+02  0.45594000000E+02  0.51100000000E-03 0.  1.
         11   -1    0    0    0    0 -0.00000000000E+00 -0.00000000000E+00 -0.45593999997E+02  0.45594000000E+02  0.51100000000E-03 0. -1.
    9900012    2    1    2    0    0  0.43589870229E+02  0.68774062694E+00  0.11338595006E+02  0.46142317516E+02  0.99999977606E+01 0.  0.
         12    1    1    2    0    0 -0.43589870229E+02 -0.68774062694E+00 -0.11338595006E+02  0.45045682484E+02  0.00000000000E+00 0. -1.
         11    1    3    3    0    0  0.58517434515E+01  0.15455206438E+01  0.20028847870E+01  0.63751927981E+01  0.51100000000E-03 0. -1.
        -11    1    3    3    0    0  0.92033818414E+01  0.47744163912E+00 -0.12556197513E+01  0.93009015186E+01  0.51100000000E-03 0.  1.
        -12    1    3    3    0    0  0.28534744936E+02 -0.13352216559E+01  0.10591329970E+02  0.30466223199E+02  0.00000000000E+00 0.  1.
</event>
<event>
 7    1  0.2328810E-008  0.4614232E+02  0.7816164E-02  0.1320468E+00
        -11   -1    0    0    0    0  0.00000000000E+00  0.00000000000E+00  0.45593999997E+02  0.45594000000E+02  0.51100000000E-03 0.  1.
         11   -1    0    0    0    0 -0.00000000000E+00 -0.00000000000E+00 -0.45593999997E+02  0.45594000000E+02  0.51100000000E-03 0. -1.
    9900012    2    1    2    0    0  0.58650517168E+01  0.34226195927E+02  0.28692896477E+02  0.46142316217E+02  0.99999859150E+01 0.  0.
         12    1    1    2    0    0 -0.58650517168E+01 -0.34226195927E+02 -0.28692896477E+02  0.45045683783E+02  0.00000000000E+00 0. -1.
         11    1    3    3    0    0 -0.17414770939E+01  0.10802090580E+02  0.66341599886E+01  0.12795701715E+02  0.51100000000E-03 0. -1.
        -11    1    3    3    0    0  0.45824231802E+01  0.18393982625E+02  0.15044207969E+02  0.24200524637E+02  0.51100000000E-03 0.  1.
        -12    1    3    3    0    0  0.30241056306E+01  0.50301227219E+01  0.70145285194E+01  0.91460898647E+01  0.00000000000E+00 0.  1.
</event>
<event>
 7    1  0.2328810E-008  0.4614232E+02  0.7816164E-02  0.1320468E+00
        -11   -1    0    0    0    0  0.00000000000E+00  0.00000000000E+00  0.45593999997E+02  0.45594000000E+02  0.51100000000E-03 0.  1.
         11   -1    0    0    0    0 -0.00000000000E+00 -0.00000000000E+00 -0.45593999997E+02  0.45594000000E+02  0.51100000000E-03 0. -1.
    9900012    2    1    2    0    0 -0.78818897307E+01  0.24410756319E+02  0.37028421697E+02  0.46142320705E+02  0.10000026842E+02 0.  0.
         12    1    1    2    0    0  0.78818897307E+01 -0.24410756319E+02 -0.37028421697E+02  0.45045679295E+02  0.00000000000E+00 0. -1.
         11    1    3    3    0    0 -0.36191259044E+01  0.63508701183E+01  0.13874859980E+02  0.15682581525E+02  0.51100000000E-03 0. -1.
        -11    1    3    3    0    0 -0.46570114296E+01  0.14764049034E+02  0.22089035563E+02  0.26973883512E+02  0.51100000000E-03 0.  1.
         12    1    3    3    0    0  0.39424760337E+00  0.32958371671E+01  0.10645261540E+01  0.34858556679E+01  0.00000000000E+00 0. -1.
</event>
<event>
 7    1  0.2328810E-008  0.4614232E+02  0.7816164E-02  0.1320468E+00
        -11   -1    0    0    0    0  0.00000000000E+00  0.00000000000E+00  0.45593999997E+02  0.45594000000E+02  0.51100000000E-03 0. -1.
         11   -1    0    0    0    0 -0.00000000000E+00 -0.00000000000E+00 -0.45593999997E+02  0.45594000000E+02  0.51100000000E-03 0.  1.
    9900012    2    1    2    0    0 -0.33371037669E+01  0.35015556556E+02 -0.28140504517E+02  0.46142318110E+02  0.10000003183E+02 0.  0.
         12    1    1    2    0    0  0.33371037669E+01 -0.35015556556E+02  0.28140504517E+02  0.45045681890E+02  0.00000000000E+00 0. -1.
         11    1    3    3    0    0 -0.16469086691E+01  0.22793829811E+02 -0.13320613369E+02  0.26452026887E+02  0.51100000000E-03 0. -1.
        -11    1    3    3    0    0 -0.13062871659E+01  0.81849890138E+00 -0.20644792725E+01  0.25765095651E+01  0.51100000000E-03 0.  1.
        -12    1    3    3    0    0 -0.38390793200E+00  0.11403227843E+02 -0.12755411875E+02  0.17113781658E+02  0.00000000000E+00 0.  1.
</event>
<event>
 7    1  0.2328810E-008  0.4614232E+02  0.7816164E-02  0.1320468E+00
        -11   -1    0    0    0    0  0.00000000000E+00  0.00000000000E+00  0.45593999997E+02  0.45594000000E+02  0.51100000000E-03 0.  1.
         11   -1    0    0    0    0 -0.00000000000E+00 -0.00000000000E+00 -0.45593999997E+02  0.45594000000E+02  0.51100000000E-03 0. -1.
    9900012    2    1    2    0    0  0.20552575879E+02 -0.81307288377E+01  0.39250429028E+02  0.46142319790E+02  0.10000018497E+02 0.  0.
         12    1    1    2    0    0 -0.20552575879E+02  0.81307288377E+01 -0.39250429028E+02  0.45045680210E+02  0.00000000000E+00 0. -1.
         11    1    3    3    0    0  0.10751192143E+02 -0.36973072409E+01  0.20659307178E+02  0.23581034470E+02  0.51100000000E-03 0.  1.
        -11    1    3    3    0    0  0.10996880450E+01  0.16331113813E+01  0.45993607104E+01  0.50030476498E+01  0.51100000000E-03 0. -1.
         12    1    3    3    0    0  0.87016956912E+01 -0.60665329781E+01  0.13991761140E+02  0.17558237670E+02  0.00000000000E+00 0. -1.
</event>
<event>
 7    1  0.2328810E-008  0.4614232E+02  0.7816164E-02  0.1320468E+00
        -11   -1    0    0    0    0  0.00000000000E+00  0.00000000000E+00  0.45593999997E+02  0.45594000000E+02  0.51100000000E-03 0. -1.
         11   -1    0    0    0    0 -0.00000000000E+00 -0.00000000000E+00 -0.45593999997E+02  0.45594000000E+02  0.51100000000E-03 0.  1.
    9900012    2    1    2    0    0 -0.15525519754E+02  0.17197150066E+02 -0.38630684780E+02  0.46142317182E+02  0.99999947159E+01 0.  0.
         12    1    1    2    0    0  0.15525519754E+02 -0.17197150066E+02  0.38630684780E+02  0.45045682818E+02  0.00000000000E+00 0. -1.
         11    1    3    3    0    0 -0.78357777171E+01  0.40686436443E+01 -0.15610506507E+02  0.17934357730E+02  0.51100000000E-03 0. -1.
        -11    1    3    3    0    0 -0.22647719859E+01  0.62828578676E+01 -0.14694768598E+02  0.16141242813E+02  0.51100000000E-03 0.  1.
         12    1    3    3    0    0 -0.54249700513E+01  0.68456485540E+01 -0.83254096749E+01  0.12066716639E+02  0.00000000000E+00 0. -1.
</event>
<event>
 7    1  0.2328810E-008  0.4614232E+02  0.7816164E-02  0.1320468E+00
        -11   -1    0    0    0    0  0.00000000000E+00  0.00000000000E+00  0.45593999997E+02  0.45594000000E+02  0.51100000000E-03 0.  1.
         11   -1    0    0    0    0 -0.00000000000E+00 -0.00000000000E+00 -0.45593999997E+02  0.45594000000E+02  0.51100000000E-03 0. -1.
    9900012    2    1    2    0    0 -0.95031531755E+00 -0.23108004003E+02  0.38655276823E+02  0.46142319025E+02  0.10000011529E+02 0.  0.
         12    1    1    2    0    0  0.95031531755E+00  0.23108004003E+02 -0.38655276823E+02  0.45045680975E+02  0.00000000000E+00 0. -1.
         11    1    3    3    0    0  0.10867299929E+01 -0.14626020653E+02  0.23822648597E+02  0.27975347159E+02  0.51100000000E-03 0. -1.
        -11    1    3    3    0    0 -0.37074467598E+01 -0.58596165007E+01  0.12446692655E+02  0.14247821774E+02  0.51100000000E-03 0.  1.
         12    1    3    3    0    0  0.16704014493E+01 -0.26223668498E+01  0.23859355708E+01  0.39191500922E+01  0.00000000000E+00 0. -1.
</event>
<event>
 7    1  0.2328810E-008  0.4614232E+02  0.7816164E-02  0.1320468E+00
        -11   -1    0    0    0    0  0.00000000000E+00  0.00000000000E+00  0.45593999997E+02  0.45594000000E+02  0.51100000000E-03 0. -1.
         11   -1    0    0    0    0 -0.00000000000E+00 -0.00000000000E+00 -0.45593999997E+02  0.45594000000E+02  0.51100000000E-03 0.  1.
    9900012    2    1    2    0    0  0.15710358921E+02 -0.19819091125E+02 -0.37276019216E+02  0.46142319197E+02  0.10000013093E+02 0.  0.
         12    1    1    2    0    0 -0.15710358921E+02  0.19819091125E+02  0.37276019216E+02  0.45045680803E+02  0.00000000000E+00 0. -1.
         11    1    3    3    0    0  0.75213301163E+01 -0.60907597612E+01 -0.13884193722E+02  0.16924496942E+02  0.51100000000E-03 0.  1.
        -11    1    3    3    0    0  0.66429123743E+00 -0.36868120765E+01 -0.16043422040E+01  0.40752644459E+01  0.51100000000E-03 0. -1.
         12    1    3    3    0    0  0.75247375668E+01 -0.10041519288E+02 -0.21787483290E+02  0.25142557809E+02  0.00000000000E+00 0. -1.
</event>
<event>
 7    1  0.2328810E-008  0.4614232E+02  0.7816164E-02  0.1320468E+00
        -11   -1    0    0    0    0  0.00000000000E+00  0.00000000000E+00  0.45593999997E+02  0.45594000000E+02  0.51100000000E-03 0.  1.
         11   -1    0    0    0    0 -0.00000000000E+00 -0.00000000000E+00 -0.45593999997E+02  0.45594000000E+02  0.51100000000E-03 0. -1.
    9900012    2    1    2    0    0  0.32263528495E+02  0.15898342824E+02  0.27118644564E+02  0.46142318093E+02  0.10000003023E+02 0.  0.
         12    1    1    2    0    0 -0.32263528495E+02 -0.15898342824E+02 -0.27118644564E+02  0.45045681907E+02  0.00000000000E+00 0. -1.
         11    1    3    3    0    0  0.12595990057E+02  0.47015085590E+01  0.68947163537E+01  0.15109608271E+02  0.51100000000E-03 0. -1.
        -11    1    3    3    0    0  0.83024981577E+01  0.62366232300E+01  0.53935021332E+01  0.11701145691E+02  0.51100000000E-03 0.  1.
        -12    1    3    3    0    0  0.11365040281E+02  0.49602110349E+01  0.14830426077E+02  0.19331564130E+02  0.00000000000E+00 0.  1.
</event>
<event>
 7    1  0.2328810E-008  0.4614232E+02  0.7816164E-02  0.1320468E+00
        -11   -1    0    0    0    0  0.00000000000E+00  0.00000000000E+00  0.45593999997E+02  0.45594000000E+02  0.51100000000E-03 0. -1.
         11   -1    0    0    0    0 -0.00000000000E+00 -0.00000000000E+00 -0.45593999997E+02  0.45594000000E+02  0.51100000000E-03 0.  1.
    9900012    2    1    2    0    0  0.42201099894E+02 -0.10345455213E+02  0.11880750721E+02  0.46142317482E+02  0.99999974559E+01 0.  0.
         12    1    1    2    0    0 -0.42201099894E+02  0.10345455213E+02 -0.11880750721E+02  0.45045682518E+02  0.00000000000E+00 0. -1.
         11    1    3    3    0    0  0.73982631586E+01 -0.14089257387E+01  0.49019251085E+01  0.89860024222E+01  0.51100000000E-03 0. -1.
        -11    1    3    3    0    0  0.26359881445E+02 -0.43488525016E+01  0.35355347591E+01  0.26949134943E+02  0.51100000000E-03 0.  1.
        -12    1    3    3    0    0  0.84429552897E+01 -0.45876769732E+01  0.34432908529E+01  0.10207180117E+02  0.00000000000E+00 0.  1.
</event>
<event>
 7    1  0.2328810E-008  0.4614231E+02  0.7816164E-02  0.1320468E+00
        -11   -1    0    0    0    0  0.00000000000E+00  0.00000000000E+00  0.45593999997E+02  0.45594000000E+02  0.51100000000E-03 0.  1.
         11   -1    0    0    0    0 -0.00000000000E+00 -0.00000000000E+00 -0.45593999997E+02  0.45594000000E+02  0.51100000000E-03 0. -1.
    9900012    2    1    2    0    0  0.30366631915E+02  0.12183382462E+02  0.30960413572E+02  0.46142308190E+02  0.99999127265E+01 0.  0.
         12    1    1    2    0    0 -0.30366631915E+02 -0.12183382462E+02 -0.30960413572E+02  0.45045691810E+02  0.00000000000E+00 0. -1.
         11    1    3    3    0    0  0.33721141287E+01  0.87903185914E-01  0.14305584621E+01  0.36640658348E+01  0.51100000000E-03 0. -1.
        -11    1    3    3    0    0  0.25255597060E+02  0.89897086132E+01  0.24503291234E+02  0.36319021536E+02  0.51100000000E-03 0.  1.
         12    1    3    3    0    0  0.17389207262E+01  0.31057706632E+01  0.50265638758E+01  0.61592208194E+01  0.00000000000E+00 0. -1.
</event>
<event>
 7    1  0.2328810E-008  0.4614232E+02  0.7816164E-02  0.1320468E+00
        -11   -1    0    0    0    0  0.00000000000E+00  0.00000000000E+00  0.45593999997E+02  0.45594000000E+02  0.51100000000E-03 0.  1.
         11   -1    0    0    0    0 -0.00000000000E+00 -0.00000000000E+00 -0.45593999997E+02  0.45594000000E+02  0.51100000000E-03 0. -1.
    9900012    2    1    2    0    0 -0.39156118703E+02  0.13812654934E+02  0.17467749355E+02  0.46142319455E+02  0.10000015451E+02 0.  0.
         12    1    1    2    0    0  0.39156118703E+02 -0.13812654934E+02 -0.17467749355E+02  0.45045680545E+02  0.00000000000E+00 0. -1.
         11    1    3    3    0    0 -0.17109025043E+02  0.53393486977E+01  0.54936668962E+01  0.18745873110E+02  0.51100000000E-03 0. -1.
        -11    1    3    3    0    0 -0.17785135482E+02  0.42394696778E+01  0.10922786445E+02  0.21297685584E+02  0.51100000000E-03 0.  1.
        -12    1    3    3    0    0 -0.42619581774E+01  0.42338365585E+01  0.10512960145E+01  0.60987607610E+01  0.00000000000E+00 0.  1.
</event>
<event>
 7    1  0.2328810E-008  0.4614232E+02  0.7816164E-02  0.1320468E+00
        -11   -1    0    0    0    0  0.00000000000E+00  0.00000000000E+00  0.45593999997E+02  0.45594000000E+02  0.51100000000E-03 0. -1.
         11   -1    0    0    0    0 -0.00000000000E+00 -0.00000000000E+00 -0.45593999997E+02  0.45594000000E+02  0.51100000000E-03 0.  1.
    9900012    2    1    2    0    0  0.81049857277E-01 -0.42282058108E+02 -0.15534944977E+02  0.46142317384E+02  0.99999965581E+01 0.  0.
         12    1    1    2    0    0 -0.81049857277E-01  0.42282058108E+02  0.15534944977E+02  0.45045682616E+02  0.00000000000E+00 0. -1.
         11    1    3    3    0    0  0.33675380257E+00 -0.32009936833E+01  0.23939588226E+00  0.32275492767E+01  0.51100000000E-03 0. -1.
        -11    1    3    3    0    0 -0.39508700696E+00 -0.11472210619E+02 -0.80164652309E+00  0.11506969525E+02  0.51100000000E-03 0.  1.
        -12    1    3    3    0    0  0.13938306167E+00 -0.27608853806E+02 -0.14972694336E+02  0.31407798582E+02  0.00000000000E+00 0.  1.
</event>
