<event>
 7    1  0.1322363E-009  0.4778727E+02  0.7816164E-02  0.1312668E+00
        -11   -1    0    0    0    0  0.00000000000E+00  0.00000000000E+00  0.45593999997E+02  0.45594000000E+02  0.51100000000E-03 0.  1.
         11   -1    0    0    0    0 -0.00000000000E+00 -0.00000000000E+00 -0.45593999997E+02  0.45594000000E+02  0.51100000000E-03 0. -1.
    9900012    2    1    2    0    0  0.20390015201E+02 -0.15325591085E+02 -0.35114052721E+02  0.47787272351E+02  0.20000005957E+02 0.  0.
        -12    1    1    2    0    0 -0.20390015201E+02  0.15325591085E+02  0.35114052721E+02  0.43400727649E+02  0.00000000000E+00 0.  1.
         11    1    3    3    0    0  0.80057883477E+01 -0.99570396828E+01 -0.28828773732E+02  0.31533053793E+02  0.51100000000E-03 0. -1.
        -11    1    3    3    0    0  0.12298564974E+02 -0.61672044556E+01 -0.67514520839E+01  0.15325508694E+02  0.51100000000E-03 0.  1.
         12    1    3    3    0    0  0.85661878787E-01  0.79865305378E+00  0.46617309518E+00  0.92870986452E+00  0.00000000000E+00 0. -1.
</event>
<event>
 7    1  0.1322363E-009  0.4778727E+02  0.7816164E-02  0.1312668E+00
        -11   -1    0    0    0    0  0.00000000000E+00  0.00000000000E+00  0.45593999997E+02  0.45594000000E+02  0.51100000000E-03 0.  1.
         11   -1    0    0    0    0 -0.00000000000E+00 -0.00000000000E+00 -0.45593999997E+02  0.45594000000E+02  0.51100000000E-03 0. -1.
    9900012    2    1    2    0    0  0.38447079864E+02  0.19779932857E+02 -0.37682506376E+01  0.47787269513E+02  0.19999993018E+02 0.  0.
        -12    1    1    2    0    0 -0.38447079864E+02 -0.19779932857E+02  0.37682506376E+01  0.43400730487E+02  0.00000000000E+00 0.  1.
         11    1    3    3    0    0  0.27539832838E+02  0.16377180843E+02 -0.42353704118E+01  0.32320161013E+02  0.51100000000E-03 0. -1.
        -11    1    3    3    0    0  0.74816683363E+01  0.33789631515E+01  0.51305615531E+01  0.96806722486E+01  0.51100000000E-03 0.  1.
        -12    1    3    3    0    0  0.34255786899E+01  0.23788863072E-01 -0.46634417789E+01  0.57864362518E+01  0.00000000000E+00 0.  1.
</event>
<event>
 7    1  0.1322363E-009  0.4778727E+02  0.7816164E-02  0.1312668E+00
        -11   -1    0    0    0    0  0.00000000000E+00  0.00000000000E+00  0.45593999997E+02  0.45594000000E+02  0.51100000000E-03 0. -1.
         11   -1    0    0    0    0 -0.00000000000E+00 -0.00000000000E+00 -0.45593999997E+02  0.45594000000E+02  0.51100000000E-03 0.  1.
    9900012    2    1    2    0    0  0.11329369948E+02  0.34273138251E+02  0.24096078444E+02  0.47787266995E+02  0.19999981536E+02 0.  0.
        -12    1    1    2    0    0 -0.11329369948E+02 -0.34273138251E+02 -0.24096078444E+02  0.43400733005E+02  0.00000000000E+00 0.  1.
         11    1    3    3    0    0  0.69167302330E+01  0.95417986025E+01  0.39715726752E+01  0.12436256167E+02  0.51100000000E-03 0. -1.
        -11    1    3    3    0    0  0.35852709554E+01  0.95427302720E+01  0.17000215901E+02  0.19822341179E+02  0.51100000000E-03 0.  1.
         12    1    3    3    0    0  0.82736875933E+00  0.15188609377E+02  0.31242898679E+01  0.15528669648E+02  0.00000000000E+00 0. -1.
</event>
<event>
 7    1  0.1322363E-009  0.4778728E+02  0.7816164E-02  0.1312668E+00
        -11   -1    0    0    0    0  0.00000000000E+00  0.00000000000E+00  0.45593999997E+02  0.45594000000E+02  0.51100000000E-03 0.  1.
         11   -1    0    0    0    0 -0.00000000000E+00 -0.00000000000E+00 -0.45593999997E+02  0.45594000000E+02  0.51100000000E-03 0. -1.
    9900012    2    1    2    0    0  0.12591724370E+02 -0.41062652112E+02 -0.62393878683E+01  0.47787275559E+02  0.20000020582E+02 0.  0.
        -12    1    1    2    0    0 -0.12591724370E+02  0.41062652112E+02  0.62393878683E+01  0.43400724441E+02  0.00000000000E+00 0.  1.
         11    1    3    3    0    0  0.62980417210E+01 -0.11751225581E+02 -0.71247444928E+01  0.15116832225E+02  0.51100000000E-03 0. -1.
        -11    1    3    3    0    0 -0.20426954258E+01 -0.19373045932E+01  0.28264941005E+01  0.39893386483E+01  0.51100000000E-03 0.  1.
         12    1    3    3    0    0  0.83363780746E+01 -0.27374121937E+02 -0.19411374760E+01  0.28681104685E+02  0.00000000000E+00 0. -1.
</event>
<event>
 7    1  0.1322363E-009  0.4778727E+02  0.7816164E-02  0.1312668E+00
        -11   -1    0    0    0    0  0.00000000000E+00  0.00000000000E+00  0.45593999997E+02  0.45594000000E+02  0.51100000000E-03 0.  1.
         11   -1    0    0    0    0 -0.00000000000E+00 -0.00000000000E+00 -0.45593999997E+02  0.45594000000E+02  0.51100000000E-03 0. -1.
    9900012    2    1    2    0    0 -0.68115460261E+01 -0.81132263874E+01 -0.42088022156E+02  0.47787271772E+02  0.20000003317E+02 0.  0.
        -12    1    1    2    0    0  0.68115460261E+01  0.81132263874E+01  0.42088022156E+02  0.43400728228E+02  0.00000000000E+00 0.  1.
         11    1    3    3    0    0 -0.55331794543E+01 -0.88539141622E+01 -0.15899534035E+02  0.19021121252E+02  0.51100000000E-03 0. -1.
        -11    1    3    3    0    0 -0.57628300631E+01  0.33902207915E+01 -0.15211252300E+02  0.16615835945E+02  0.51100000000E-03 0.  1.
        -12    1    3    3    0    0  0.44844634913E+01 -0.26495330167E+01 -0.10977235821E+02  0.12150314576E+02  0.00000000000E+00 0.  1.
</event>
<event>
 7    1  0.1322363E-009  0.4778727E+02  0.7816164E-02  0.1312668E+00
        -11   -1    0    0    0    0  0.00000000000E+00  0.00000000000E+00  0.45593999997E+02  0.45594000000E+02  0.51100000000E-03 0. -1.
         11   -1    0    0    0    0 -0.00000000000E+00 -0.00000000000E+00 -0.45593999997E+02  0.45594000000E+02  0.51100000000E-03 0.  1.
    9900012    2    1    2    0    0 -0.51404933023E+01 -0.33668540499E+02 -0.26900328296E+02  0.47787274739E+02  0.20000016846E+02 0.  0.
        -12    1    1    2    0    0  0.51404933023E+01  0.33668540499E+02  0.26900328296E+02  0.43400725261E+02  0.00000000000E+00 0.  1.
         11    1    3    3    0    0 -0.29336773739E+00 -0.60736597379E+01 -0.66686953887E+01  0.90247939417E+01  0.51100000000E-03 0. -1.
        -11    1    3    3    0    0 -0.79749016178E+01 -0.66853783570E+01 -0.12467395986E+02  0.16239744534E+02  0.51100000000E-03 0.  1.
         12    1    3    3    0    0  0.31277760529E+01 -0.20909502404E+02 -0.77642369210E+01  0.22522736263E+02  0.00000000000E+00 0. -1.
</event>
<event>
 7    1  0.1322363E-009  0.4778727E+02  0.7816164E-02  0.1312668E+00
        -11   -1    0    0    0    0  0.00000000000E+00  0.00000000000E+00  0.45593999997E+02  0.45594000000E+02  0.51100000000E-03 0.  1.
         11   -1    0    0    0    0 -0.00000000000E+00 -0.00000000000E+00 -0.45593999997E+02  0.45594000000E+02  0.51100000000E-03 0. -1.
    9900012    2    1    2    0    0  0.24637837660E+02 -0.15231506794E+02 -0.32320292997E+02  0.47787272089E+02  0.20000004764E+02 0.  0.
        -12    1    1    2    0    0 -0.24637837660E+02  0.15231506794E+02  0.32320292997E+02  0.43400727911E+02  0.00000000000E+00 0.  1.
         11    1    3    3    0    0  0.60587675044E+01 -0.50900110108E+01 -0.19474890203E+02  0.21021137563E+02  0.51100000000E-03 0. -1.
        -11    1    3    3    0    0  0.10512964576E+02 -0.62645564546E-02 -0.62503360736E+01  0.12230664934E+02  0.51100000000E-03 0.  1.
        -12    1    3    3    0    0  0.80661055789E+01 -0.10135231227E+02 -0.65950667207E+01  0.14535469593E+02  0.00000000000E+00 0.  1.
</event>
<event>
 7    1  0.1322363E-009  0.4778727E+02  0.7816164E-02  0.1312668E+00
        -11   -1    0    0    0    0  0.00000000000E+00  0.00000000000E+00  0.45593999997E+02  0.45594000000E+02  0.51100000000E-03 0.  1.
         11   -1    0    0    0    0 -0.00000000000E+00 -0.00000000000E+00 -0.45593999997E+02  0.45594000000E+02  0.51100000000E-03 0. -1.
    9900012    2    1    2    0    0  0.93881635292E+01  0.36502159398E+02 -0.21519252628E+02  0.47787268569E+02  0.19999988712E+02 0.  0.
        -12    1    1    2    0    0 -0.93881635292E+01 -0.36502159398E+02  0.21519252628E+02  0.43400731431E+02  0.00000000000E+00 0.  1.
         11    1    3    3    0    0  0.99201744877E+00  0.10910298640E+01 -0.58513224557E+00  0.15864503738E+01  0.51100000000E-03 0. -1.
        -11    1    3    3    0    0 -0.24719104919E+00  0.48923728872E+01 -0.12431557693E+02  0.13361887697E+02  0.51100000000E-03 0.  1.
        -12    1    3    3    0    0  0.86433371296E+01  0.30518756646E+02 -0.85025626889E+01  0.32838930498E+02  0.00000000000E+00 0.  1.
</event>
<event>
 7    1  0.1322363E-009  0.4778728E+02  0.7816164E-02  0.1312668E+00
        -11   -1    0    0    0    0  0.00000000000E+00  0.00000000000E+00  0.45593999997E+02  0.45594000000E+02  0.51100000000E-03 0. -1.
         11   -1    0    0    0    0 -0.00000000000E+00 -0.00000000000E+00 -0.45593999997E+02  0.45594000000E+02  0.51100000000E-03 0.  1.
    9900012    2    1    2    0    0 -0.24972950515E+02 -0.12186947087E+02  0.33338459989E+02  0.47787275914E+02  0.20000022204E+02 0.  0.
        -12    1    1    2    0    0  0.24972950515E+02  0.12186947087E+02 -0.33338459989E+02  0.43400724086E+02  0.00000000000E+00 0.  1.
         11    1    3    3    0    0 -0.87558974716E+01  0.86697531279E+00  0.11935881996E+02  0.14828441119E+02  0.51100000000E-03 0. -1.
        -11    1    3    3    0    0 -0.80771473872E+00 -0.17784093733E+01 -0.19728050936E+01  0.27761669973E+01  0.51100000000E-03 0.  1.
         12    1    3    3    0    0 -0.15409338305E+02 -0.11275513026E+02  0.23375383086E+02  0.30182667798E+02  0.00000000000E+00 0. -1.
</event>
<event>
 7    1  0.1322363E-009  0.4778727E+02  0.7816164E-02  0.1312668E+00
        -11   -1    0    0    0    0  0.00000000000E+00  0.00000000000E+00  0.45593999997E+02  0.45594000000E+02  0.51100000000E-03 0.  1.
         11   -1    0    0    0    0 -0.00000000000E+00 -0.00000000000E+00 -0.45593999997E+02  0.45594000000E+02  0.51100000000E-03 0. -1.
    9900012    2    1    2    0    0  0.22535299743E+02  0.17458807164E+02 -0.32725733413E+02  0.47787270633E+02  0.19999998126E+02 0.  0.
        -12    1    1    2    0    0 -0.22535299743E+02 -0.17458807164E+02  0.32725733413E+02  0.43400729367E+02  0.00000000000E+00 0.  1.
         11    1    3    3    0    0  0.15341873578E+02  0.10088917566E+02 -0.23998949722E+02  0.30217692344E+02  0.51100000000E-03 0. -1.
        -11    1    3    3    0    0  0.32289508889E+01 -0.28307419207E+01 -0.27622656784E+01  0.51058139022E+01  0.51100000000E-03 0.  1.
         12    1    3    3    0    0  0.39644752759E+01  0.10200631518E+02 -0.59645180126E+01  0.12463764387E+02  0.00000000000E+00 0. -1.
</event>
<event>
 7    1  0.1322363E-009  0.4778727E+02  0.7816164E-02  0.1312668E+00
        -11   -1    0    0    0    0  0.00000000000E+00  0.00000000000E+00  0.45593999997E+02  0.45594000000E+02  0.51100000000E-03 0. -1.
         11   -1    0    0    0    0 -0.00000000000E+00 -0.00000000000E+00 -0.45593999997E+02  0.45594000000E+02  0.51100000000E-03 0.  1.
    9900012    2    1    2    0    0 -0.18493723891E+02  0.38954054306E+02 -0.49180341476E+01  0.47787271549E+02  0.20000002299E+02 0.  0.
        -12    1    1    2    0    0  0.18493723891E+02 -0.38954054306E+02  0.49180341476E+01  0.43400728451E+02  0.00000000000E+00 0.  1.
         11    1    3    3    0    0 -0.86826410477E+01  0.14734994858E+02 -0.69771023450E+01  0.18471282750E+02  0.51100000000E-03 0. -1.
        -11    1    3    3    0    0 -0.17516246294E+01  0.20067426910E+02  0.76571310853E+00  0.20158276922E+02  0.51100000000E-03 0.  1.
        -12    1    3    3    0    0 -0.80594582142E+01  0.41516325372E+01  0.12933550889E+01  0.91577118767E+01  0.00000000000E+00 0.  1.
</event>
<event>
 7    1  0.1322363E-009  0.4778727E+02  0.7816164E-02  0.1312668E+00
        -11   -1    0    0    0    0  0.00000000000E+00  0.00000000000E+00  0.45593999997E+02  0.45594000000E+02  0.51100000000E-03 0. -1.
         11   -1    0    0    0    0 -0.00000000000E+00 -0.00000000000E+00 -0.45593999997E+02  0.45594000000E+02  0.51100000000E-03 0.  1.
    9900012    2    1    2    0    0  0.29890219402E+02 -0.18823568606E+02  0.25216497852E+02  0.47787265964E+02  0.19999976835E+02 0.  0.
        -12    1    1    2    0    0 -0.29890219402E+02  0.18823568606E+02 -0.25216497852E+02  0.43400734036E+02  0.00000000000E+00 0.  1.
         11    1    3    3    0    0  0.47292905270E+01 -0.42279782034E+01 -0.30309249387E+01  0.70305401515E+01  0.51100000000E-03 0.  1.
        -11    1    3    3    0    0  0.38862850567E+01 -0.10997388807E+01  0.25917112319E+01  0.47989170152E+01  0.51100000000E-03 0. -1.
        -12    1    3    3    0    0  0.21274643818E+02 -0.13495851522E+02  0.25655711559E+02  0.35957808797E+02  0.00000000000E+00 0.  1.
</event>
<event>
 7    1  0.1322363E-009  0.4778727E+02  0.7816164E-02  0.1312668E+00
        -11   -1    0    0    0    0  0.00000000000E+00  0.00000000000E+00  0.45593999997E+02  0.45594000000E+02  0.51100000000E-03 0.  1.
         11   -1    0    0    0    0 -0.00000000000E+00 -0.00000000000E+00 -0.45593999997E+02  0.45594000000E+02  0.51100000000E-03 0. -1.
    9900012    2    1    2    0    0  0.15840092322E+02 -0.24097911370E+02 -0.32434632177E+02  0.47787271646E+02  0.20000002742E+02 0.  0.
        -12    1    1    2    0    0 -0.15840092322E+02  0.24097911370E+02  0.32434632177E+02  0.43400728354E+02  0.00000000000E+00 0.  1.
         11    1    3    3    0    0  0.30096111660E+01 -0.11479324171E+02 -0.11671504208E+02  0.16645018881E+02  0.51100000000E-03 0. -1.
        -11    1    3    3    0    0  0.28846461628E+01 -0.97896459456E+01 -0.30846968114E+01  0.10661787181E+02  0.51100000000E-03 0.  1.
         12    1    3    3    0    0  0.99458349934E+01 -0.28289412540E+01 -0.17678431157E+02  0.20480465584E+02  0.00000000000E+00 0. -1.
</event>
<event>
 7    1  0.1322363E-009  0.4778727E+02  0.7816164E-02  0.1312668E+00
        -11   -1    0    0    0    0  0.00000000000E+00  0.00000000000E+00  0.45593999997E+02  0.45594000000E+02  0.51100000000E-03 0.  1.
         11   -1    0    0    0    0 -0.00000000000E+00 -0.00000000000E+00 -0.45593999997E+02  0.45594000000E+02  0.51100000000E-03 0. -1.
    9900012    2    1    2    0    0 -0.21269068595E+02  0.11102848729E+02 -0.36165959150E+02  0.47787272702E+02  0.20000007556E+02 0.  0.
        -12    1    1    2    0    0  0.21269068595E+02 -0.11102848729E+02  0.36165959150E+02  0.43400727298E+02  0.00000000000E+00 0.  1.
         11    1    3    3    0    0 -0.10142901108E+02  0.44242692650E+01 -0.40693129387E+01  0.11790331185E+02  0.51100000000E-03 0. -1.
        -11    1    3    3    0    0 -0.11203230934E+02  0.24662411365E+01 -0.18551955588E+02  0.21812147650E+02  0.51100000000E-03 0.  1.
        -12    1    3    3    0    0  0.77063446125E-01  0.42123383276E+01 -0.13544690623E+02  0.14184793867E+02  0.00000000000E+00 0.  1.
</event>
<event>
 7    1  0.1322363E-009  0.4778727E+02  0.7816164E-02  0.1312668E+00
        -11   -1    0    0    0    0  0.00000000000E+00  0.00000000000E+00  0.45593999997E+02  0.45594000000E+02  0.51100000000E-03 0.  1.
         11   -1    0    0    0    0 -0.00000000000E+00 -0.00000000000E+00 -0.45593999997E+02  0.45594000000E+02  0.51100000000E-03 0. -1.
    9900012    2    1    2    0    0  0.43163736411E+02 -0.27289201149E+01  0.36149846294E+01  0.47787271206E+02  0.20000000737E+02 0.  0.
        -12    1    1    2    0    0 -0.43163736411E+02  0.27289201149E+01 -0.36149846294E+01  0.43400728794E+02  0.00000000000E+00 0.  1.
         11    1    3    3    0    0  0.16705818751E+01 -0.23834534219E+01  0.14879199411E+01  0.32688836058E+01  0.51100000000E-03 0.  1.
        -11    1    3    3    0    0  0.21854164775E+02  0.77862836416E+01  0.59781993128E+00  0.23207501371E+02  0.51100000000E-03 0. -1.
         12    1    3    3    0    0  0.19638989761E+02 -0.81317503346E+01  0.15292447571E+01  0.21310886229E+02  0.00000000000E+00 0. -1.
</event>
<event>
 7    1  0.1322363E-009  0.4778727E+02  0.7816164E-02  0.1312668E+00
        -11   -1    0    0    0    0  0.00000000000E+00  0.00000000000E+00  0.45593999997E+02  0.45594000000E+02  0.51100000000E-03 0.  1.
         11   -1    0    0    0    0 -0.00000000000E+00 -0.00000000000E+00 -0.45593999997E+02  0.45594000000E+02  0.51100000000E-03 0. -1.
    9900012    2    1    2    0    0 -0.28688595514E+02  0.11088656772E+02 -0.30620736058E+02  0.47787270763E+02  0.19999998717E+02 0.  0.
        -12    1    1    2    0    0  0.28688595514E+02 -0.11088656772E+02  0.30620736058E+02  0.43400729237E+02  0.00000000000E+00 0.  1.
         11    1    3    3    0    0 -0.13413204003E+02  0.65149873434E+01 -0.19762361947E+02  0.24757020251E+02  0.51100000000E-03 0. -1.
        -11    1    3    3    0    0 -0.75959406651E+01  0.85221669176E+01 -0.79779253784E+01  0.13927416744E+02  0.51100000000E-03 0.  1.
         12    1    3    3    0    0 -0.76794508452E+01 -0.39484974889E+01 -0.28804487320E+01  0.91028337676E+01  0.00000000000E+00 0. -1.
</event>
<event>
 7    1  0.1322363E-009  0.4778727E+02  0.7816164E-02  0.1312668E+00
        -11   -1    0    0    0    0  0.00000000000E+00  0.00000000000E+00  0.45593999997E+02  0.45594000000E+02  0.51100000000E-03 0.  1.
         11   -1    0    0    0    0 -0.00000000000E+00 -0.00000000000E+00 -0.45593999997E+02  0.45594000000E+02  0.51100000000E-03 0. -1.
    9900012    2    1    2    0    0  0.13980347359E+02 -0.40912271616E+02  0.37894001641E+01  0.47787266887E+02  0.19999981046E+02 0.  0.
        -12    1    1    2    0    0 -0.13980347359E+02  0.40912271616E+02 -0.37894001641E+01  0.43400733113E+02  0.00000000000E+00 0.  1.
         11    1    3    3    0    0  0.81846862334E+01 -0.54108708432E+01  0.36603600913E+01  0.10472098561E+02  0.51100000000E-03 0. -1.
        -11    1    3    3    0    0  0.70845423738E+00 -0.13069716117E+02  0.46184699714E+01  0.13879828959E+02  0.51100000000E-03 0.  1.
         12    1    3    3    0    0  0.50872068884E+01 -0.22431684656E+02 -0.44894298986E+01  0.23435339367E+02  0.00000000000E+00 0. -1.
</event>
<event>
 7    1  0.1432269E-009  0.4778727E+02  0.7816164E-02  0.1312668E+00
        -11   -1    0    0    0    0  0.00000000000E+00  0.00000000000E+00  0.45593999997E+02  0.45594000000E+02  0.51100000000E-03 0. -1.
         11   -1    0    0    0    0 -0.00000000000E+00 -0.00000000000E+00 -0.45593999997E+02  0.45594000000E+02  0.51100000000E-03 0.  1.
    9900012    2    1    2    0    0  0.39784816647E+02  0.16841120504E+02 -0.41434809366E+01  0.47787269479E+02  0.19999992864E+02 0.  0.
        -12    1    1    2    0    0 -0.39784816647E+02 -0.16841120504E+02  0.41434809366E+01  0.43400730521E+02  0.00000000000E+00 0.  1.
         11    1    3    3    0    0  0.17268203762E+02  0.20461879207E+01  0.33995058216E+01  0.17718193652E+02  0.51100000000E-03 0. -1.
        -11    1    3    3    0    0  0.23243337177E+02  0.12083100518E+02 -0.60366960506E+01  0.26883000962E+02  0.51100000000E-03 0.  1.
        -12    1    3    3    0    0 -0.72672429310E+00  0.27118320661E+01 -0.15062907076E+01  0.31860748655E+01  0.00000000000E+00 0.  1.
</event>
<event>
 7    1  0.1322363E-009  0.4778727E+02  0.7816164E-02  0.1312668E+00
        -11   -1    0    0    0    0  0.00000000000E+00  0.00000000000E+00  0.45593999997E+02  0.45594000000E+02  0.51100000000E-03 0. -1.
         11   -1    0    0    0    0 -0.00000000000E+00 -0.00000000000E+00 -0.45593999997E+02  0.45594000000E+02  0.51100000000E-03 0.  1.
    9900012    2    1    2    0    0  0.41044481622E+02  0.11107580511E+02  0.86945527676E+01  0.47787273459E+02  0.20000011009E+02 0.  0.
        -12    1    1    2    0    0 -0.41044481622E+02 -0.11107580511E+02 -0.86945527676E+01  0.43400726541E+02  0.00000000000E+00 0.  1.
         11    1    3    3    0    0  0.24902962963E+02  0.74324038973E+01  0.92046053078E+01  0.27570327368E+02  0.51100000000E-03 0. -1.
        -11    1    3    3    0    0  0.15841949031E+02  0.49758226686E+01 -0.34756371093E+01  0.16964852311E+02  0.51100000000E-03 0.  1.
        -12    1    3    3    0    0  0.29956962761E+00 -0.13006460543E+01  0.29655845691E+01  0.32520937805E+01  0.00000000000E+00 0.  1.
</event>
<event>
 7    1  0.1322363E-009  0.4778727E+02  0.7816164E-02  0.1312668E+00
        -11   -1    0    0    0    0  0.00000000000E+00  0.00000000000E+00  0.45593999997E+02  0.45594000000E+02  0.51100000000E-03 0.  1.
         11   -1    0    0    0    0 -0.00000000000E+00 -0.00000000000E+00 -0.45593999997E+02  0.45594000000E+02  0.51100000000E-03 0. -1.
    9900012    2    1    2    0    0 -0.39584132608E+02 -0.12217488114E+02 -0.12940345275E+02  0.47787272979E+02  0.20000008820E+02 0.  0.
        -12    1    1    2    0    0  0.39584132608E+02  0.12217488114E+02  0.12940345275E+02  0.43400727021E+02  0.00000000000E+00 0.  1.
         11    1    3    3    0    0 -0.17938138543E+02 -0.11012795547E+02 -0.12708902729E+02  0.24588100556E+02  0.51100000000E-03 0. -1.
        -11    1    3    3    0    0 -0.62981753115E+01  0.26657386757E+01 -0.23458986317E+01  0.72302431213E+01  0.51100000000E-03 0.  1.
        -12    1    3    3    0    0 -0.15347818754E+02 -0.38704312424E+01  0.21144560854E+01  0.15968929301E+02  0.00000000000E+00 0.  1.
</event>
<event>
 7    1  0.1322363E-009  0.4778727E+02  0.7816164E-02  0.1312668E+00
        -11   -1    0    0    0    0  0.00000000000E+00  0.00000000000E+00  0.45593999997E+02  0.45594000000E+02  0.51100000000E-03 0.  1.
         11   -1    0    0    0    0 -0.00000000000E+00 -0.00000000000E+00 -0.45593999997E+02  0.45594000000E+02  0.51100000000E-03 0. -1.
    9900012    2    1    2    0    0  0.25919008021E+02  0.29502554489E+02 -0.18477771966E+02  0.47787265501E+02  0.19999974726E+02 0.  0.
        -12    1    1    2    0    0 -0.25919008021E+02 -0.29502554489E+02  0.18477771966E+02  0.43400734499E+02  0.00000000000E+00 0.  1.
         11    1    3    3    0    0  0.90946684229E+01  0.93181532928E+01 -0.57242138791E+01  0.14223487593E+02  0.51100000000E-03 0. -1.
        -11    1    3    3    0    0 -0.23081306731E+01  0.21464185075E+01  0.16760985836E+01  0.35698580275E+01  0.51100000000E-03 0.  1.
         12    1    3    3    0    0  0.19132470271E+02  0.18037982689E+02 -0.14429656671E+02  0.29993919881E+02  0.00000000000E+00 0. -1.
</event>
<event>
 7    1  0.1322363E-009  0.4778727E+02  0.7816164E-02  0.1312668E+00
        -11   -1    0    0    0    0  0.00000000000E+00  0.00000000000E+00  0.45593999997E+02  0.45594000000E+02  0.51100000000E-03 0.  1.
         11   -1    0    0    0    0 -0.00000000000E+00 -0.00000000000E+00 -0.45593999997E+02  0.45594000000E+02  0.51100000000E-03 0. -1.
    9900012    2    1    2    0    0  0.38343085204E+01  0.36941670518E+02 -0.22455166792E+02  0.47787268922E+02  0.19999990321E+02 0.  0.
        -12    1    1    2    0    0 -0.38343085204E+01 -0.36941670518E+02  0.22455166792E+02  0.43400731078E+02  0.00000000000E+00 0.  1.
         11    1    3    3    0    0  0.11216866123E+02  0.21681506360E+02 -0.11632355075E+02  0.27041033422E+02  0.51100000000E-03 0. -1.
        -11    1    3    3    0    0 -0.26308211747E+01  0.10248026697E+02 -0.49529450823E+01  0.11682248777E+02  0.51100000000E-03 0.  1.
         12    1    3    3    0    0 -0.47517364277E+01  0.50121374608E+01 -0.58698666350E+01  0.90639867232E+01  0.00000000000E+00 0. -1.
</event>
<event>
 7    1  0.1322363E-009  0.4778727E+02  0.7816164E-02  0.1312668E+00
        -11   -1    0    0    0    0  0.00000000000E+00  0.00000000000E+00  0.45593999997E+02  0.45594000000E+02  0.51100000000E-03 0.  1.
         11   -1    0    0    0    0 -0.00000000000E+00 -0.00000000000E+00 -0.45593999997E+02  0.45594000000E+02  0.51100000000E-03 0. -1.
    9900012    2    1    2    0    0  0.41256489923E+02  0.97416863159E+01  0.93072374113E+01  0.47787273264E+02  0.20000010118E+02 0.  0.
        -12    1    1    2    0    0 -0.41256489923E+02 -0.97416863159E+01 -0.93072374113E+01  0.43400726736E+02  0.00000000000E+00 0.  1.
         11    1    3    3    0    0  0.30655119866E+02  0.15855020569E+00  0.48047619687E+01  0.31029780051E+02  0.51100000000E-03 0. -1.
        -11    1    3    3    0    0  0.10466227254E+02  0.79292922004E+01  0.60781097961E+01  0.14469243473E+02  0.51100000000E-03 0.  1.
        -12    1    3    3    0    0  0.13514280257E+00  0.16538439099E+01 -0.15756343535E+01  0.22882497397E+01  0.00000000000E+00 0.  1.
</event>
<event>
 7    1  0.1322363E-009  0.4778726E+02  0.7816164E-02  0.1312668E+00
        -11   -1    0    0    0    0  0.00000000000E+00  0.00000000000E+00  0.45593999997E+02  0.45594000000E+02  0.51100000000E-03 0.  1.
         11   -1    0    0    0    0 -0.00000000000E+00 -0.00000000000E+00 -0.45593999997E+02  0.45594000000E+02  0.51100000000E-03 0. -1.
    9900012    2    1    2    0    0  0.22729220833E+02 -0.36355643463E+02 -0.67286121178E+01  0.47787256777E+02  0.19999934950E+02 0.  0.
        -12    1    1    2    0    0 -0.22729220833E+02  0.36355643463E+02  0.67286121178E+01  0.43400743223E+02  0.00000000000E+00 0.  1.
         11    1    3    3    0    0  0.33282342112E+01 -0.77618392199E+01 -0.74367328138E+01  0.11252923453E+02  0.51100000000E-03 0. -1.
        -11    1    3    3    0    0  0.68013810959E+01 -0.17766676952E+02  0.43779420200E+01  0.19521269716E+02  0.51100000000E-03 0.  1.
         12    1    3    3    0    0  0.12599605526E+02 -0.10827127291E+02 -0.36698213241E+01  0.17013063608E+02  0.00000000000E+00 0. -1.
</event>
<event>
 7    1  0.1322363E-009  0.4778727E+02  0.7816164E-02  0.1312668E+00
        -11   -1    0    0    0    0  0.00000000000E+00  0.00000000000E+00  0.45593999997E+02  0.45594000000E+02  0.51100000000E-03 0.  1.
         11   -1    0    0    0    0 -0.00000000000E+00 -0.00000000000E+00 -0.45593999997E+02  0.45594000000E+02  0.51100000000E-03 0. -1.
    9900012    2    1    2    0    0  0.38556273557E+01  0.42755921867E+02  0.63787595784E+01  0.47787270850E+02  0.19999999113E+02 0.  0.
        -12    1    1    2    0    0 -0.38556273557E+01 -0.42755921867E+02 -0.63787595784E+01  0.43400729150E+02  0.00000000000E+00 0.  1.
         11    1    3    3    0    0 -0.20819133021E+01  0.23383066850E+02 -0.10647203464E+01  0.23499698040E+02  0.51100000000E-03 0. -1.
        -11    1    3    3    0    0  0.81373604386E+01  0.14403541905E+02  0.21171371273E+01  0.16678157098E+02  0.51100000000E-03 0.  1.
        -12    1    3    3    0    0 -0.21998197808E+01  0.49693131118E+01  0.53263427974E+01  0.76094157113E+01  0.00000000000E+00 0.  1.
</event>
<event>
 7    1  0.1322363E-009  0.4778727E+02  0.7816164E-02  0.1312668E+00
        -11   -1    0    0    0    0  0.00000000000E+00  0.00000000000E+00  0.45593999997E+02  0.45594000000E+02  0.51100000000E-03 0.  1.
         11   -1    0    0    0    0 -0.00000000000E+00 -0.00000000000E+00 -0.45593999997E+02  0.45594000000E+02  0.51100000000E-03 0. -1.
    9900012    2    1    2    0    0  0.90032525885E+01  0.44176722118E+01 -0.42226164318E+02  0.47787270306E+02  0.19999996632E+02 0.  0.
        -12    1    1    2    0    0 -0.90032525885E+01 -0.44176722118E+01  0.42226164318E+02  0.43400729694E+02  0.00000000000E+00 0.  1.
         11    1    3    3    0    0  0.98576657042E+01  0.34261721471E+01 -0.12496016324E+02  0.16280744853E+02  0.51100000000E-03 0. -1.
        -11    1    3    3    0    0  0.43905815641E+01 -0.81435889272E+00 -0.89983437901E+01  0.10045425730E+02  0.51100000000E-03 0.  1.
        -12    1    3    3    0    0 -0.52449946798E+01  0.18058589575E+01 -0.20731804204E+02  0.21461099723E+02  0.00000000000E+00 0.  1.
</event>
<event>
 7    1  0.1322363E-009  0.4778727E+02  0.7816164E-02  0.1312668E+00
        -11   -1    0    0    0    0  0.00000000000E+00  0.00000000000E+00  0.45593999997E+02  0.45594000000E+02  0.51100000000E-03 0.  1.
         11   -1    0    0    0    0 -0.00000000000E+00 -0.00000000000E+00 -0.45593999997E+02  0.45594000000E+02  0.51100000000E-03 0. -1.
    9900012    2    1    2    0    0  0.39467485591E+02 -0.17929902614E+02  0.21118016682E+01  0.47787268060E+02  0.19999986394E+02 0.  0.
        -12    1    1    2    0    0 -0.39467485591E+02  0.17929902614E+02 -0.21118016682E+01  0.43400731940E+02  0.00000000000E+00 0.  1.
         11    1    3    3    0    0 -0.48690811318E+00 -0.17960046198E+01  0.11615180936E+01  0.21935898996E+01  0.51100000000E-03 0.  1.
        -11    1    3    3    0    0  0.28335620826E+02 -0.80652776012E+01 -0.56270840427E+01  0.29993669090E+02  0.51100000000E-03 0. -1.
         12    1    3    3    0    0  0.11618772878E+02 -0.80686203932E+01  0.65773676173E+01  0.15600009071E+02  0.00000000000E+00 0. -1.
</event>
<event>
 7    1  0.1322363E-009  0.4778727E+02  0.7816164E-02  0.1312668E+00
        -11   -1    0    0    0    0  0.00000000000E+00  0.00000000000E+00  0.45593999997E+02  0.45594000000E+02  0.51100000000E-03 0.  1.
         11   -1    0    0    0    0 -0.00000000000E+00 -0.00000000000E+00 -0.45593999997E+02  0.45594000000E+02  0.51100000000E-03 0. -1.
    9900012    2    1    2    0    0  0.32679605504E+02 -0.29595718455E+01 -0.28406123372E+02  0.47787268135E+02  0.19999986734E+02 0.  0.
        -12    1    1    2    0    0 -0.32679605504E+02  0.29595718455E+01  0.28406123372E+02  0.43400731865E+02  0.00000000000E+00 0.  1.
         11    1    3    3    0    0  0.42318078702E-01 -0.30942221267E+00 -0.76854643161E+01  0.76918070010E+01  0.51100000000E-03 0. -1.
        -11    1    3    3    0    0  0.14803358915E+02  0.39080447399E+01 -0.86714937670E+01  0.17595654386E+02  0.51100000000E-03 0.  1.
        -12    1    3    3    0    0  0.17833928511E+02 -0.65581943728E+01 -0.12049165289E+02  0.22499806748E+02  0.00000000000E+00 0.  1.
</event>
<event>
 7    1  0.1322363E-009  0.4778728E+02  0.7816164E-02  0.1312668E+00
        -11   -1    0    0    0    0  0.00000000000E+00  0.00000000000E+00  0.45593999997E+02  0.45594000000E+02  0.51100000000E-03 0.  1.
         11   -1    0    0    0    0 -0.00000000000E+00 -0.00000000000E+00 -0.45593999997E+02  0.45594000000E+02  0.51100000000E-03 0. -1.
    9900012    2    1    2    0    0 -0.14070842632E+02 -0.12142528007E+02 -0.39219807014E+02  0.47787275801E+02  0.20000021687E+02 0.  0.
        -12    1    1    2    0    0  0.14070842632E+02  0.12142528007E+02  0.39219807014E+02  0.43400724199E+02  0.00000000000E+00 0.  1.
         11    1    3    3    0    0 -0.79217772418E+01  0.23309940061E+00 -0.14884157704E+02  0.16862592945E+02  0.51100000000E-03 0. -1.
        -11    1    3    3    0    0  0.35427680274E+01 -0.61586271341E+00 -0.28750825819E+01  0.46039757049E+01  0.51100000000E-03 0.  1.
         12    1    3    3    0    0 -0.96918334180E+01 -0.11759764694E+02 -0.21460566728E+02  0.26320707151E+02  0.00000000000E+00 0. -1.
</event>
<event>
 7    1  0.1322363E-009  0.4778727E+02  0.7816164E-02  0.1312668E+00
        -11   -1    0    0    0    0  0.00000000000E+00  0.00000000000E+00  0.45593999997E+02  0.45594000000E+02  0.51100000000E-03 0. -1.
         11   -1    0    0    0    0 -0.00000000000E+00 -0.00000000000E+00 -0.45593999997E+02  0.45594000000E+02  0.51100000000E-03 0.  1.
    9900012    2    1    2    0    0  0.39767102294E+02 -0.17299451041E+01 -0.17297628827E+02  0.47787273071E+02  0.20000009239E+02 0.  0.
        -12    1    1    2    0    0 -0.39767102294E+02  0.17299451041E+01  0.17297628827E+02  0.43400726929E+02  0.00000000000E+00 0.  1.
         11    1    3    3    0    0  0.12091256923E+02 -0.45319551962E+01 -0.82202551023E+01  0.15307178254E+02  0.51100000000E-03 0. -1.
        -11    1    3    3    0    0  0.14304537074E+02  0.80177561889E+00  0.26649024585E+01  0.14572725566E+02  0.51100000000E-03 0.  1.
        -12    1    3    3    0    0  0.13371308297E+02  0.20002344732E+01 -0.11742276183E+02  0.17907369251E+02  0.00000000000E+00 0.  1.
</event>
<event>
 7    1  0.1322363E-009  0.4778727E+02  0.7816164E-02  0.1312668E+00
        -11   -1    0    0    0    0  0.00000000000E+00  0.00000000000E+00  0.45593999997E+02  0.45594000000E+02  0.51100000000E-03 0.  1.
         11   -1    0    0    0    0 -0.00000000000E+00 -0.00000000000E+00 -0.45593999997E+02  0.45594000000E+02  0.51100000000E-03 0. -1.
    9900012    2    1    2    0    0 -0.12955660441E+02  0.27318763129E+02 -0.31136139935E+02  0.47787272283E+02  0.20000005647E+02 0.  0.
        -12    1    1    2    0    0  0.12955660441E+02 -0.27318763129E+02  0.31136139935E+02  0.43400727717E+02  0.00000000000E+00 0.  1.
         11    1    3    3    0    0 -0.66891359968E+01  0.18240843898E+01 -0.98793333906E+01  0.12069509217E+02  0.51100000000E-03 0. -1.
        -11    1    3    3    0    0 -0.77133252092E+01  0.14354197686E+02 -0.74489180295E+01  0.17917163756E+02  0.51100000000E-03 0.  1.
        -12    1    3    3    0    0  0.14468007654E+01  0.11140481052E+02 -0.13807888515E+02  0.17800599309E+02  0.00000000000E+00 0.  1.
</event>
<event>
 7    1  0.1322363E-009  0.4778727E+02  0.7816164E-02  0.1312668E+00
        -11   -1    0    0    0    0  0.00000000000E+00  0.00000000000E+00  0.45593999997E+02  0.45594000000E+02  0.51100000000E-03 0.  1.
         11   -1    0    0    0    0 -0.00000000000E+00 -0.00000000000E+00 -0.45593999997E+02  0.45594000000E+02  0.51100000000E-03 0. -1.
    9900012    2    1    2    0    0  0.35741803225E+02 -0.10298535508E+02 -0.22362625709E+02  0.47787270052E+02  0.19999995476E+02 0.  0.
        -12    1    1    2    0    0 -0.35741803225E+02  0.10298535508E+02  0.22362625709E+02  0.43400729948E+02  0.00000000000E+00 0.  1.
         11    1    3    3    0    0  0.34608513902E+01  0.35142905892E+01 -0.18238592155E+01  0.52587254530E+01  0.51100000000E-03 0. -1.
        -11    1    3    3    0    0  0.79425607433E+01 -0.97226043423E+01 -0.65610736250E+01  0.14165486004E+02  0.51100000000E-03 0.  1.
         12    1    3    3    0    0  0.24338391092E+02 -0.40902217549E+01 -0.13977692868E+02  0.28363058595E+02  0.00000000000E+00 0. -1.
</event>
<event>
 7    1  0.1322363E-009  0.4778727E+02  0.7816164E-02  0.1312668E+00
        -11   -1    0    0    0    0  0.00000000000E+00  0.00000000000E+00  0.45593999997E+02  0.45594000000E+02  0.51100000000E-03 0.  1.
         11   -1    0    0    0    0 -0.00000000000E+00 -0.00000000000E+00 -0.45593999997E+02  0.45594000000E+02  0.51100000000E-03 0. -1.
    9900012    2    1    2    0    0  0.19268106872E+02 -0.23059823191E+02 -0.31314659184E+02  0.47787271114E+02  0.20000000318E+02 0.  0.
        -12    1    1    2    0    0 -0.19268106872E+02  0.23059823191E+02  0.31314659184E+02  0.43400728886E+02  0.00000000000E+00 0.  1.
         11    1    3    3    0    0  0.69005542436E+01 -0.11208467811E+02 -0.11312895320E+02  0.17355949997E+02  0.51100000000E-03 0. -1.
        -11    1    3    3    0    0  0.12401395276E+02 -0.14326529338E+01 -0.11699682092E+02  0.17109344247E+02  0.51100000000E-03 0.  1.
         12    1    3    3    0    0 -0.33842647859E-01 -0.10418702446E+02 -0.83020817716E+01  0.13321976870E+02  0.00000000000E+00 0. -1.
</event>
<event>
 7    1  0.1322363E-009  0.4778727E+02  0.7816164E-02  0.1312668E+00
        -11   -1    0    0    0    0  0.00000000000E+00  0.00000000000E+00  0.45593999997E+02  0.45594000000E+02  0.51100000000E-03 0. -1.
         11   -1    0    0    0    0 -0.00000000000E+00 -0.00000000000E+00 -0.45593999997E+02  0.45594000000E+02  0.51100000000E-03 0.  1.
    9900012    2    1    2    0    0 -0.16937245065E+02 -0.34180961730E+02 -0.20698182809E+02  0.47787272047E+02  0.20000004573E+02 0.  0.
        -12    1    1    2    0    0  0.16937245065E+02  0.34180961730E+02  0.20698182809E+02  0.43400727953E+02  0.00000000000E+00 0.  1.
         11    1    3    3    0    0 -0.19790524370E+01 -0.11176839150E+02 -0.21791237171E+00  0.11352791199E+02  0.51100000000E-03 0. -1.
        -11    1    3    3    0    0 -0.10577917452E+02 -0.23455147636E+02 -0.17506944223E+02  0.31121204741E+02  0.51100000000E-03 0.  1.
        -12    1    3    3    0    0 -0.43802751761E+01  0.45102505564E+00 -0.29733262142E+01  0.53132761075E+01  0.00000000000E+00 0.  1.
</event>
<event>
 7    1  0.1322363E-009  0.4778727E+02  0.7816164E-02  0.1312668E+00
        -11   -1    0    0    0    0  0.00000000000E+00  0.00000000000E+00  0.45593999997E+02  0.45594000000E+02  0.51100000000E-03 0.  1.
         11   -1    0    0    0    0 -0.00000000000E+00 -0.00000000000E+00 -0.45593999997E+02  0.45594000000E+02  0.51100000000E-03 0. -1.
    9900012    2    1    2    0    0  0.19310284801E+01 -0.19010930325E+02 -0.38967663169E+02  0.47787272868E+02  0.20000008312E+02 0.  0.
        -12    1    1    2    0    0 -0.19310284801E+01  0.19010930325E+02  0.38967663169E+02  0.43400727132E+02  0.00000000000E+00 0.  1.
         11    1    3    3    0    0  0.36425337476E+01 -0.17688919218E+01 -0.10234572094E+02  0.11006520655E+02  0.51100000000E-03 0. -1.
        -11    1    3    3    0    0 -0.48194581141E+01 -0.14261988451E+02 -0.11299044700E+02  0.18822855854E+02  0.51100000000E-03 0.  1.
        -12    1    3    3    0    0  0.31079528465E+01 -0.29800499516E+01 -0.17434046375E+02  0.17957896359E+02  0.00000000000E+00 0.  1.
</event>
<event>
 7    1  0.1322363E-009  0.4778727E+02  0.7816164E-02  0.1312668E+00
        -11   -1    0    0    0    0  0.00000000000E+00  0.00000000000E+00  0.45593999997E+02  0.45594000000E+02  0.51100000000E-03 0. -1.
         11   -1    0    0    0    0 -0.00000000000E+00 -0.00000000000E+00 -0.45593999997E+02  0.45594000000E+02  0.51100000000E-03 0.  1.
    9900012    2    1    2    0    0 -0.44505708836E+01  0.45898062101E+01  0.42927256860E+02  0.47787270930E+02  0.19999999479E+02 0.  0.
        -12    1    1    2    0    0  0.44505708836E+01 -0.45898062101E+01 -0.42927256860E+02  0.43400729070E+02  0.00000000000E+00 0.  1.
         11    1    3    3    0    0  0.40669677821E+01  0.39902484088E+00  0.82219934761E+01  0.91815371669E+01  0.51100000000E-03 0. -1.
        -11    1    3    3    0    0  0.14714147002E+01  0.12643141692E+01 -0.40778840884E+00  0.19823832086E+01  0.51100000000E-03 0.  1.
        -12    1    3    3    0    0 -0.99889533659E+01  0.29264672000E+01  0.35113051793E+02  0.36623350555E+02  0.00000000000E+00 0.  1.
</event>
<event>
 7    1  0.1322363E-009  0.4778727E+02  0.7816164E-02  0.1312668E+00
        -11   -1    0    0    0    0  0.00000000000E+00  0.00000000000E+00  0.45593999997E+02  0.45594000000E+02  0.51100000000E-03 0.  1.
         11   -1    0    0    0    0 -0.00000000000E+00 -0.00000000000E+00 -0.45593999997E+02  0.45594000000E+02  0.51100000000E-03 0. -1.
    9900012    2    1    2    0    0  0.20413331524E+02  0.17332287866E+01 -0.38261144451E+02  0.47787270045E+02  0.19999995442E+02 0.  0.
        -12    1    1    2    0    0 -0.20413331524E+02 -0.17332287866E+01  0.38261144451E+02  0.43400729955E+02  0.00000000000E+00 0.  1.
         11    1    3    3    0    0  0.74885189938E+00 -0.35367263636E+01 -0.15006514225E+01  0.39142262953E+01  0.51100000000E-03 0. -1.
        -11    1    3    3    0    0  0.12875342846E+02  0.39996785899E+01 -0.11612780905E+02  0.17794059763E+02  0.51100000000E-03 0.  1.
         12    1    3    3    0    0  0.67891367790E+01  0.12702765603E+01 -0.25147712123E+02  0.26078983987E+02  0.00000000000E+00 0. -1.
</event>
<event>
 7    1  0.1322363E-009  0.4778728E+02  0.7816164E-02  0.1312668E+00
        -11   -1    0    0    0    0  0.00000000000E+00  0.00000000000E+00  0.45593999997E+02  0.45594000000E+02  0.51100000000E-03 0. -1.
         11   -1    0    0    0    0 -0.00000000000E+00 -0.00000000000E+00 -0.45593999997E+02  0.45594000000E+02  0.51100000000E-03 0.  1.
    9900012    2    1    2    0    0 -0.16416396095E+02 -0.33007443307E+02  0.22904878470E+02  0.47787276134E+02  0.20000023204E+02 0.  0.
        -12    1    1    2    0    0  0.16416396095E+02  0.33007443307E+02 -0.22904878470E+02  0.43400723866E+02  0.00000000000E+00 0.  1.
         11    1    3    3    0    0 -0.65717920881E+01 -0.62239650495E+01  0.25293928521E+00  0.90548423912E+01  0.51100000000E-03 0. -1.
        -11    1    3    3    0    0  0.15621363795E+00 -0.11183089568E+02  0.14936355977E+02  0.18659598740E+02  0.51100000000E-03 0.  1.
         12    1    3    3    0    0 -0.10000817645E+02 -0.15600388689E+02  0.77155832075E+01  0.20072835003E+02  0.00000000000E+00 0. -1.
</event>
<event>
 7    1  0.1322363E-009  0.4778727E+02  0.7816164E-02  0.1312668E+00
        -11   -1    0    0    0    0  0.00000000000E+00  0.00000000000E+00  0.45593999997E+02  0.45594000000E+02  0.51100000000E-03 0. -1.
         11   -1    0    0    0    0 -0.00000000000E+00 -0.00000000000E+00 -0.45593999997E+02  0.45594000000E+02  0.51100000000E-03 0.  1.
    9900012    2    1    2    0    0  0.27716642960E+02 -0.11465998455E+02  0.31367844933E+02  0.47787272895E+02  0.20000008436E+02 0.  0.
        -12    1    1    2    0    0 -0.27716642960E+02  0.11465998455E+02 -0.31367844933E+02  0.43400727105E+02  0.00000000000E+00 0.  1.
         11    1    3    3    0    0  0.10644248403E+02 -0.85517283838E+01  0.21507978295E+02  0.25475973250E+02  0.51100000000E-03 0.  1.
        -11    1    3    3    0    0  0.36039072904E+01 -0.27565131069E+01  0.73085208324E+01  0.86023827679E+01  0.51100000000E-03 0. -1.
        -12    1    3    3    0    0  0.13468487267E+02 -0.15775696420E+00  0.25513458051E+01  0.13708916877E+02  0.00000000000E+00 0.  1.
</event>
<event>
 7    1  0.1322363E-009  0.4778727E+02  0.7816164E-02  0.1312668E+00
        -11   -1    0    0    0    0  0.00000000000E+00  0.00000000000E+00  0.45593999997E+02  0.45594000000E+02  0.51100000000E-03 0. -1.
         11   -1    0    0    0    0 -0.00000000000E+00 -0.00000000000E+00 -0.45593999997E+02  0.45594000000E+02  0.51100000000E-03 0.  1.
    9900012    2    1    2    0    0 -0.40919142024E+02 -0.47734748761E+01  0.13655078375E+02  0.47787269456E+02  0.19999992756E+02 0.  0.
        -12    1    1    2    0    0  0.40919142024E+02  0.47734748761E+01 -0.13655078375E+02  0.43400730544E+02  0.00000000000E+00 0.  1.
         11    1    3    3    0    0 -0.11737656781E+02 -0.61271951807E+01  0.11391578155E+01  0.13289574421E+02  0.51100000000E-03 0. -1.
        -11    1    3    3    0    0 -0.50568292671E+01  0.48404125721E+01 -0.20411046023E+00  0.70030548653E+01  0.51100000000E-03 0.  1.
        -12    1    3    3    0    0 -0.24124655976E+02 -0.34866922675E+01  0.12720031020E+02  0.27494640169E+02  0.00000000000E+00 0.  1.
</event>
<event>
 7    1  0.1322363E-009  0.4778727E+02  0.7816164E-02  0.1312668E+00
        -11   -1    0    0    0    0  0.00000000000E+00  0.00000000000E+00  0.45593999997E+02  0.45594000000E+02  0.51100000000E-03 0.  1.
         11   -1    0    0    0    0 -0.00000000000E+00 -0.00000000000E+00 -0.45593999997E+02  0.45594000000E+02  0.51100000000E-03 0. -1.
    9900012    2    1    2    0    0  0.18941899622E+02  0.36399862543E+02  0.14137812802E+02  0.47787270683E+02  0.19999998352E+02 0.  0.
        -12    1    1    2    0    0 -0.18941899622E+02 -0.36399862543E+02 -0.14137812802E+02  0.43400729317E+02  0.00000000000E+00 0.  1.
         11    1    3    3    0    0  0.92727530971E+01  0.52621792306E+01 -0.20046116397E+01  0.10848638087E+02  0.51100000000E-03 0.  1.
        -11    1    3    3    0    0  0.93608705826E+01  0.19994367162E+02  0.10749565719E+02  0.24555117179E+02  0.51100000000E-03 0. -1.
        -12    1    3    3    0    0  0.30827594218E+00  0.11143316150E+02  0.53928587225E+01  0.12383515417E+02  0.00000000000E+00 0.  1.
</event>
<event>
 7    1  0.1322363E-009  0.4778727E+02  0.7816164E-02  0.1312668E+00
        -11   -1    0    0    0    0  0.00000000000E+00  0.00000000000E+00  0.45593999997E+02  0.45594000000E+02  0.51100000000E-03 0.  1.
         11   -1    0    0    0    0 -0.00000000000E+00 -0.00000000000E+00 -0.45593999997E+02  0.45594000000E+02  0.51100000000E-03 0. -1.
    9900012    2    1    2    0    0  0.11325943683E+02  0.45512500774E+00 -0.41894379835E+02  0.47787271886E+02  0.20000003836E+02 0.  0.
        -12    1    1    2    0    0 -0.11325943683E+02 -0.45512500774E+00  0.41894379835E+02  0.43400728114E+02  0.00000000000E+00 0.  1.
         11    1    3    3    0    0 -0.20054835755E+01 -0.19203581844E+01 -0.54008520351E+01  0.60728035448E+01  0.51100000000E-03 0. -1.
        -11    1    3    3    0    0  0.15965157297E+02 -0.12998268260E+00 -0.33064031768E+02  0.36716935329E+02  0.51100000000E-03 0.  1.
         12    1    3    3    0    0 -0.26337300383E+01  0.25054658747E+01 -0.34294960325E+01  0.49975330115E+01  0.00000000000E+00 0. -1.
</event>
<event>
 7    1  0.1322363E-009  0.4778727E+02  0.7816164E-02  0.1312668E+00
        -11   -1    0    0    0    0  0.00000000000E+00  0.00000000000E+00  0.45593999997E+02  0.45594000000E+02  0.51100000000E-03 0.  1.
         11   -1    0    0    0    0 -0.00000000000E+00 -0.00000000000E+00 -0.45593999997E+02  0.45594000000E+02  0.51100000000E-03 0. -1.
    9900012    2    1    2    0    0 -0.40964517482E+02 -0.11003225083E+02  0.91902337690E+01  0.47787273607E+02  0.20000011682E+02 0.  0.
        -12    1    1    2    0    0  0.40964517482E+02  0.11003225083E+02 -0.91902337690E+01  0.43400726393E+02  0.00000000000E+00 0.  1.
         11    1    3    3    0    0 -0.35406778131E+02 -0.11782664149E+02  0.28701443062E+01  0.37426044951E+02  0.51100000000E-03 0. -1.
        -11    1    3    3    0    0 -0.67919288729E+01  0.20584961175E+00  0.47911761987E+01  0.83143274836E+01  0.51100000000E-03 0.  1.
        -12    1    3    3    0    0  0.12341895221E+01  0.57358945429E+00  0.15289132641E+01  0.20469011719E+01  0.00000000000E+00 0.  1.
</event>
<event>
 7    1  0.1322363E-009  0.4778727E+02  0.7816164E-02  0.1312668E+00
        -11   -1    0    0    0    0  0.00000000000E+00  0.00000000000E+00  0.45593999997E+02  0.45594000000E+02  0.51100000000E-03 0.  1.
         11   -1    0    0    0    0 -0.00000000000E+00 -0.00000000000E+00 -0.45593999997E+02  0.45594000000E+02  0.51100000000E-03 0. -1.
    9900012    2    1    2    0    0 -0.23233261542E+02 -0.34742920426E+02 -0.11694786182E+02  0.47787274367E+02  0.20000015150E+02 0.  0.
        -12    1    1    2    0    0  0.23233261542E+02  0.34742920426E+02  0.11694786182E+02  0.43400725633E+02  0.00000000000E+00 0.  1.
         11    1    3    3    0    0 -0.56991740939E+01 -0.19052867446E+02 -0.59910082799E+01  0.20769798356E+02  0.51100000000E-03 0. -1.
        -11    1    3    3    0    0 -0.48311126500E+01 -0.10253539316E+02  0.15024278600E+01  0.11433809850E+02  0.51100000000E-03 0.  1.
         12    1    3    3    0    0 -0.12702974798E+02 -0.54365136634E+01 -0.72062057624E+01  0.15583666161E+02  0.00000000000E+00 0. -1.
</event>
<event>
 7    1  0.1322363E-009  0.4778727E+02  0.7816164E-02  0.1312668E+00
        -11   -1    0    0    0    0  0.00000000000E+00  0.00000000000E+00  0.45593999997E+02  0.45594000000E+02  0.51100000000E-03 0. -1.
         11   -1    0    0    0    0 -0.00000000000E+00 -0.00000000000E+00 -0.45593999997E+02  0.45594000000E+02  0.51100000000E-03 0.  1.
    9900012    2    1    2    0    0 -0.24997533007E+02 -0.29334312415E+02  0.19956074175E+02  0.47787269156E+02  0.19999991391E+02 0.  0.
        -12    1    1    2    0    0  0.24997533007E+02  0.29334312415E+02 -0.19956074175E+02  0.43400730844E+02  0.00000000000E+00 0.  1.
         11    1    3    3    0    0 -0.93972175124E+01 -0.35273778979E+01  0.11131591926E+02  0.14988743472E+02  0.51100000000E-03 0. -1.
        -11    1    3    3    0    0 -0.39703471387E+01 -0.56274122583E+01 -0.19185948898E+01  0.71492958911E+01  0.51100000000E-03 0.  1.
        -12    1    3    3    0    0 -0.11629968356E+02 -0.20179522259E+02  0.10743077139E+02  0.25649229793E+02  0.00000000000E+00 0.  1.
</event>
<event>
 7    1  0.1322363E-009  0.4778733E+02  0.7816164E-02  0.1312667E+00
        -11   -1    0    0    0    0  0.00000000000E+00  0.00000000000E+00  0.45593999997E+02  0.45594000000E+02  0.51100000000E-03 0.  1.
         11   -1    0    0    0    0 -0.00000000000E+00 -0.00000000000E+00 -0.45593999997E+02  0.45594000000E+02  0.51100000000E-03 0. -1.
    9900012    2    1    2    0    0 -0.37607518009E+02 -0.32285540480E+01 -0.21421228438E+02  0.47787331805E+02  0.20000277029E+02 0.  0.
        -12    1    1    2    0    0  0.37607518009E+02  0.32285540480E+01  0.21421228438E+02  0.43400668195E+02  0.00000000000E+00 0.  1.
         11    1    3    3    0    0  0.44710045974E+00  0.18486969246E-01  0.93362409982E+00  0.10353235292E+01  0.51100000000E-03 0. -1.
        -11    1    3    3    0    0 -0.10524480653E+02 -0.23430838615E+01  0.73821750577E+00  0.10807391005E+02  0.51100000000E-03 0.  1.
         12    1    3    3    0    0 -0.27530137816E+02 -0.90395715576E+00 -0.23093070043E+02  0.35944617270E+02  0.00000000000E+00 0. -1.
</event>
<event>
 7    1  0.1322363E-009  0.4778727E+02  0.7816164E-02  0.1312668E+00
        -11   -1    0    0    0    0  0.00000000000E+00  0.00000000000E+00  0.45593999997E+02  0.45594000000E+02  0.51100000000E-03 0.  1.
         11   -1    0    0    0    0 -0.00000000000E+00 -0.00000000000E+00 -0.45593999997E+02  0.45594000000E+02  0.51100000000E-03 0. -1.
    9900012    2    1    2    0    0  0.68582843343E+01  0.27719318349E+02 -0.32683738199E+02  0.47787269402E+02  0.19999992513E+02 0.  0.
        -12    1    1    2    0    0 -0.68582843343E+01 -0.27719318349E+02  0.32683738199E+02  0.43400730598E+02  0.00000000000E+00 0.  1.
         11    1    3    3    0    0  0.23013272766E+01  0.15202067592E+02 -0.12313980760E+02  0.19698555498E+02  0.51100000000E-03 0.  1.
        -11    1    3    3    0    0  0.15289381982E+01 -0.19259387006E+01 -0.93584323251E+01  0.96761122222E+01  0.51100000000E-03 0. -1.
         12    1    3    3    0    0  0.30280188596E+01  0.14443189458E+02 -0.11011325113E+02  0.18412601682E+02  0.00000000000E+00 0. -1.
</event>
<event>
 7    1  0.1322363E-009  0.4778726E+02  0.7816164E-02  0.1312668E+00
        -11   -1    0    0    0    0  0.00000000000E+00  0.00000000000E+00  0.45593999997E+02  0.45594000000E+02  0.51100000000E-03 0.  1.
         11   -1    0    0    0    0 -0.00000000000E+00 -0.00000000000E+00 -0.45593999997E+02  0.45594000000E+02  0.51100000000E-03 0. -1.
    9900012    2    1    2    0    0  0.10624139710E+02 -0.36415513792E+01 -0.41922441433E+02  0.47787258800E+02  0.19999944173E+02 0.  0.
        -12    1    1    2    0    0 -0.10624139710E+02  0.36415513792E+01  0.41922441433E+02  0.43400741200E+02  0.00000000000E+00 0.  1.
         11    1    3    3    0    0 -0.23378850439E+01  0.16558895587E+01 -0.13102927667E+02  0.13412471450E+02  0.51100000000E-03 0. -1.
        -11    1    3    3    0    0  0.76731152896E+01 -0.75320935321E+01 -0.25659085280E+02  0.27820815748E+02  0.51100000000E-03 0.  1.
        -12    1    3    3    0    0  0.52889094646E+01  0.22346525942E+01 -0.31604284864E+01  0.65539716019E+01  0.00000000000E+00 0.  1.
</event>
<event>
 7    1  0.1322363E-009  0.4778727E+02  0.7816164E-02  0.1312668E+00
        -11   -1    0    0    0    0  0.00000000000E+00  0.00000000000E+00  0.45593999997E+02  0.45594000000E+02  0.51100000000E-03 0. -1.
         11   -1    0    0    0    0 -0.00000000000E+00 -0.00000000000E+00 -0.45593999997E+02  0.45594000000E+02  0.51100000000E-03 0.  1.
    9900012    2    1    2    0    0 -0.22138001273E+02  0.27290665717E+01  0.37230156964E+02  0.47787268528E+02  0.19999988527E+02 0.  0.
        -12    1    1    2    0    0  0.22138001273E+02 -0.27290665717E+01 -0.37230156964E+02  0.43400731472E+02  0.00000000000E+00 0.  1.
         11    1    3    3    0    0 -0.11061351686E+02  0.89774601109E+01  0.20228904179E+02  0.24741803808E+02  0.51100000000E-03 0. -1.
        -11    1    3    3    0    0  0.61481793148E+00 -0.23576953504E+01  0.56123879048E+00  0.25003435154E+01  0.51100000000E-03 0.  1.
        -12    1    3    3    0    0 -0.11691467518E+02 -0.38906981888E+01  0.16440013995E+02  0.20545121204E+02  0.00000000000E+00 0.  1.
</event>
<event>
 7    1  0.1322363E-009  0.4778730E+02  0.7816164E-02  0.1312668E+00
        -11   -1    0    0    0    0  0.00000000000E+00  0.00000000000E+00  0.45593999997E+02  0.45594000000E+02  0.51100000000E-03 0.  1.
         11   -1    0    0    0    0 -0.00000000000E+00 -0.00000000000E+00 -0.45593999997E+02  0.45594000000E+02  0.51100000000E-03 0. -1.
    9900012    2    1    2    0    0 -0.32342330301E+02  0.22977021731E+02 -0.17596911280E+02  0.47787295587E+02  0.20000111900E+02 0.  0.
        -12    1    1    2    0    0  0.32342330301E+02 -0.22977021731E+02  0.17596911280E+02  0.43400704413E+02  0.00000000000E+00 0.  1.
         11    1    3    3    0    0 -0.27174205953E+02  0.21390564792E+02 -0.62724353503E+01  0.35147363724E+02  0.51100000000E-03 0. -1.
        -11    1    3    3    0    0 -0.14814997106E+01  0.86892893474E+00 -0.49712762339E+01  0.52596070710E+01  0.51100000000E-03 0.  1.
         12    1    3    3    0    0 -0.36866246380E+01  0.71752800400E+00 -0.63531996958E+01  0.73803247918E+01  0.00000000000E+00 0. -1.
</event>
<event>
 7    1  0.1322363E-009  0.4778727E+02  0.7816164E-02  0.1312668E+00
        -11   -1    0    0    0    0  0.00000000000E+00  0.00000000000E+00  0.45593999997E+02  0.45594000000E+02  0.51100000000E-03 0.  1.
         11   -1    0    0    0    0 -0.00000000000E+00 -0.00000000000E+00 -0.45593999997E+02  0.45594000000E+02  0.51100000000E-03 0. -1.
    9900012    2    1    2    0    0 -0.58755891331E+01  0.11271756381E+02 -0.41497571663E+02  0.47787268514E+02  0.19999988463E+02 0.  0.
        -12    1    1    2    0    0  0.58755891331E+01 -0.11271756381E+02  0.41497571663E+02  0.43400731486E+02  0.00000000000E+00 0.  1.
         11    1    3    3    0    0  0.37657403135E+01  0.21287927599E+01 -0.14320198940E+02  0.14959300006E+02  0.51100000000E-03 0. -1.
        -11    1    3    3    0    0  0.21262970894E+01  0.23790697526E+01 -0.10048144722E+01  0.33452600175E+01  0.51100000000E-03 0.  1.
        -12    1    3    3    0    0 -0.11767626536E+02  0.67638938685E+01 -0.26172558251E+02  0.29482708491E+02  0.00000000000E+00 0.  1.
</event>
<event>
 7    1  0.1322363E-009  0.4778727E+02  0.7816164E-02  0.1312668E+00
        -11   -1    0    0    0    0  0.00000000000E+00  0.00000000000E+00  0.45593999997E+02  0.45594000000E+02  0.51100000000E-03 0.  1.
         11   -1    0    0    0    0 -0.00000000000E+00 -0.00000000000E+00 -0.45593999997E+02  0.45594000000E+02  0.51100000000E-03 0. -1.
    9900012    2    1    2    0    0  0.10914246317E+02  0.41976718937E+02  0.15675800385E+01  0.47787274055E+02  0.20000013726E+02 0.  0.
        -12    1    1    2    0    0 -0.10914246317E+02 -0.41976718937E+02 -0.15675800385E+01  0.43400725945E+02  0.00000000000E+00 0.  1.
         11    1    3    3    0    0  0.12340448906E+01  0.31039793704E+01 -0.49663101272E+01  0.59851308477E+01  0.51100000000E-03 0. -1.
        -11    1    3    3    0    0  0.48770455407E+01  0.92845320138E+01  0.54215419339E+01  0.11805982599E+02  0.51100000000E-03 0.  1.
         12    1    3    3    0    0  0.48031558854E+01  0.29588207553E+02  0.11123482318E+01  0.29996160608E+02  0.00000000000E+00 0. -1.
</event>
<event>
 7    1  0.1322363E-009  0.4778727E+02  0.7816164E-02  0.1312668E+00
        -11   -1    0    0    0    0  0.00000000000E+00  0.00000000000E+00  0.45593999997E+02  0.45594000000E+02  0.51100000000E-03 0.  1.
         11   -1    0    0    0    0 -0.00000000000E+00 -0.00000000000E+00 -0.45593999997E+02  0.45594000000E+02  0.51100000000E-03 0. -1.
    9900012    2    1    2    0    0 -0.33906250254E+02 -0.24324992254E+02 -0.11928298428E+02  0.47787270077E+02  0.19999995588E+02 0.  0.
        -12    1    1    2    0    0  0.33906250254E+02  0.24324992254E+02  0.11928298428E+02  0.43400729923E+02  0.00000000000E+00 0.  1.
         11    1    3    3    0    0 -0.12893887066E+02 -0.14114254081E+02 -0.83398606937E+01  0.20857079579E+02  0.51100000000E-03 0. -1.
        -11    1    3    3    0    0 -0.13445279743E+02 -0.12534201859E+02 -0.46044927459E+01  0.18949488576E+02  0.51100000000E-03 0.  1.
        -12    1    3    3    0    0 -0.75670834453E+01  0.23234636853E+01  0.10160550111E+01  0.79807019209E+01  0.00000000000E+00 0.  1.
</event>
<event>
 7    1  0.1322363E-009  0.4778727E+02  0.7816164E-02  0.1312668E+00
        -11   -1    0    0    0    0  0.00000000000E+00  0.00000000000E+00  0.45593999997E+02  0.45594000000E+02  0.51100000000E-03 0.  1.
         11   -1    0    0    0    0 -0.00000000000E+00 -0.00000000000E+00 -0.45593999997E+02  0.45594000000E+02  0.51100000000E-03 0. -1.
    9900012    2    1    2    0    0  0.17781000309E+02  0.88891304611E+01 -0.38580344195E+02  0.47787267627E+02  0.19999984417E+02 0.  0.
        -12    1    1    2    0    0 -0.17781000309E+02 -0.88891304611E+01  0.38580344195E+02  0.43400732373E+02  0.00000000000E+00 0.  1.
         11    1    3    3    0    0  0.89047396611E+01  0.10970267232E+02 -0.24195119322E+02  0.28018653623E+02  0.51100000000E-03 0. -1.
        -11    1    3    3    0    0 -0.17363228160E+01 -0.10030452054E+01 -0.56041216810E+01  0.59520665891E+01  0.51100000000E-03 0.  1.
        -12    1    3    3    0    0  0.10612583464E+02 -0.10780915653E+01 -0.87811031920E+01  0.13816547415E+02  0.00000000000E+00 0.  1.
</event>
<event>
 7    1  0.1322363E-009  0.4778727E+02  0.7816164E-02  0.1312668E+00
        -11   -1    0    0    0    0  0.00000000000E+00  0.00000000000E+00  0.45593999997E+02  0.45594000000E+02  0.51100000000E-03 0. -1.
         11   -1    0    0    0    0 -0.00000000000E+00 -0.00000000000E+00 -0.45593999997E+02  0.45594000000E+02  0.51100000000E-03 0.  1.
    9900012    2    1    2    0    0 -0.28232292993E+02  0.19977292340E+02  0.26219619701E+02  0.47787273806E+02  0.20000012592E+02 0.  0.
        -12    1    1    2    0    0  0.28232292993E+02 -0.19977292340E+02 -0.26219619701E+02  0.43400726194E+02  0.00000000000E+00 0.  1.
         11    1    3    3    0    0 -0.28358931554E+02  0.11842449065E+02  0.23255272140E+02  0.38539334209E+02  0.51100000000E-03 0.  1.
        -11    1    3    3    0    0 -0.92702318025E+00  0.52945042143E+01  0.60674111834E+00  0.54091849569E+01  0.51100000000E-03 0. -1.
        -12    1    3    3    0    0  0.10536617414E+01  0.28403390608E+01  0.23576064430E+01  0.38387546400E+01  0.00000000000E+00 0.  1.
</event>
<event>
 7    1  0.1322363E-009  0.4778727E+02  0.7816164E-02  0.1312668E+00
        -11   -1    0    0    0    0  0.00000000000E+00  0.00000000000E+00  0.45593999997E+02  0.45594000000E+02  0.51100000000E-03 0.  1.
         11   -1    0    0    0    0 -0.00000000000E+00 -0.00000000000E+00 -0.45593999997E+02  0.45594000000E+02  0.51100000000E-03 0. -1.
    9900012    2    1    2    0    0 -0.33072090616E+02 -0.28087756849E+02  0.96859955123E+00  0.47787269043E+02  0.19999990875E+02 0.  0.
        -12    1    1    2    0    0  0.33072090616E+02  0.28087756849E+02 -0.96859955123E+00  0.43400730957E+02  0.00000000000E+00 0.  1.
         11    1    3    3    0    0 -0.31811003402E+01  0.20532803378E+01  0.24010108846E+00  0.37938118449E+01  0.51100000000E-03 0. -1.
        -11    1    3    3    0    0 -0.17077447353E+02 -0.14743401617E+02 -0.51009669131E+01  0.23130649862E+02  0.51100000000E-03 0.  1.
        -12    1    3    3    0    0 -0.12813542922E+02 -0.15397635569E+02  0.58294653759E+01  0.20862807336E+02  0.00000000000E+00 0.  1.
</event>
<event>
 7    1  0.1322363E-009  0.4778727E+02  0.7816164E-02  0.1312668E+00
        -11   -1    0    0    0    0  0.00000000000E+00  0.00000000000E+00  0.45593999997E+02  0.45594000000E+02  0.51100000000E-03 0.  1.
         11   -1    0    0    0    0 -0.00000000000E+00 -0.00000000000E+00 -0.45593999997E+02  0.45594000000E+02  0.51100000000E-03 0. -1.
    9900012    2    1    2    0    0 -0.10364747545E+02  0.26570636032E+02 -0.32713854198E+02  0.47787274807E+02  0.20000017153E+02 0.  0.
        -12    1    1    2    0    0  0.10364747545E+02 -0.26570636032E+02  0.32713854198E+02  0.43400725193E+02  0.00000000000E+00 0.  1.
         11    1    3    3    0    0  0.18856198178E+01  0.20523269725E+01  0.31421288515E-01  0.27872200591E+01  0.51100000000E-03 0. -1.
        -11    1    3    3    0    0 -0.57687260971E+01  0.14928003638E+02 -0.28471355527E+02  0.32661010076E+02  0.51100000000E-03 0.  1.
         12    1    3    3    0    0 -0.64816412652E+01  0.95903054223E+01 -0.42739199597E+01  0.12339044672E+02  0.00000000000E+00 0. -1.
</event>
<event>
 7    1  0.1322363E-009  0.4778727E+02  0.7816164E-02  0.1312668E+00
        -11   -1    0    0    0    0  0.00000000000E+00  0.00000000000E+00  0.45593999997E+02  0.45594000000E+02  0.51100000000E-03 0. -1.
         11   -1    0    0    0    0 -0.00000000000E+00 -0.00000000000E+00 -0.45593999997E+02  0.45594000000E+02  0.51100000000E-03 0.  1.
    9900012    2    1    2    0    0 -0.21174592774E+02 -0.27041173636E+02  0.26533654896E+02  0.47787270826E+02  0.19999999002E+02 0.  0.
        -12    1    1    2    0    0  0.21174592774E+02  0.27041173636E+02 -0.26533654896E+02  0.43400729174E+02  0.00000000000E+00 0.  1.
         11    1    3    3    0    0 -0.15105033867E+02 -0.15455266881E+02  0.11486654014E+02  0.24473874708E+02  0.51100000000E-03 0. -1.
        -11    1    3    3    0    0  0.31773414058E+01 -0.64327342319E+01  0.52566345045E+01  0.88942551505E+01  0.51100000000E-03 0.  1.
         12    1    3    3    0    0 -0.92469003129E+01 -0.51531725223E+01  0.97903663772E+01  0.14419140968E+02  0.00000000000E+00 0. -1.
</event>
<event>
 7    1  0.1420370E-009  0.4778727E+02  0.7816164E-02  0.1312668E+00
        -11   -1    0    0    0    0  0.00000000000E+00  0.00000000000E+00  0.45593999997E+02  0.45594000000E+02  0.51100000000E-03 0.  1.
         11   -1    0    0    0    0 -0.00000000000E+00 -0.00000000000E+00 -0.45593999997E+02  0.45594000000E+02  0.51100000000E-03 0. -1.
    9900012    2    1    2    0    0  0.36981125767E+02  0.10555036634E+02 -0.20114946263E+02  0.47787268158E+02  0.19999986837E+02 0.  0.
        -12    1    1    2    0    0 -0.36981125767E+02 -0.10555036634E+02  0.20114946263E+02  0.43400731842E+02  0.00000000000E+00 0.  1.
         11    1    3    3    0    0  0.18684062252E+02  0.71337881156E+01 -0.73176722565E+01  0.21296324627E+02  0.51100000000E-03 0. -1.
        -11    1    3    3    0    0 -0.33654982771E+00  0.25471486722E+01  0.15115905265E+01  0.29809626508E+01  0.51100000000E-03 0.  1.
         12    1    3    3    0    0  0.18633613342E+02  0.87409984600E+00 -0.14308864533E+02  0.23509980879E+02  0.00000000000E+00 0. -1.
</event>
<event>
 7    1  0.1322363E-009  0.4778727E+02  0.7816164E-02  0.1312668E+00
        -11   -1    0    0    0    0  0.00000000000E+00  0.00000000000E+00  0.45593999997E+02  0.45594000000E+02  0.51100000000E-03 0.  1.
         11   -1    0    0    0    0 -0.00000000000E+00 -0.00000000000E+00 -0.45593999997E+02  0.45594000000E+02  0.51100000000E-03 0. -1.
    9900012    2    1    2    0    0 -0.76600291733E+01 -0.30815367414E+02 -0.29586486380E+02  0.47787273138E+02  0.20000009546E+02 0.  0.
        -12    1    1    2    0    0  0.76600291733E+01  0.30815367414E+02  0.29586486380E+02  0.43400726862E+02  0.00000000000E+00 0.  1.
         11    1    3    3    0    0  0.51723146554E+01 -0.17788364114E+02 -0.13635722775E+02  0.23002427537E+02  0.51100000000E-03 0.  1.
        -11    1    3    3    0    0 -0.57720510544E+01 -0.87243434259E+01 -0.10841702427E+02  0.15065631529E+02  0.51100000000E-03 0. -1.
        -12    1    3    3    0    0 -0.70602927743E+01 -0.43026598739E+01 -0.51090611785E+01  0.97192140719E+01  0.00000000000E+00 0.  1.
</event>
<event>
 7    1  0.1322363E-009  0.4778727E+02  0.7816164E-02  0.1312668E+00
        -11   -1    0    0    0    0  0.00000000000E+00  0.00000000000E+00  0.45593999997E+02  0.45594000000E+02  0.51100000000E-03 0.  1.
         11   -1    0    0    0    0 -0.00000000000E+00 -0.00000000000E+00 -0.45593999997E+02  0.45594000000E+02  0.51100000000E-03 0. -1.
    9900012    2    1    2    0    0 -0.16341274699E+01 -0.35851455610E+02 -0.24405450099E+02  0.47787271476E+02  0.20000001965E+02 0.  0.
        -12    1    1    2    0    0  0.16341274699E+01  0.35851455610E+02  0.24405450099E+02  0.43400728524E+02  0.00000000000E+00 0.  1.
         11    1    3    3    0    0  0.73873093093E+01 -0.63765009101E+01 -0.57302769828E+01  0.11316721135E+02  0.51100000000E-03 0.  1.
        -11    1    3    3    0    0 -0.33348883823E+01 -0.19414349052E+02 -0.12945100499E+02  0.23571467006E+02  0.51100000000E-03 0. -1.
        -12    1    3    3    0    0 -0.56865483969E+01 -0.10060605648E+02 -0.57300726176E+01  0.12899083334E+02  0.00000000000E+00 0.  1.
</event>
<event>
 7    1  0.1322363E-009  0.4778727E+02  0.7816164E-02  0.1312668E+00
        -11   -1    0    0    0    0  0.00000000000E+00  0.00000000000E+00  0.45593999997E+02  0.45594000000E+02  0.51100000000E-03 0.  1.
         11   -1    0    0    0    0 -0.00000000000E+00 -0.00000000000E+00 -0.45593999997E+02  0.45594000000E+02  0.51100000000E-03 0. -1.
    9900012    2    1    2    0    0  0.40707153467E+02 -0.14466210936E+02  0.41569207326E+01  0.47787267377E+02  0.19999983278E+02 0.  0.
        -12    1    1    2    0    0 -0.40707153467E+02  0.14466210936E+02 -0.41569207326E+01  0.43400732623E+02  0.00000000000E+00 0.  1.
         11    1    3    3    0    0  0.30393984602E+01 -0.60212697381E+01 -0.18017461690E+01  0.69813982681E+01  0.51100000000E-03 0. -1.
        -11    1    3    3    0    0  0.13596981891E+02  0.21412532700E+01 -0.33014357013E+00  0.13768510346E+02  0.51100000000E-03 0.  1.
        -12    1    3    3    0    0  0.24070773116E+02 -0.10586194468E+02  0.62888104717E+01  0.27037358763E+02  0.00000000000E+00 0.  1.
</event>
<event>
 7    1  0.1322363E-009  0.4778727E+02  0.7816164E-02  0.1312668E+00
        -11   -1    0    0    0    0  0.00000000000E+00  0.00000000000E+00  0.45593999997E+02  0.45594000000E+02  0.51100000000E-03 0.  1.
         11   -1    0    0    0    0 -0.00000000000E+00 -0.00000000000E+00 -0.45593999997E+02  0.45594000000E+02  0.51100000000E-03 0. -1.
    9900012    2    1    2    0    0 -0.19236251849E+02 -0.35217864908E+02 -0.16531556833E+02  0.47787265384E+02  0.19999974193E+02 0.  0.
        -12    1    1    2    0    0  0.19236251849E+02  0.35217864908E+02  0.16531556833E+02  0.43400734616E+02  0.00000000000E+00 0.  1.
         11    1    3    3    0    0 -0.52569121183E+00 -0.69128621901E+01 -0.10227655206E+02  0.12355927573E+02  0.51100000000E-03 0. -1.
        -11    1    3    3    0    0 -0.28981670270E+00 -0.53028057408E+00 -0.16783507991E+01  0.17838309545E+01  0.51100000000E-03 0.  1.
         12    1    3    3    0    0 -0.18420743934E+02 -0.27774722143E+02 -0.46255508284E+01  0.33647506857E+02  0.00000000000E+00 0. -1.
</event>
<event>
 7    1  0.1322363E-009  0.4778728E+02  0.7816164E-02  0.1312668E+00
        -11   -1    0    0    0    0  0.00000000000E+00  0.00000000000E+00  0.45593999997E+02  0.45594000000E+02  0.51100000000E-03 0.  1.
         11   -1    0    0    0    0 -0.00000000000E+00 -0.00000000000E+00 -0.45593999997E+02  0.45594000000E+02  0.51100000000E-03 0. -1.
    9900012    2    1    2    0    0  0.28840276082E+02 -0.31285884180E+02  0.85472089592E+01  0.47787275878E+02  0.20000022036E+02 0.  0.
        -12    1    1    2    0    0 -0.28840276082E+02  0.31285884180E+02 -0.85472089592E+01  0.43400724122E+02  0.00000000000E+00 0.  1.
         11    1    3    3    0    0  0.22283213939E+00  0.97151370496E+00 -0.74969153109E+00  0.12472091622E+01  0.51100000000E-03 0. -1.
        -11    1    3    3    0    0  0.13578489414E+02 -0.18738139476E+02  0.12118559401E+02  0.26121882168E+02  0.51100000000E-03 0.  1.
        -12    1    3    3    0    0  0.15038954528E+02 -0.13519258409E+02 -0.28216589103E+01  0.20418184548E+02  0.00000000000E+00 0.  1.
</event>
<event>
 7    1  0.1322363E-009  0.4778727E+02  0.7816164E-02  0.1312668E+00
        -11   -1    0    0    0    0  0.00000000000E+00  0.00000000000E+00  0.45593999997E+02  0.45594000000E+02  0.51100000000E-03 0.  1.
         11   -1    0    0    0    0 -0.00000000000E+00 -0.00000000000E+00 -0.45593999997E+02  0.45594000000E+02  0.51100000000E-03 0. -1.
    9900012    2    1    2    0    0  0.34258011435E+02 -0.73449128014E+01 -0.25613750325E+02  0.47787270775E+02  0.19999998773E+02 0.  0.
        -12    1    1    2    0    0 -0.34258011435E+02  0.73449128014E+01  0.25613750325E+02  0.43400729225E+02  0.00000000000E+00 0.  1.
         11    1    3    3    0    0  0.14163972137E+02 -0.61173898147E+01 -0.17263802356E+01  0.15524849558E+02  0.51100000000E-03 0.  1.
        -11    1    3    3    0    0  0.37928746156E+01  0.22151559796E+00 -0.67165850330E+00  0.38582499162E+01  0.51100000000E-03 0. -1.
         12    1    3    3    0    0  0.16301164682E+02 -0.14490385847E+01 -0.23215711586E+02  0.28404171301E+02  0.00000000000E+00 0. -1.
</event>
<event>
 7    1  0.1322363E-009  0.4778727E+02  0.7816164E-02  0.1312668E+00
        -11   -1    0    0    0    0  0.00000000000E+00  0.00000000000E+00  0.45593999997E+02  0.45594000000E+02  0.51100000000E-03 0. -1.
         11   -1    0    0    0    0 -0.00000000000E+00 -0.00000000000E+00 -0.45593999997E+02  0.45594000000E+02  0.51100000000E-03 0.  1.
    9900012    2    1    2    0    0 -0.24192745841E+02 -0.34103634877E+02  0.11630849943E+02  0.47787268052E+02  0.19999986358E+02 0.  0.
        -12    1    1    2    0    0  0.24192745841E+02  0.34103634877E+02 -0.11630849943E+02  0.43400731948E+02  0.00000000000E+00 0.  1.
         11    1    3    3    0    0 -0.51947133667E+01 -0.40611380930E+01  0.61867255569E+01  0.90417621595E+01  0.51100000000E-03 0. -1.
        -11    1    3    3    0    0 -0.26960296306E+01 -0.12927132258E+02  0.72056820965E+01  0.15043310105E+02  0.51100000000E-03 0.  1.
         12    1    3    3    0    0 -0.16302002844E+02 -0.17115364527E+02 -0.17615577099E+01  0.23702195788E+02  0.00000000000E+00 0. -1.
</event>
<event>
 7    1  0.1322363E-009  0.4778727E+02  0.7816164E-02  0.1312668E+00
        -11   -1    0    0    0    0  0.00000000000E+00  0.00000000000E+00  0.45593999997E+02  0.45594000000E+02  0.51100000000E-03 0.  1.
         11   -1    0    0    0    0 -0.00000000000E+00 -0.00000000000E+00 -0.45593999997E+02  0.45594000000E+02  0.51100000000E-03 0. -1.
    9900012    2    1    2    0    0  0.17045543029E+02  0.11180161642E+02 -0.38315486588E+02  0.47787273462E+02  0.20000011025E+02 0.  0.
        -12    1    1    2    0    0 -0.17045543029E+02 -0.11180161642E+02  0.38315486588E+02  0.43400726538E+02  0.00000000000E+00 0.  1.
         11    1    3    3    0    0  0.35551017458E+01  0.60912940502E+01 -0.18823065612E+02  0.20101005222E+02  0.51100000000E-03 0. -1.
        -11    1    3    3    0    0  0.12234380635E+02  0.86964826133E+01 -0.11784188603E+02  0.19083395418E+02  0.51100000000E-03 0.  1.
        -12    1    3    3    0    0  0.12560606483E+01 -0.36076150218E+01 -0.77082323730E+01  0.86028728233E+01  0.00000000000E+00 0.  1.
</event>
<event>
 7    1  0.1322363E-009  0.4778727E+02  0.7816164E-02  0.1312668E+00
        -11   -1    0    0    0    0  0.00000000000E+00  0.00000000000E+00  0.45593999997E+02  0.45594000000E+02  0.51100000000E-03 0.  1.
         11   -1    0    0    0    0 -0.00000000000E+00 -0.00000000000E+00 -0.45593999997E+02  0.45594000000E+02  0.51100000000E-03 0. -1.
    9900012    2    1    2    0    0 -0.41528047553E+02  0.16460721873E+00 -0.12610211224E+02  0.47787271248E+02  0.20000000928E+02 0.  0.
        -12    1    1    2    0    0  0.41528047553E+02 -0.16460721873E+00  0.12610211224E+02  0.43400728752E+02  0.00000000000E+00 0.  1.
         11    1    3    3    0    0 -0.17157934791E+02 -0.12461042329E+01 -0.71344345822E+01  0.18623846518E+02  0.51100000000E-03 0. -1.
        -11    1    3    3    0    0  0.13783782946E+01  0.24771767093E+01 -0.10062993034E+01  0.30081505484E+01  0.51100000000E-03 0.  1.
        -12    1    3    3    0    0 -0.25748491057E+02 -0.10664652577E+01 -0.44694773380E+01  0.26155274182E+02  0.00000000000E+00 0.  1.
</event>
<event>
 7    1  0.1322363E-009  0.4778727E+02  0.7816164E-02  0.1312668E+00
        -11   -1    0    0    0    0  0.00000000000E+00  0.00000000000E+00  0.45593999997E+02  0.45594000000E+02  0.51100000000E-03 0.  1.
         11   -1    0    0    0    0 -0.00000000000E+00 -0.00000000000E+00 -0.45593999997E+02  0.45594000000E+02  0.51100000000E-03 0. -1.
    9900012    2    1    2    0    0  0.16164808682E+02  0.14140548946E+02 -0.37714281915E+02  0.47787271612E+02  0.20000002588E+02 0.  0.
        -12    1    1    2    0    0 -0.16164808682E+02 -0.14140548946E+02  0.37714281915E+02  0.43400728388E+02  0.00000000000E+00 0.  1.
         11    1    3    3    0    0  0.15846026608E+02  0.41650316788E+01 -0.27254617086E+02  0.31800286177E+02  0.51100000000E-03 0. -1.
        -11    1    3    3    0    0 -0.21083770840E+01  0.34658236951E+00 -0.14832318102E+01  0.26010286679E+01  0.51100000000E-03 0.  1.
         12    1    3    3    0    0  0.24271591588E+01  0.96289348977E+01 -0.89764330184E+01  0.13385956767E+02  0.00000000000E+00 0. -1.
</event>
<event>
 7    1  0.1322363E-009  0.4778727E+02  0.7816164E-02  0.1312668E+00
        -11   -1    0    0    0    0  0.00000000000E+00  0.00000000000E+00  0.45593999997E+02  0.45594000000E+02  0.51100000000E-03 0.  1.
         11   -1    0    0    0    0 -0.00000000000E+00 -0.00000000000E+00 -0.45593999997E+02  0.45594000000E+02  0.51100000000E-03 0. -1.
    9900012    2    1    2    0    0 -0.38286795849E+01 -0.10606209993E+02 -0.41910294556E+02  0.47787271118E+02  0.20000000334E+02 0.  0.
        -12    1    1    2    0    0  0.38286795849E+01  0.10606209993E+02  0.41910294556E+02  0.43400728882E+02  0.00000000000E+00 0.  1.
         11    1    3    3    0    0  0.26980251193E+01 -0.45690593264E+01 -0.45939029257E+01  0.70185174377E+01  0.51100000000E-03 0. -1.
        -11    1    3    3    0    0 -0.82531654921E+01 -0.10148648327E+01 -0.32672303602E+02  0.33713856412E+02  0.51100000000E-03 0.  1.
        -12    1    3    3    0    0  0.17264607879E+01 -0.50222858335E+01 -0.46440880285E+01  0.70548972681E+01  0.00000000000E+00 0.  1.
</event>
<event>
 7    1  0.1322363E-009  0.4778725E+02  0.7816164E-02  0.1312668E+00
        -11   -1    0    0    0    0  0.00000000000E+00  0.00000000000E+00  0.45593999997E+02  0.45594000000E+02  0.51100000000E-03 0.  1.
         11   -1    0    0    0    0 -0.00000000000E+00 -0.00000000000E+00 -0.45593999997E+02  0.45594000000E+02  0.51100000000E-03 0. -1.
    9900012    2    1    2    0    0 -0.41174611249E+01 -0.36612158143E+02 -0.22939513509E+02  0.47787252425E+02  0.19999915107E+02 0.  0.
        -12    1    1    2    0    0  0.41174611249E+01  0.36612158143E+02  0.22939513509E+02  0.43400747575E+02  0.00000000000E+00 0.  1.
         11    1    3    3    0    0  0.22438434554E+01 -0.18064500982E+01 -0.43100021580E+01  0.51840345555E+01  0.51100000000E-03 0. -1.
        -11    1    3    3    0    0 -0.94150087913E+01 -0.14691255519E+02 -0.51326777549E+01  0.18188451293E+02  0.51100000000E-03 0.  1.
         12    1    3    3    0    0  0.30537042111E+01 -0.20114452526E+02 -0.13496833596E+02  0.24414766576E+02  0.00000000000E+00 0. -1.
</event>
<event>
 7    1  0.1322363E-009  0.4778727E+02  0.7816164E-02  0.1312668E+00
        -11   -1    0    0    0    0  0.00000000000E+00  0.00000000000E+00  0.45593999997E+02  0.45594000000E+02  0.51100000000E-03 0. -1.
         11   -1    0    0    0    0 -0.00000000000E+00 -0.00000000000E+00 -0.45593999997E+02  0.45594000000E+02  0.51100000000E-03 0.  1.
    9900012    2    1    2    0    0  0.30931223248E+01 -0.40750887020E+02  0.14608935467E+02  0.47787271963E+02  0.20000004189E+02 0.  0.
        -12    1    1    2    0    0 -0.30931223248E+01  0.40750887020E+02 -0.14608935467E+02  0.43400728037E+02  0.00000000000E+00 0.  1.
         11    1    3    3    0    0 -0.40400364663E+01 -0.36504477648E+02  0.12260651004E+02  0.38719792694E+02  0.51100000000E-03 0. -1.
        -11    1    3    3    0    0  0.11751693508E+01  0.14904378629E+00  0.98175501684E+00  0.15385318416E+01  0.51100000000E-03 0.  1.
         12    1    3    3    0    0  0.59579894402E+01 -0.43954531586E+01  0.13665294465E+01  0.75289474276E+01  0.00000000000E+00 0. -1.
</event>
<event>
 7    1  0.1322363E-009  0.4778727E+02  0.7816164E-02  0.1312668E+00
        -11   -1    0    0    0    0  0.00000000000E+00  0.00000000000E+00  0.45593999997E+02  0.45594000000E+02  0.51100000000E-03 0.  1.
         11   -1    0    0    0    0 -0.00000000000E+00 -0.00000000000E+00 -0.45593999997E+02  0.45594000000E+02  0.51100000000E-03 0. -1.
    9900012    2    1    2    0    0  0.31448109962E+02 -0.91120668428E+01 -0.28488766404E+02  0.47787271970E+02  0.20000004221E+02 0.  0.
        -12    1    1    2    0    0 -0.31448109962E+02  0.91120668428E+01  0.28488766404E+02  0.43400728030E+02  0.00000000000E+00 0.  1.
         11    1    3    3    0    0  0.10068436273E+02  0.49992237069E-01 -0.10676097652E+02  0.14674977667E+02  0.51100000000E-03 0. -1.
        -11    1    3    3    0    0  0.19486091446E+02 -0.10710547295E+02 -0.90366681275E+01  0.24001769816E+02  0.51100000000E-03 0.  1.
        -12    1    3    3    0    0  0.18935822429E+01  0.15484882156E+01 -0.87760006241E+01  0.91105244865E+01  0.00000000000E+00 0.  1.
</event>
<event>
 7    1  0.1322363E-009  0.4778727E+02  0.7816164E-02  0.1312668E+00
        -11   -1    0    0    0    0  0.00000000000E+00  0.00000000000E+00  0.45593999997E+02  0.45594000000E+02  0.51100000000E-03 0.  1.
         11   -1    0    0    0    0 -0.00000000000E+00 -0.00000000000E+00 -0.45593999997E+02  0.45594000000E+02  0.51100000000E-03 0. -1.
    9900012    2    1    2    0    0  0.10036001489E+02 -0.19024847890E+00 -0.42223997823E+02  0.47787268295E+02  0.19999987466E+02 0.  0.
        -12    1    1    2    0    0 -0.10036001489E+02  0.19024847890E+00  0.42223997823E+02  0.43400731705E+02  0.00000000000E+00 0.  1.
         11    1    3    3    0    0  0.65374429766E+01 -0.27958849575E+01 -0.81725761237E+01  0.10832642066E+02  0.51100000000E-03 0. -1.
        -11    1    3    3    0    0  0.66494319894E+01  0.51294079200E+01 -0.30304990920E+02  0.31447070552E+02  0.51100000000E-03 0.  1.
        -12    1    3    3    0    0 -0.31508734772E+01 -0.25237714413E+01 -0.37464307787E+01  0.55075556772E+01  0.00000000000E+00 0.  1.
</event>
<event>
 7    1  0.1322363E-009  0.4778727E+02  0.7816164E-02  0.1312668E+00
        -11   -1    0    0    0    0  0.00000000000E+00  0.00000000000E+00  0.45593999997E+02  0.45594000000E+02  0.51100000000E-03 0. -1.
         11   -1    0    0    0    0 -0.00000000000E+00 -0.00000000000E+00 -0.45593999997E+02  0.45594000000E+02  0.51100000000E-03 0.  1.
    9900012    2    1    2    0    0 -0.69004418249E+00 -0.16185192577E+02  0.40263963175E+02  0.47787270164E+02  0.19999995985E+02 0.  0.
        -12    1    1    2    0    0  0.69004418249E+00  0.16185192577E+02 -0.40263963175E+02  0.43400729836E+02  0.00000000000E+00 0.  1.
         11    1    3    3    0    0  0.35913804468E+00 -0.83573555901E+01  0.19800048747E+02  0.21494564505E+02  0.51100000000E-03 0. -1.
        -11    1    3    3    0    0 -0.56890863218E+01 -0.86061165341E+01  0.18525366578E+02  0.21204248444E+02  0.51100000000E-03 0.  1.
        -12    1    3    3    0    0  0.46399040946E+01  0.77827954699E+00  0.19385478498E+01  0.50884572148E+01  0.00000000000E+00 0.  1.
</event>
<event>
 7    1  0.1322363E-009  0.4778727E+02  0.7816164E-02  0.1312668E+00
        -11   -1    0    0    0    0  0.00000000000E+00  0.00000000000E+00  0.45593999997E+02  0.45594000000E+02  0.51100000000E-03 0.  1.
         11   -1    0    0    0    0 -0.00000000000E+00 -0.00000000000E+00 -0.45593999997E+02  0.45594000000E+02  0.51100000000E-03 0. -1.
    9900012    2    1    2    0    0 -0.33141323049E+00 -0.43399450770E+02 -0.32366428722E-01  0.47787271787E+02  0.20000003385E+02 0.  0.
        -12    1    1    2    0    0  0.33141323049E+00  0.43399450770E+02  0.32366428722E-01  0.43400728213E+02  0.00000000000E+00 0.  1.
         11    1    3    3    0    0 -0.43097632298E+01 -0.82137075401E+01 -0.87311446878E+00  0.93167258084E+01  0.51100000000E-03 0. -1.
        -11    1    3    3    0    0  0.41651069595E+01 -0.16929792014E+02  0.75778417249E+01  0.19010251421E+02  0.51100000000E-03 0.  1.
        -12    1    3    3    0    0 -0.18675696023E+00 -0.18255951215E+02 -0.67370936848E+01  0.19460294557E+02  0.00000000000E+00 0.  1.
</event>
<event>
 7    1  0.1322363E-009  0.4778727E+02  0.7816164E-02  0.1312668E+00
        -11   -1    0    0    0    0  0.00000000000E+00  0.00000000000E+00  0.45593999997E+02  0.45594000000E+02  0.51100000000E-03 0.  1.
         11   -1    0    0    0    0 -0.00000000000E+00 -0.00000000000E+00 -0.45593999997E+02  0.45594000000E+02  0.51100000000E-03 0. -1.
    9900012    2    1    2    0    0 -0.10905739737E+02  0.34642983635E+01 -0.41865099825E+02  0.47787272981E+02  0.20000008831E+02 0.  0.
        -12    1    1    2    0    0  0.10905739737E+02 -0.34642983635E+01  0.41865099825E+02  0.43400727019E+02  0.00000000000E+00 0.  1.
         11    1    3    3    0    0  0.47042342054E-01  0.16928133662E+01 -0.19019503808E+02  0.19094746802E+02  0.51100000000E-03 0.  1.
        -11    1    3    3    0    0 -0.12721891146E+02 -0.72443706546E+00 -0.22152154385E+02  0.25555611273E+02  0.51100000000E-03 0. -1.
         12    1    3    3    0    0  0.17691090667E+01  0.24959220628E+01 -0.69344163315E+00  0.31369149067E+01  0.00000000000E+00 0. -1.
</event>
<event>
 7    1  0.1322363E-009  0.4778727E+02  0.7816164E-02  0.1312668E+00
        -11   -1    0    0    0    0  0.00000000000E+00  0.00000000000E+00  0.45593999997E+02  0.45594000000E+02  0.51100000000E-03 0.  1.
         11   -1    0    0    0    0 -0.00000000000E+00 -0.00000000000E+00 -0.45593999997E+02  0.45594000000E+02  0.51100000000E-03 0. -1.
    9900012    2    1    2    0    0  0.11314071060E+02  0.13903740307E+02 -0.39525957533E+02  0.47787268239E+02  0.19999987209E+02 0.  0.
        -12    1    1    2    0    0 -0.11314071060E+02 -0.13903740307E+02  0.39525957533E+02  0.43400731761E+02  0.00000000000E+00 0.  1.
         11    1    3    3    0    0  0.60476613226E+01  0.85455866166E+00 -0.17621006219E+02  0.18649513088E+02  0.51100000000E-03 0.  1.
        -11    1    3    3    0    0 -0.32160754525E+01  0.23370405300E+00 -0.14065645483E+01  0.35179799588E+01  0.51100000000E-03 0. -1.
         12    1    3    3    0    0  0.84824851899E+01  0.12815477592E+02 -0.20498386766E+02  0.25619775193E+02  0.00000000000E+00 0. -1.
</event>
<event>
 7    1  0.1322363E-009  0.4778727E+02  0.7816164E-02  0.1312668E+00
        -11   -1    0    0    0    0  0.00000000000E+00  0.00000000000E+00  0.45593999997E+02  0.45594000000E+02  0.51100000000E-03 0.  1.
         11   -1    0    0    0    0 -0.00000000000E+00 -0.00000000000E+00 -0.45593999997E+02  0.45594000000E+02  0.51100000000E-03 0. -1.
    9900012    2    1    2    0    0 -0.42750902389E+02  0.21202677604E+00 -0.74792269320E+01  0.47787269062E+02  0.19999990962E+02 0.  0.
        -12    1    1    2    0    0  0.42750902389E+02 -0.21202677604E+00  0.74792269320E+01  0.43400730938E+02  0.00000000000E+00 0.  1.
         11    1    3    3    0    0 -0.77435623845E+01  0.99398667789E+00 -0.94354092956E+01  0.12246538971E+02  0.51100000000E-03 0.  1.
        -11    1    3    3    0    0 -0.21266005767E+02  0.21171690548E+01  0.73462308448E-01  0.21371261148E+02  0.51100000000E-03 0. -1.
        -12    1    3    3    0    0 -0.13741334237E+02 -0.28991289566E+01  0.18827200552E+01  0.14169468943E+02  0.00000000000E+00 0.  1.
</event>
<event>
 7    1  0.1322363E-009  0.4778724E+02  0.7816164E-02  0.1312668E+00
        -11   -1    0    0    0    0  0.00000000000E+00  0.00000000000E+00  0.45593999997E+02  0.45594000000E+02  0.51100000000E-03 0. -1.
         11   -1    0    0    0    0 -0.00000000000E+00 -0.00000000000E+00 -0.45593999997E+02  0.45594000000E+02  0.51100000000E-03 0.  1.
    9900012    2    1    2    0    0  0.63160955289E+01  0.34965906735E+02  0.24922248080E+02  0.47787237957E+02  0.19999849141E+02 0.  0.
        -12    1    1    2    0    0 -0.63160955289E+01 -0.34965906735E+02 -0.24922248080E+02  0.43400762043E+02  0.00000000000E+00 0.  1.
         11    1    3    3    0    0  0.13223655082E+02  0.26721100382E+02  0.17732372983E+02  0.34688893197E+02  0.51100000000E-03 0. -1.
        -11    1    3    3    0    0 -0.21432045918E+01  0.38345920727E+01  0.36009292328E+01  0.56801508683E+01  0.51100000000E-03 0.  1.
         12    1    3    3    0    0 -0.47643549615E+01  0.44102142804E+01  0.35889458639E+01  0.74181938916E+01  0.00000000000E+00 0. -1.
</event>
<event>
 7    1  0.1322363E-009  0.4778728E+02  0.7816164E-02  0.1312668E+00
        -11   -1    0    0    0    0  0.00000000000E+00  0.00000000000E+00  0.45593999997E+02  0.45594000000E+02  0.51100000000E-03 0.  1.
         11   -1    0    0    0    0 -0.00000000000E+00 -0.00000000000E+00 -0.45593999997E+02  0.45594000000E+02  0.51100000000E-03 0. -1.
    9900012    2    1    2    0    0  0.27814235903E+02  0.19148134850E+02 -0.27264260359E+02  0.47787277886E+02  0.20000031194E+02 0.  0.
        -12    1    1    2    0    0 -0.27814235903E+02 -0.19148134850E+02  0.27264260359E+02  0.43400722114E+02  0.00000000000E+00 0.  1.
         11    1    3    3    0    0  0.98349735787E+01  0.40615909972E+01 -0.45525564878E+01  0.11573633723E+02  0.51100000000E-03 0. -1.
        -11    1    3    3    0    0 -0.28693913503E+01  0.11503682503E+01 -0.31011770065E+01  0.43788186671E+01  0.51100000000E-03 0.  1.
        -12    1    3    3    0    0  0.20848653674E+02  0.13936175602E+02 -0.19610526865E+02  0.31834825496E+02  0.00000000000E+00 0.  1.
</event>
<event>
 7    1  0.1322363E-009  0.4778726E+02  0.7816164E-02  0.1312668E+00
        -11   -1    0    0    0    0  0.00000000000E+00  0.00000000000E+00  0.45593999997E+02  0.45594000000E+02  0.51100000000E-03 0.  1.
         11   -1    0    0    0    0 -0.00000000000E+00 -0.00000000000E+00 -0.45593999997E+02  0.45594000000E+02  0.51100000000E-03 0. -1.
    9900012    2    1    2    0    0  0.40754277683E+02  0.11785251159E+02 -0.91553640673E+01  0.47787262845E+02  0.19999962616E+02 0.  0.
        -12    1    1    2    0    0 -0.40754277683E+02 -0.11785251159E+02  0.91553640673E+01  0.43400737155E+02  0.00000000000E+00 0.  1.
         11    1    3    3    0    0  0.47698151795E+01  0.76669921651E+01 -0.33304961517E+01  0.96242459749E+01  0.51100000000E-03 0. -1.
        -11    1    3    3    0    0  0.14882562274E+02  0.25188639543E+00 -0.74564026121E+01  0.16647884153E+02  0.51100000000E-03 0.  1.
        -12    1    3    3    0    0  0.21101900230E+02  0.38663725987E+01  0.16315346965E+01  0.21515132718E+02  0.00000000000E+00 0.  1.
</event>
<event>
 7    1  0.1322363E-009  0.4778727E+02  0.7816164E-02  0.1312668E+00
        -11   -1    0    0    0    0  0.00000000000E+00  0.00000000000E+00  0.45593999997E+02  0.45594000000E+02  0.51100000000E-03 0.  1.
         11   -1    0    0    0    0 -0.00000000000E+00 -0.00000000000E+00 -0.45593999997E+02  0.45594000000E+02  0.51100000000E-03 0. -1.
    9900012    2    1    2    0    0  0.37265685048E+02  0.10946498345E+02 -0.19366623541E+02  0.47787271716E+02  0.20000003064E+02 0.  0.
        -12    1    1    2    0    0 -0.37265685048E+02 -0.10946498345E+02  0.19366623541E+02  0.43400728284E+02  0.00000000000E+00 0.  1.
         11    1    3    3    0    0  0.17397262279E+02  0.27813899155E+01 -0.12892838120E+02  0.21831769047E+02  0.51100000000E-03 0. -1.
        -11    1    3    3    0    0  0.44953499624E+01  0.86533643726E+01 -0.27081231650E+01  0.10120415880E+02  0.51100000000E-03 0.  1.
         12    1    3    3    0    0  0.15373072807E+02 -0.48825594276E+00 -0.37656622566E+01  0.15835086790E+02  0.00000000000E+00 0. -1.
</event>
<event>
 7    1  0.1372265E-009  0.4778727E+02  0.7816164E-02  0.1312668E+00
        -11   -1    0    0    0    0  0.00000000000E+00  0.00000000000E+00  0.45593999997E+02  0.45594000000E+02  0.51100000000E-03 0. -1.
         11   -1    0    0    0    0 -0.00000000000E+00 -0.00000000000E+00 -0.45593999997E+02  0.45594000000E+02  0.51100000000E-03 0.  1.
    9900012    2    1    2    0    0  0.30581789699E+02 -0.17061178305E+02  0.25637741792E+02  0.47787268779E+02  0.19999989669E+02 0.  0.
        -12    1    1    2    0    0 -0.30581789699E+02  0.17061178305E+02 -0.25637741792E+02  0.43400731221E+02  0.00000000000E+00 0.  1.
         11    1    3    3    0    0  0.18068260087E+02 -0.11747948794E+02  0.92955162123E+01  0.23470895708E+02  0.51100000000E-03 0. -1.
        -11    1    3    3    0    0  0.16228635371E+01  0.13875224050E+01 -0.13207988588E+01  0.25106601465E+01  0.51100000000E-03 0.  1.
         12    1    3    3    0    0  0.10890666075E+02 -0.67007519167E+01  0.17663024438E+02  0.21805712924E+02  0.00000000000E+00 0. -1.
</event>
<event>
 7    1  0.1322363E-009  0.4778727E+02  0.7816164E-02  0.1312668E+00
        -11   -1    0    0    0    0  0.00000000000E+00  0.00000000000E+00  0.45593999997E+02  0.45594000000E+02  0.51100000000E-03 0.  1.
         11   -1    0    0    0    0 -0.00000000000E+00 -0.00000000000E+00 -0.45593999997E+02  0.45594000000E+02  0.51100000000E-03 0. -1.
    9900012    2    1    2    0    0 -0.88408279622E+01 -0.28843619889E+02 -0.31201101556E+02  0.47787269757E+02  0.19999994128E+02 0.  0.
        -12    1    1    2    0    0  0.88408279622E+01  0.28843619889E+02  0.31201101556E+02  0.43400730243E+02  0.00000000000E+00 0.  1.
         11    1    3    3    0    0  0.30943985112E+01 -0.34155287289E+01 -0.52856830988E+01  0.70128157487E+01  0.51100000000E-03 0. -1.
        -11    1    3    3    0    0 -0.84745896984E+01 -0.10600441120E+02 -0.20557177607E+02  0.24633017963E+02  0.51100000000E-03 0.  1.
         12    1    3    3    0    0 -0.34606367749E+01 -0.14827650040E+02 -0.53582408495E+01  0.16141436045E+02  0.00000000000E+00 0. -1.
</event>
<event>
 7    1  0.1322363E-009  0.4778726E+02  0.7816164E-02  0.1312668E+00
        -11   -1    0    0    0    0  0.00000000000E+00  0.00000000000E+00  0.45593999997E+02  0.45594000000E+02  0.51100000000E-03 0.  1.
         11   -1    0    0    0    0 -0.00000000000E+00 -0.00000000000E+00 -0.45593999997E+02  0.45594000000E+02  0.51100000000E-03 0. -1.
    9900012    2    1    2    0    0 -0.30119225169E+02  0.31230871807E+02  0.10436271140E+01  0.47787259959E+02  0.19999949455E+02 0.  0.
        -12    1    1    2    0    0  0.30119225169E+02 -0.31230871807E+02 -0.10436271140E+01  0.43400740041E+02  0.00000000000E+00 0.  1.
         11    1    3    3    0    0 -0.16406730380E+01  0.87471221770E+01 -0.21269946740E+01  0.91503038748E+01  0.51100000000E-03 0. -1.
        -11    1    3    3    0    0 -0.24018985442E+01 -0.11003284950E+01 -0.16998880053E+01  0.31415694972E+01  0.51100000000E-03 0.  1.
        -12    1    3    3    0    0 -0.26076653587E+02  0.23584078125E+02  0.48705097933E+01  0.35495386587E+02  0.00000000000E+00 0.  1.
</event>
<event>
 7    1  0.1322363E-009  0.4778727E+02  0.7816164E-02  0.1312668E+00
        -11   -1    0    0    0    0  0.00000000000E+00  0.00000000000E+00  0.45593999997E+02  0.45594000000E+02  0.51100000000E-03 0.  1.
         11   -1    0    0    0    0 -0.00000000000E+00 -0.00000000000E+00 -0.45593999997E+02  0.45594000000E+02  0.51100000000E-03 0. -1.
    9900012    2    1    2    0    0 -0.23731000711E+02 -0.18358680701E+02 -0.31359556303E+02  0.47787270475E+02  0.19999997403E+02 0.  0.
        -12    1    1    2    0    0  0.23731000711E+02  0.18358680701E+02  0.31359556303E+02  0.43400729525E+02  0.00000000000E+00 0.  1.
         11    1    3    3    0    0 -0.18712006241E+02 -0.15908351342E+02 -0.18664879270E+02  0.30847893581E+02  0.51100000000E-03 0. -1.
        -11    1    3    3    0    0  0.89261748070E+00 -0.26171962389E+01  0.18030218734E+00  0.27710992872E+01  0.51100000000E-03 0.  1.
         12    1    3    3    0    0 -0.59116119501E+01  0.16686688023E+00 -0.12874979220E+02  0.14168277606E+02  0.00000000000E+00 0. -1.
</event>
<event>
 7    1  0.1322363E-009  0.4778727E+02  0.7816164E-02  0.1312668E+00
        -11   -1    0    0    0    0  0.00000000000E+00  0.00000000000E+00  0.45593999997E+02  0.45594000000E+02  0.51100000000E-03 0.  1.
         11   -1    0    0    0    0 -0.00000000000E+00 -0.00000000000E+00 -0.45593999997E+02  0.45594000000E+02  0.51100000000E-03 0. -1.
    9900012    2    1    2    0    0  0.21509547668E+02  0.26422379023E+02 -0.26885320353E+02  0.47787271842E+02  0.20000003638E+02 0.  0.
        -12    1    1    2    0    0 -0.21509547668E+02 -0.26422379023E+02  0.26885320353E+02  0.43400728158E+02  0.00000000000E+00 0.  1.
         11    1    3    3    0    0  0.16708583591E+02  0.13306820068E+02 -0.23497345301E+02  0.31754896668E+02  0.51100000000E-03 0. -1.
        -11    1    3    3    0    0  0.43031136783E+00 -0.46996263996E+00  0.92535227105E+00  0.11235256307E+01  0.51100000000E-03 0.  1.
         12    1    3    3    0    0  0.43706527091E+01  0.13585521595E+02 -0.43133273232E+01  0.14908849544E+02  0.00000000000E+00 0. -1.
</event>
<event>
 7    1  0.1322363E-009  0.4778727E+02  0.7816164E-02  0.1312668E+00
        -11   -1    0    0    0    0  0.00000000000E+00  0.00000000000E+00  0.45593999997E+02  0.45594000000E+02  0.51100000000E-03 0.  1.
         11   -1    0    0    0    0 -0.00000000000E+00 -0.00000000000E+00 -0.45593999997E+02  0.45594000000E+02  0.51100000000E-03 0. -1.
    9900012    2    1    2    0    0  0.14404799725E+02  0.36348732729E+02 -0.18838658816E+02  0.47787266226E+02  0.19999978031E+02 0.  0.
        -12    1    1    2    0    0 -0.14404799725E+02 -0.36348732729E+02  0.18838658816E+02  0.43400733774E+02  0.00000000000E+00 0.  1.
         11    1    3    3    0    0 -0.64739639208E+00  0.68164526158E+01 -0.86068161165E+01  0.10998201320E+02  0.51100000000E-03 0. -1.
        -11    1    3    3    0    0  0.10524168375E+02  0.26051955670E+02 -0.12358159129E+02  0.30695058423E+02  0.51100000000E-03 0.  1.
         12    1    3    3    0    0  0.45280277420E+01  0.34803244430E+01  0.21263164299E+01  0.60940064835E+01  0.00000000000E+00 0. -1.
</event>
<event>
 7    1  0.1322363E-009  0.4778727E+02  0.7816164E-02  0.1312668E+00
        -11   -1    0    0    0    0  0.00000000000E+00  0.00000000000E+00  0.45593999997E+02  0.45594000000E+02  0.51100000000E-03 0.  1.
         11   -1    0    0    0    0 -0.00000000000E+00 -0.00000000000E+00 -0.45593999997E+02  0.45594000000E+02  0.51100000000E-03 0. -1.
    9900012    2    1    2    0    0  0.46207466988E+01  0.25100497332E+02 -0.35103231423E+02  0.47787272786E+02  0.20000007940E+02 0.  0.
        -12    1    1    2    0    0 -0.46207466988E+01 -0.25100497332E+02  0.35103231423E+02  0.43400727214E+02  0.00000000000E+00 0.  1.
         11    1    3    3    0    0 -0.14120956171E+01 -0.15482001113E+01 -0.43336967715E+01  0.48137164005E+01  0.51100000000E-03 0. -1.
        -11    1    3    3    0    0  0.24216647059E+01  0.12589006785E+02 -0.57551627666E+01  0.14052382379E+02  0.51100000000E-03 0.  1.
        -12    1    3    3    0    0  0.36111776099E+01  0.14059690658E+02 -0.25014371885E+02  0.28921174007E+02  0.00000000000E+00 0.  1.
</event>
<event>
 7    1  0.1322363E-009  0.4778727E+02  0.7816164E-02  0.1312668E+00
        -11   -1    0    0    0    0  0.00000000000E+00  0.00000000000E+00  0.45593999997E+02  0.45594000000E+02  0.51100000000E-03 0. -1.
         11   -1    0    0    0    0 -0.00000000000E+00 -0.00000000000E+00 -0.45593999997E+02  0.45594000000E+02  0.51100000000E-03 0.  1.
    9900012    2    1    2    0    0  0.24513627544E+02  0.20260168765E+02  0.29533557770E+02  0.47787269495E+02  0.19999992937E+02 0.  0.
        -12    1    1    2    0    0 -0.24513627544E+02 -0.20260168765E+02 -0.29533557770E+02  0.43400730505E+02  0.00000000000E+00 0.  1.
         11    1    3    3    0    0  0.44622278186E+01  0.70682018173E+01  0.10242920989E+02  0.13220755828E+02  0.51100000000E-03 0. -1.
        -11    1    3    3    0    0  0.17095941737E+01  0.93875487049E+01  0.38444490465E+01  0.10287301476E+02  0.51100000000E-03 0.  1.
         12    1    3    3    0    0  0.18341805552E+02  0.38044182433E+01  0.15446187735E+02  0.24279212191E+02  0.00000000000E+00 0. -1.
</event>
<event>
 7    1  0.1322363E-009  0.4778727E+02  0.7816164E-02  0.1312668E+00
        -11   -1    0    0    0    0  0.00000000000E+00  0.00000000000E+00  0.45593999997E+02  0.45594000000E+02  0.51100000000E-03 0.  1.
         11   -1    0    0    0    0 -0.00000000000E+00 -0.00000000000E+00 -0.45593999997E+02  0.45594000000E+02  0.51100000000E-03 0. -1.
    9900012    2    1    2    0    0  0.21030814714E+02 -0.68290135801E+01 -0.37345584651E+02  0.47787270894E+02  0.19999999315E+02 0.  0.
        -12    1    1    2    0    0 -0.21030814714E+02  0.68290135801E+01  0.37345584651E+02  0.43400729106E+02  0.00000000000E+00 0.  1.
         11    1    3    3    0    0  0.21268987956E+02 -0.69934841121E+01 -0.21515074429E+02  0.31051201211E+02  0.51100000000E-03 0. -1.
        -11    1    3    3    0    0  0.20059718027E+01 -0.11821599372E+01 -0.10983757353E+02  0.11227838209E+02  0.51100000000E-03 0.  1.
        -12    1    3    3    0    0 -0.22441450451E+01  0.13466304692E+01 -0.48467528685E+01  0.55082314741E+01  0.00000000000E+00 0.  1.
</event>
<event>
 7    1  0.1322363E-009  0.4778727E+02  0.7816164E-02  0.1312668E+00
        -11   -1    0    0    0    0  0.00000000000E+00  0.00000000000E+00  0.45593999997E+02  0.45594000000E+02  0.51100000000E-03 0.  1.
         11   -1    0    0    0    0 -0.00000000000E+00 -0.00000000000E+00 -0.45593999997E+02  0.45594000000E+02  0.51100000000E-03 0. -1.
    9900012    2    1    2    0    0  0.38803024775E+02 -0.19063720726E+02  0.38109228801E+01  0.47787270596E+02  0.19999997953E+02 0.  0.
        -12    1    1    2    0    0 -0.38803024775E+02  0.19063720726E+02 -0.38109228801E+01  0.43400729404E+02  0.00000000000E+00 0.  1.
         11    1    3    3    0    0  0.12390123017E+02 -0.60554409612E+00 -0.32457871690E+01  0.12822517952E+02  0.51100000000E-03 0. -1.
        -11    1    3    3    0    0  0.10984547616E+01 -0.27699976577E+01  0.40552453130E+01  0.50323458443E+01  0.51100000000E-03 0.  1.
         12    1    3    3    0    0  0.25314446997E+02 -0.15688178972E+02  0.30014647361E+01  0.29932406799E+02  0.00000000000E+00 0. -1.
</event>
<event>
 7    1  0.1322363E-009  0.4778727E+02  0.7816164E-02  0.1312668E+00
        -11   -1    0    0    0    0  0.00000000000E+00  0.00000000000E+00  0.45593999997E+02  0.45594000000E+02  0.51100000000E-03 0.  1.
         11   -1    0    0    0    0 -0.00000000000E+00 -0.00000000000E+00 -0.45593999997E+02  0.45594000000E+02  0.51100000000E-03 0. -1.
    9900012    2    1    2    0    0  0.33763841225E+02 -0.12718571767E+02 -0.24121863589E+02  0.47787270224E+02  0.19999996259E+02 0.  0.
        -12    1    1    2    0    0 -0.33763841225E+02  0.12718571767E+02  0.24121863589E+02  0.43400729776E+02  0.00000000000E+00 0.  1.
         11    1    3    3    0    0  0.65525152363E+01 -0.10055061509E+02 -0.65153356094E+01  0.13656109117E+02  0.51100000000E-03 0. -1.
        -11    1    3    3    0    0  0.29161980416E+01 -0.30255033840E+01 -0.56763130365E+01  0.70624649871E+01  0.51100000000E-03 0.  1.
         12    1    3    3    0    0  0.24295127947E+02  0.36199312576E+00 -0.11930214944E+02  0.27068696119E+02  0.00000000000E+00 0. -1.
</event>
<event>
 7    1  0.1322363E-009  0.4778727E+02  0.7816164E-02  0.1312668E+00
        -11   -1    0    0    0    0  0.00000000000E+00  0.00000000000E+00  0.45593999997E+02  0.45594000000E+02  0.51100000000E-03 0. -1.
         11   -1    0    0    0    0 -0.00000000000E+00 -0.00000000000E+00 -0.45593999997E+02  0.45594000000E+02  0.51100000000E-03 0.  1.
    9900012    2    1    2    0    0 -0.12330251444E+02  0.15484386446E+01  0.41583539279E+02  0.47787268418E+02  0.19999988026E+02 0.  0.
        -12    1    1    2    0    0  0.12330251444E+02 -0.15484386446E+01 -0.41583539279E+02  0.43400731582E+02  0.00000000000E+00 0.  1.
         11    1    3    3    0    0 -0.17060654895E+00  0.81891318285E-01  0.15843026140E+02  0.15844156346E+02  0.51100000000E-03 0. -1.
        -11    1    3    3    0    0 -0.57725563366E+01 -0.53055294603E+01  0.52459932894E+01  0.94335303766E+01  0.51100000000E-03 0.  1.
        -12    1    3    3    0    0 -0.63870885582E+01  0.67720767867E+01  0.20494519849E+02  0.22509581696E+02  0.00000000000E+00 0.  1.
</event>
<event>
 7    1  0.1322363E-009  0.4778729E+02  0.7816164E-02  0.1312668E+00
        -11   -1    0    0    0    0  0.00000000000E+00  0.00000000000E+00  0.45593999997E+02  0.45594000000E+02  0.51100000000E-03 0. -1.
         11   -1    0    0    0    0 -0.00000000000E+00 -0.00000000000E+00 -0.45593999997E+02  0.45594000000E+02  0.51100000000E-03 0.  1.
    9900012    2    1    2    0    0  0.40527517601E+02  0.12213616111E+02  0.95900851700E+01  0.47787287621E+02  0.20000075579E+02 0.  0.
        -12    1    1    2    0    0 -0.40527517601E+02 -0.12213616111E+02 -0.95900851700E+01  0.43400712379E+02  0.00000000000E+00 0.  1.
         11    1    3    3    0    0  0.50290729354E+01 -0.19510315812E+01  0.44719829385E+01  0.70069059137E+01  0.51100000000E-03 0.  1.
        -11    1    3    3    0    0  0.19662759061E+02  0.70880474738E+00  0.22906914267E+01  0.19808426630E+02  0.51100000000E-03 0. -1.
        -12    1    3    3    0    0  0.15835685605E+02  0.13455842944E+02  0.28274108049E+01  0.20971955078E+02  0.00000000000E+00 0.  1.
</event>
<event>
 7    1  0.1322363E-009  0.4778728E+02  0.7816164E-02  0.1312668E+00
        -11   -1    0    0    0    0  0.00000000000E+00  0.00000000000E+00  0.45593999997E+02  0.45594000000E+02  0.51100000000E-03 0.  1.
         11   -1    0    0    0    0 -0.00000000000E+00 -0.00000000000E+00 -0.45593999997E+02  0.45594000000E+02  0.51100000000E-03 0. -1.
    9900012    2    1    2    0    0  0.19939972345E+02  0.18887091710E+02 -0.33605031762E+02  0.47787275466E+02  0.20000020159E+02 0.  0.
        -12    1    1    2    0    0 -0.19939972345E+02 -0.18887091710E+02  0.33605031762E+02  0.43400724534E+02  0.00000000000E+00 0.  1.
         11    1    3    3    0    0  0.13238219068E+02  0.11345059181E+02 -0.71377675963E+01  0.18839016387E+02  0.51100000000E-03 0. -1.
        -11    1    3    3    0    0 -0.86692227584E+00  0.11360712864E+01 -0.64905518098E+01  0.66460119814E+01  0.51100000000E-03 0.  1.
        -12    1    3    3    0    0  0.75686755529E+01  0.64059612428E+01 -0.19976712355E+02  0.22302247098E+02  0.00000000000E+00 0.  1.
</event>
<event>
 7    1  0.1322363E-009  0.4778727E+02  0.7816164E-02  0.1312668E+00
        -11   -1    0    0    0    0  0.00000000000E+00  0.00000000000E+00  0.45593999997E+02  0.45594000000E+02  0.51100000000E-03 0. -1.
         11   -1    0    0    0    0 -0.00000000000E+00 -0.00000000000E+00 -0.45593999997E+02  0.45594000000E+02  0.51100000000E-03 0.  1.
    9900012    2    1    2    0    0  0.22036200090E+02 -0.37118697614E+02  0.44979313226E+01  0.47787271744E+02  0.20000003189E+02 0.  0.
        -12    1    1    2    0    0 -0.22036200090E+02  0.37118697614E+02 -0.44979313226E+01  0.43400728256E+02  0.00000000000E+00 0.  1.
         11    1    3    3    0    0  0.44467810838E+01 -0.86932920164E+01  0.17693947905E+01  0.99236055079E+01  0.51100000000E-03 0. -1.
        -11    1    3    3    0    0  0.19611184370E+02 -0.26947250855E+02 -0.10337777863E+01  0.33343988630E+02  0.51100000000E-03 0.  1.
         12    1    3    3    0    0 -0.20217653635E+01 -0.14781547428E+01  0.37623143184E+01  0.45196776057E+01  0.00000000000E+00 0. -1.
</event>
<event>
 7    1  0.1322363E-009  0.4778727E+02  0.7816164E-02  0.1312668E+00
        -11   -1    0    0    0    0  0.00000000000E+00  0.00000000000E+00  0.45593999997E+02  0.45594000000E+02  0.51100000000E-03 0. -1.
         11   -1    0    0    0    0 -0.00000000000E+00 -0.00000000000E+00 -0.45593999997E+02  0.45594000000E+02  0.51100000000E-03 0.  1.
    9900012    2    1    2    0    0 -0.22800343835E+02  0.56987697723E+01  0.36486870379E+02  0.47787269983E+02  0.19999995161E+02 0.  0.
        -12    1    1    2    0    0  0.22800343835E+02 -0.56987697723E+01 -0.36486870379E+02  0.43400730017E+02  0.00000000000E+00 0.  1.
         11    1    3    3    0    0 -0.10246542273E+02  0.38326147534E+01  0.17621669681E+02  0.20741354994E+02  0.51100000000E-03 0. -1.
        -11    1    3    3    0    0 -0.69855333693E+01  0.50999295662E+01  0.18385541574E+01  0.88423548721E+01  0.51100000000E-03 0.  1.
        -12    1    3    3    0    0 -0.55682681930E+01 -0.32337745472E+01  0.17026646541E+02  0.18203560117E+02  0.00000000000E+00 0.  1.
</event>
<event>
 7    1  0.1322363E-009  0.4778726E+02  0.7816164E-02  0.1312668E+00
        -11   -1    0    0    0    0  0.00000000000E+00  0.00000000000E+00  0.45593999997E+02  0.45594000000E+02  0.51100000000E-03 0.  1.
         11   -1    0    0    0    0 -0.00000000000E+00 -0.00000000000E+00 -0.45593999997E+02  0.45594000000E+02  0.51100000000E-03 0. -1.
    9900012    2    1    2    0    0  0.12094819409E+02  0.17125555553E+02 -0.38000721602E+02  0.47787260930E+02  0.19999953885E+02 0.  0.
        -12    1    1    2    0    0 -0.12094819409E+02 -0.17125555553E+02  0.38000721602E+02  0.43400739070E+02  0.00000000000E+00 0.  1.
         11    1    3    3    0    0  0.10122995774E+02  0.15902791465E+02 -0.30639875412E+02  0.35974654763E+02  0.51100000000E-03 0. -1.
        -11    1    3    3    0    0 -0.61946391742E+00  0.37438085456E+01 -0.21085608794E+00  0.38005655529E+01  0.51100000000E-03 0.  1.
        -12    1    3    3    0    0  0.25912875523E+01 -0.25210444580E+01 -0.71499901024E+01  0.80120406141E+01  0.00000000000E+00 0.  1.
</event>
<event>
 7    1  0.1322363E-009  0.4778727E+02  0.7816164E-02  0.1312668E+00
        -11   -1    0    0    0    0  0.00000000000E+00  0.00000000000E+00  0.45593999997E+02  0.45594000000E+02  0.51100000000E-03 0.  1.
         11   -1    0    0    0    0 -0.00000000000E+00 -0.00000000000E+00 -0.45593999997E+02  0.45594000000E+02  0.51100000000E-03 0. -1.
    9900012    2    1    2    0    0 -0.28923416075E+02  0.31326006112E+02 -0.81080618526E+01  0.47787270474E+02  0.19999997400E+02 0.  0.
        -12    1    1    2    0    0  0.28923416075E+02 -0.31326006112E+02  0.81080618526E+01  0.43400729526E+02  0.00000000000E+00 0.  1.
         11    1    3    3    0    0 -0.15446610743E+02  0.27690990153E+02 -0.10577593005E+02  0.33425651723E+02  0.51100000000E-03 0. -1.
        -11    1    3    3    0    0 -0.29263546154E+01  0.33104770042E-01  0.11129866642E+01  0.31310360644E+01  0.51100000000E-03 0.  1.
         12    1    3    3    0    0 -0.10550450716E+02  0.36019111892E+01  0.13565444883E+01  0.11230582686E+02  0.00000000000E+00 0. -1.
</event>
<event>
 7    1  0.1322363E-009  0.4778728E+02  0.7816164E-02  0.1312668E+00
        -11   -1    0    0    0    0  0.00000000000E+00  0.00000000000E+00  0.45593999997E+02  0.45594000000E+02  0.51100000000E-03 0.  1.
         11   -1    0    0    0    0 -0.00000000000E+00 -0.00000000000E+00 -0.45593999997E+02  0.45594000000E+02  0.51100000000E-03 0. -1.
    9900012    2    1    2    0    0 -0.36622960663E+02  0.52267396354E+01 -0.22694995579E+02  0.47787275590E+02  0.20000020727E+02 0.  0.
        -12    1    1    2    0    0  0.36622960663E+02 -0.52267396354E+01  0.22694995579E+02  0.43400724410E+02  0.00000000000E+00 0.  1.
         11    1    3    3    0    0 -0.12880323146E+01  0.46899858603E+00  0.23447526108E+01  0.27160360793E+01  0.51100000000E-03 0. -1.
        -11    1    3    3    0    0 -0.87629479880E+01 -0.11960767247E+01 -0.11925272553E+02  0.14846951966E+02  0.51100000000E-03 0.  1.
         12    1    3    3    0    0 -0.26571980360E+02  0.59538177741E+01 -0.13114475637E+02  0.30224287545E+02  0.00000000000E+00 0. -1.
</event>
<event>
 7    1  0.1322363E-009  0.4778727E+02  0.7816164E-02  0.1312668E+00
        -11   -1    0    0    0    0  0.00000000000E+00  0.00000000000E+00  0.45593999997E+02  0.45594000000E+02  0.51100000000E-03 0. -1.
         11   -1    0    0    0    0 -0.00000000000E+00 -0.00000000000E+00 -0.45593999997E+02  0.45594000000E+02  0.51100000000E-03 0.  1.
    9900012    2    1    2    0    0 -0.84845492154E+01  0.18151346805E+02  0.38498890247E+02  0.47787268250E+02  0.19999987257E+02 0.  0.
        -12    1    1    2    0    0  0.84845492154E+01 -0.18151346805E+02 -0.38498890247E+02  0.43400731750E+02  0.00000000000E+00 0.  1.
         11    1    3    3    0    0 -0.84220981285E+01  0.29129978194E+01  0.16059436077E+02  0.18366349135E+02  0.51100000000E-03 0. -1.
        -11    1    3    3    0    0 -0.56954324472E+01  0.85808512926E+01  0.11721945347E+02  0.15603620178E+02  0.51100000000E-03 0.  1.
        -12    1    3    3    0    0  0.56329813603E+01  0.66574976931E+01  0.10717508822E+02  0.13817298936E+02  0.00000000000E+00 0.  1.
</event>
<event>
 7    1  0.1322363E-009  0.4778726E+02  0.7816164E-02  0.1312668E+00
        -11   -1    0    0    0    0  0.00000000000E+00  0.00000000000E+00  0.45593999997E+02  0.45594000000E+02  0.51100000000E-03 0.  1.
         11   -1    0    0    0    0 -0.00000000000E+00 -0.00000000000E+00 -0.45593999997E+02  0.45594000000E+02  0.51100000000E-03 0. -1.
    9900012    2    1    2    0    0  0.32985719935E+02 -0.25826205107E+02 -0.11339016153E+02  0.47787264095E+02  0.19999968313E+02 0.  0.
        -12    1    1    2    0    0 -0.32985719935E+02  0.25826205107E+02  0.11339016153E+02  0.43400735905E+02  0.00000000000E+00 0.  1.
         11    1    3    3    0    0  0.90915779837E+01 -0.25957543989E+01 -0.35943694090E+01  0.10115049325E+02  0.51100000000E-03 0. -1.
        -11    1    3    3    0    0  0.21846439761E+02 -0.13147795727E+02 -0.12976320928E+01  0.25530673944E+02  0.51100000000E-03 0.  1.
        -12    1    3    3    0    0  0.20477021901E+01 -0.10082654981E+02 -0.64470146507E+01  0.12141540826E+02  0.00000000000E+00 0.  1.
</event>
<event>
 7    1  0.1322363E-009  0.4778727E+02  0.7816164E-02  0.1312668E+00
        -11   -1    0    0    0    0  0.00000000000E+00  0.00000000000E+00  0.45593999997E+02  0.45594000000E+02  0.51100000000E-03 0. -1.
         11   -1    0    0    0    0 -0.00000000000E+00 -0.00000000000E+00 -0.45593999997E+02  0.45594000000E+02  0.51100000000E-03 0.  1.
    9900012    2    1    2    0    0  0.18945816033E+02 -0.30902861926E+02  0.23868229122E+02  0.47787272105E+02  0.20000004836E+02 0.  0.
        -12    1    1    2    0    0 -0.18945816033E+02  0.30902861926E+02 -0.23868229122E+02  0.43400727895E+02  0.00000000000E+00 0.  1.
         11    1    3    3    0    0  0.86982217005E+01 -0.14394878330E+02  0.12679013740E+02  0.21062501575E+02  0.51100000000E-03 0. -1.
        -11    1    3    3    0    0  0.70494834158E+01 -0.24409233939E+00  0.65236475584E+00  0.70838109472E+01  0.51100000000E-03 0.  1.
        -12    1    3    3    0    0  0.31981109172E+01 -0.16263891256E+02  0.10536850626E+02  0.19640959583E+02  0.00000000000E+00 0.  1.
</event>
<event>
 7    1  0.1322363E-009  0.4778728E+02  0.7816164E-02  0.1312668E+00
        -11   -1    0    0    0    0  0.00000000000E+00  0.00000000000E+00  0.45593999997E+02  0.45594000000E+02  0.51100000000E-03 0.  1.
         11   -1    0    0    0    0 -0.00000000000E+00 -0.00000000000E+00 -0.45593999997E+02  0.45594000000E+02  0.51100000000E-03 0. -1.
    9900012    2    1    2    0    0  0.37097993545E+02 -0.69736728165E+01 -0.21417975585E+02  0.47787275170E+02  0.20000018811E+02 0.  0.
        -12    1    1    2    0    0 -0.37097993545E+02  0.69736728165E+01  0.21417975585E+02  0.43400724830E+02  0.00000000000E+00 0.  1.
         11    1    3    3    0    0  0.21441576041E+02  0.55184068729E+01 -0.10386034747E+02  0.24455341248E+02  0.51100000000E-03 0. -1.
        -11    1    3    3    0    0  0.30703229094E+01 -0.47859399399E+01 -0.42017913302E+01  0.70701594409E+01  0.51100000000E-03 0.  1.
        -12    1    3    3    0    0  0.12586094595E+02 -0.77061397495E+01 -0.68301495076E+01  0.16261774481E+02  0.00000000000E+00 0.  1.
</event>
<event>
 7    1  0.1322363E-009  0.4778727E+02  0.7816164E-02  0.1312668E+00
        -11   -1    0    0    0    0  0.00000000000E+00  0.00000000000E+00  0.45593999997E+02  0.45594000000E+02  0.51100000000E-03 0.  1.
         11   -1    0    0    0    0 -0.00000000000E+00 -0.00000000000E+00 -0.45593999997E+02  0.45594000000E+02  0.51100000000E-03 0. -1.
    9900012    2    1    2    0    0 -0.19660820494E+02 -0.15098743442E+02 -0.35624477220E+02  0.47787270822E+02  0.19999998984E+02 0.  0.
        -12    1    1    2    0    0  0.19660820494E+02  0.15098743442E+02  0.35624477220E+02  0.43400729178E+02  0.00000000000E+00 0.  1.
         11    1    3    3    0    0 -0.11650489592E+02  0.11858412375E+01 -0.10551221585E+02  0.15762880586E+02  0.51100000000E-03 0. -1.
        -11    1    3    3    0    0 -0.45983908904E+01 -0.74717566425E+01 -0.56811664843E+01  0.10452176758E+02  0.51100000000E-03 0.  1.
        -12    1    3    3    0    0 -0.34119400110E+01 -0.88128280367E+01 -0.19392089151E+02  0.21572213477E+02  0.00000000000E+00 0.  1.
</event>
<event>
 7    1  0.1322363E-009  0.4778727E+02  0.7816164E-02  0.1312668E+00
        -11   -1    0    0    0    0  0.00000000000E+00  0.00000000000E+00  0.45593999997E+02  0.45594000000E+02  0.51100000000E-03 0.  1.
         11   -1    0    0    0    0 -0.00000000000E+00 -0.00000000000E+00 -0.45593999997E+02  0.45594000000E+02  0.51100000000E-03 0. -1.
    9900012    2    1    2    0    0 -0.84457866878E+00 -0.32571087937E+02 -0.28671133178E+02  0.47787274658E+02  0.20000016476E+02 0.  0.
        -12    1    1    2    0    0  0.84457866878E+00  0.32571087937E+02  0.28671133178E+02  0.43400725342E+02  0.00000000000E+00 0.  1.
         11    1    3    3    0    0  0.72899812998E+01 -0.11232315195E+02 -0.47110167481E+01  0.14195154492E+02  0.51100000000E-03 0.  1.
        -11    1    3    3    0    0 -0.83466096516E+00 -0.60514481986E+01 -0.96260284055E+01  0.11400750298E+02  0.51100000000E-03 0. -1.
        -12    1    3    3    0    0 -0.72998990034E+01 -0.15287324543E+02 -0.14334088024E+02  0.22191369868E+02  0.00000000000E+00 0.  1.
</event>
<event>
 7    1  0.1322363E-009  0.4778727E+02  0.7816164E-02  0.1312668E+00
        -11   -1    0    0    0    0  0.00000000000E+00  0.00000000000E+00  0.45593999997E+02  0.45594000000E+02  0.51100000000E-03 0. -1.
         11   -1    0    0    0    0 -0.00000000000E+00 -0.00000000000E+00 -0.45593999997E+02  0.45594000000E+02  0.51100000000E-03 0.  1.
    9900012    2    1    2    0    0 -0.34082632104E+02  0.25873748446E+02  0.72489031475E+01  0.47787271128E+02  0.20000000383E+02 0.  0.
        -12    1    1    2    0    0  0.34082632104E+02 -0.25873748446E+02 -0.72489031475E+01  0.43400728872E+02  0.00000000000E+00 0.  1.
         11    1    3    3    0    0 -0.10644500264E+02  0.16954630189E+01 -0.45613523182E+01  0.11704098254E+02  0.51100000000E-03 0. -1.
        -11    1    3    3    0    0 -0.31663529109E+01  0.63271025642E+01  0.21134683770E+01  0.73840887356E+01  0.51100000000E-03 0.  1.
        -12    1    3    3    0    0 -0.20271778929E+02  0.17851182863E+02  0.96967870886E+01  0.28699084138E+02  0.00000000000E+00 0.  1.
</event>
<event>
 7    1  0.1322363E-009  0.4778727E+02  0.7816164E-02  0.1312668E+00
        -11   -1    0    0    0    0  0.00000000000E+00  0.00000000000E+00  0.45593999997E+02  0.45594000000E+02  0.51100000000E-03 0.  1.
         11   -1    0    0    0    0 -0.00000000000E+00 -0.00000000000E+00 -0.45593999997E+02  0.45594000000E+02  0.51100000000E-03 0. -1.
    9900012    2    1    2    0    0  0.11311890840E+02  0.19138295619E+02 -0.37274523659E+02  0.47787270195E+02  0.19999996127E+02 0.  0.
        -12    1    1    2    0    0 -0.11311890840E+02 -0.19138295619E+02  0.37274523659E+02  0.43400729805E+02  0.00000000000E+00 0.  1.
         11    1    3    3    0    0 -0.35810713293E+01  0.65260817246E+01 -0.12655248142E+02  0.14682272315E+02  0.51100000000E-03 0. -1.
        -11    1    3    3    0    0  0.68651081856E+01  0.27493922361E+01 -0.16325882349E+02  0.17922703557E+02  0.51100000000E-03 0.  1.
         12    1    3    3    0    0  0.80278539834E+01  0.98628216586E+01 -0.82933931685E+01  0.15182294322E+02  0.00000000000E+00 0. -1.
</event>
<event>
 7    1  0.1322363E-009  0.4778727E+02  0.7816164E-02  0.1312668E+00
        -11   -1    0    0    0    0  0.00000000000E+00  0.00000000000E+00  0.45593999997E+02  0.45594000000E+02  0.51100000000E-03 0.  1.
         11   -1    0    0    0    0 -0.00000000000E+00 -0.00000000000E+00 -0.45593999997E+02  0.45594000000E+02  0.51100000000E-03 0. -1.
    9900012    2    1    2    0    0  0.23840787455E+01  0.74721282670E+01 -0.42686141159E+02  0.47787272133E+02  0.20000004963E+02 0.  0.
        -12    1    1    2    0    0 -0.23840787455E+01 -0.74721282670E+01  0.42686141159E+02  0.43400727867E+02  0.00000000000E+00 0.  1.
         11    1    3    3    0    0 -0.47727671278E+01  0.81772265290E+00 -0.14813868424E+02  0.15585206907E+02  0.51100000000E-03 0. -1.
        -11    1    3    3    0    0  0.61738037240E+01 -0.24779809661E+01 -0.87840234997E+01  0.11018861611E+02  0.51100000000E-03 0.  1.
         12    1    3    3    0    0  0.98304214929E+00  0.91323865802E+01 -0.19088249235E+02  0.21183203615E+02  0.00000000000E+00 0. -1.
</event>
<event>
 7    1  0.1322363E-009  0.4778727E+02  0.7816164E-02  0.1312668E+00
        -11   -1    0    0    0    0  0.00000000000E+00  0.00000000000E+00  0.45593999997E+02  0.45594000000E+02  0.51100000000E-03 0.  1.
         11   -1    0    0    0    0 -0.00000000000E+00 -0.00000000000E+00 -0.45593999997E+02  0.45594000000E+02  0.51100000000E-03 0. -1.
    9900012    2    1    2    0    0  0.16560572034E+02  0.34151376739E+02 -0.21048852949E+02  0.47787270862E+02  0.19999999167E+02 0.  0.
        -12    1    1    2    0    0 -0.16560572034E+02 -0.34151376739E+02  0.21048852949E+02  0.43400729138E+02  0.00000000000E+00 0.  1.
         11    1    3    3    0    0  0.47077459661E+01  0.20505098622E+01 -0.49329390509E+00  0.51585658776E+01  0.51100000000E-03 0. -1.
        -11    1    3    3    0    0 -0.16572319790E+01  0.16434562239E+02 -0.72999015241E+01  0.18059064659E+02  0.51100000000E-03 0.  1.
        -12    1    3    3    0    0  0.13510058047E+02  0.15666304638E+02 -0.13255657519E+02  0.24569640326E+02  0.00000000000E+00 0.  1.
</event>
<event>
 7    1  0.1322363E-009  0.4778727E+02  0.7816164E-02  0.1312668E+00
        -11   -1    0    0    0    0  0.00000000000E+00  0.00000000000E+00  0.45593999997E+02  0.45594000000E+02  0.51100000000E-03 0.  1.
         11   -1    0    0    0    0 -0.00000000000E+00 -0.00000000000E+00 -0.45593999997E+02  0.45594000000E+02  0.51100000000E-03 0. -1.
    9900012    2    1    2    0    0 -0.28956234042E+02 -0.19646349078E+02 -0.25674516263E+02  0.47787270659E+02  0.19999998243E+02 0.  0.
        -12    1    1    2    0    0  0.28956234042E+02  0.19646349078E+02  0.25674516263E+02  0.43400729341E+02  0.00000000000E+00 0.  1.
         11    1    3    3    0    0 -0.10325632713E+02 -0.96836473417E+01 -0.16441848494E+02  0.21696223149E+02  0.51100000000E-03 0. -1.
        -11    1    3    3    0    0 -0.27771973057E+01  0.25508339247E+01  0.24909515557E+00  0.37791040266E+01  0.51100000000E-03 0.  1.
         12    1    3    3    0    0 -0.15853404024E+02 -0.12513535661E+02 -0.94817629244E+01  0.22311943484E+02  0.00000000000E+00 0. -1.
</event>
<event>
 7    1  0.1322363E-009  0.4778727E+02  0.7816164E-02  0.1312668E+00
        -11   -1    0    0    0    0  0.00000000000E+00  0.00000000000E+00  0.45593999997E+02  0.45594000000E+02  0.51100000000E-03 0.  1.
         11   -1    0    0    0    0 -0.00000000000E+00 -0.00000000000E+00 -0.45593999997E+02  0.45594000000E+02  0.51100000000E-03 0. -1.
    9900012    2    1    2    0    0  0.22112886099E+02  0.32040075816E+02 -0.19185328032E+02  0.47787274181E+02  0.20000014301E+02 0.  0.
        -12    1    1    2    0    0 -0.22112886099E+02 -0.32040075816E+02  0.19185328032E+02  0.43400725819E+02  0.00000000000E+00 0.  1.
         11    1    3    3    0    0  0.10349728318E+02  0.22403332243E+02 -0.47331313929E+01  0.25128245162E+02  0.51100000000E-03 0. -1.
        -11    1    3    3    0    0  0.28051683525E-01  0.46751261811E+01 -0.32509099976E+01  0.56943838806E+01  0.51100000000E-03 0.  1.
        -12    1    3    3    0    0  0.11735106097E+02  0.49616173915E+01 -0.11201286641E+02  0.16964645139E+02  0.00000000000E+00 0.  1.
</event>
<event>
 7    1  0.1322363E-009  0.4778727E+02  0.7816164E-02  0.1312668E+00
        -11   -1    0    0    0    0  0.00000000000E+00  0.00000000000E+00  0.45593999997E+02  0.45594000000E+02  0.51100000000E-03 0.  1.
         11   -1    0    0    0    0 -0.00000000000E+00 -0.00000000000E+00 -0.45593999997E+02  0.45594000000E+02  0.51100000000E-03 0. -1.
    9900012    2    1    2    0    0 -0.89895504731E+01  0.10684946793E+02 -0.41093108370E+02  0.47787266582E+02  0.19999979655E+02 0.  0.
        -12    1    1    2    0    0  0.89895504731E+01 -0.10684946793E+02  0.41093108370E+02  0.43400733418E+02  0.00000000000E+00 0.  1.
         11    1    3    3    0    0  0.68095397293E+00  0.48446676396E+01 -0.14148915284E+02  0.14970848567E+02  0.51100000000E-03 0. -1.
        -11    1    3    3    0    0 -0.80688620729E+01  0.73316411768E+01 -0.74613052632E+01  0.13211002005E+02  0.51100000000E-03 0.  1.
        -12    1    3    3    0    0 -0.16016423732E+01 -0.14913620235E+01 -0.19482887823E+02  0.19605416009E+02  0.00000000000E+00 0.  1.
</event>
<event>
 7    1  0.1322363E-009  0.4778727E+02  0.7816164E-02  0.1312668E+00
        -11   -1    0    0    0    0  0.00000000000E+00  0.00000000000E+00  0.45593999997E+02  0.45594000000E+02  0.51100000000E-03 0.  1.
         11   -1    0    0    0    0 -0.00000000000E+00 -0.00000000000E+00 -0.45593999997E+02  0.45594000000E+02  0.51100000000E-03 0. -1.
    9900012    2    1    2    0    0  0.32130942905E+02 -0.18414191658E+02  0.22630591321E+02  0.47787267173E+02  0.19999982347E+02 0.  0.
        -12    1    1    2    0    0 -0.32130942905E+02  0.18414191658E+02 -0.22630591321E+02  0.43400732827E+02  0.00000000000E+00 0.  1.
         11    1    3    3    0    0  0.16521860560E+02 -0.49780326092E+01  0.64888651771E+01  0.18435239531E+02  0.51100000000E-03 0. -1.
        -11    1    3    3    0    0  0.14463660697E+02 -0.12314281593E+02  0.18489846578E+02  0.26508742684E+02  0.51100000000E-03 0.  1.
        -12    1    3    3    0    0  0.11454216476E+01 -0.11218774558E+01 -0.23481204342E+01  0.28432849576E+01  0.00000000000E+00 0.  1.
</event>
<event>
 7    1  0.1346921E-009  0.4778726E+02  0.7816164E-02  0.1312668E+00
        -11   -1    0    0    0    0  0.00000000000E+00  0.00000000000E+00  0.45593999997E+02  0.45594000000E+02  0.51100000000E-03 0.  1.
         11   -1    0    0    0    0 -0.00000000000E+00 -0.00000000000E+00 -0.45593999997E+02  0.45594000000E+02  0.51100000000E-03 0. -1.
    9900012    2    1    2    0    0 -0.12221243418E+02 -0.41597778869E+02 -0.19724664590E+01  0.47787255520E+02  0.19999929217E+02 0.  0.
        -12    1    1    2    0    0  0.12221243418E+02  0.41597778869E+02  0.19724664590E+01  0.43400744480E+02  0.00000000000E+00 0.  1.
         11    1    3    3    0    0 -0.51709814212E+01 -0.12691069115E+02 -0.64032618214E+01  0.15126270074E+02  0.51100000000E-03 0. -1.
        -11    1    3    3    0    0 -0.13860232183E+01 -0.29929040743E+01  0.51614647323E+01  0.61252962053E+01  0.51100000000E-03 0.  1.
         12    1    3    3    0    0 -0.56642387788E+01 -0.25913805679E+02 -0.73066936987E+00  0.26535689240E+02  0.00000000000E+00 0. -1.
</event>
<event>
 7    1  0.1322363E-009  0.4778727E+02  0.7816164E-02  0.1312668E+00
        -11   -1    0    0    0    0  0.00000000000E+00  0.00000000000E+00  0.45593999997E+02  0.45594000000E+02  0.51100000000E-03 0.  1.
         11   -1    0    0    0    0 -0.00000000000E+00 -0.00000000000E+00 -0.45593999997E+02  0.45594000000E+02  0.51100000000E-03 0. -1.
    9900012    2    1    2    0    0  0.28068671998E+02  0.33014305082E+02  0.24141763244E+01  0.47787274947E+02  0.20000017795E+02 0.  0.
        -12    1    1    2    0    0 -0.28068671998E+02 -0.33014305082E+02 -0.24141763244E+01  0.43400725053E+02  0.00000000000E+00 0.  1.
         11    1    3    3    0    0  0.23789141425E+01  0.60328570657E+01 -0.59227522714E+01  0.87825731765E+01  0.51100000000E-03 0.  1.
        -11    1    3    3    0    0  0.73678310443E+01  0.13415842909E+02  0.33926143827E+01  0.15677359723E+02  0.51100000000E-03 0. -1.
        -12    1    3    3    0    0  0.18321926811E+02  0.13565605107E+02  0.49443142130E+01  0.23327342048E+02  0.00000000000E+00 0.  1.
</event>
<event>
 7    1  0.1322363E-009  0.4778728E+02  0.7816164E-02  0.1312668E+00
        -11   -1    0    0    0    0  0.00000000000E+00  0.00000000000E+00  0.45593999997E+02  0.45594000000E+02  0.51100000000E-03 0. -1.
         11   -1    0    0    0    0 -0.00000000000E+00 -0.00000000000E+00 -0.45593999997E+02  0.45594000000E+02  0.51100000000E-03 0.  1.
    9900012    2    1    2    0    0  0.96753208209E+01 -0.42064237636E+02 -0.45399119489E+01  0.47787277410E+02  0.20000029022E+02 0.  0.
        -12    1    1    2    0    0 -0.96753208209E+01  0.42064237636E+02  0.45399119489E+01  0.43400722590E+02  0.00000000000E+00 0.  1.
         11    1    3    3    0    0  0.12395129742E+02 -0.34077281215E+02 -0.56236514281E+01  0.36695037702E+02  0.51100000000E-03 0. -1.
        -11    1    3    3    0    0 -0.16580050814E+01 -0.49780025540E+01 -0.28946395316E+01  0.59923641876E+01  0.51100000000E-03 0.  1.
         12    1    3    3    0    0 -0.10618038400E+01 -0.30089538669E+01  0.39783790107E+01  0.50998755201E+01  0.00000000000E+00 0. -1.
</event>
<event>
 7    1  0.1322363E-009  0.4778726E+02  0.7816164E-02  0.1312668E+00
        -11   -1    0    0    0    0  0.00000000000E+00  0.00000000000E+00  0.45593999997E+02  0.45594000000E+02  0.51100000000E-03 0. -1.
         11   -1    0    0    0    0 -0.00000000000E+00 -0.00000000000E+00 -0.45593999997E+02  0.45594000000E+02  0.51100000000E-03 0.  1.
    9900012    2    1    2    0    0 -0.13550242034E+02  0.10933311786E+02 -0.39755219975E+02  0.47787264050E+02  0.19999968109E+02 0.  0.
        -12    1    1    2    0    0  0.13550242034E+02 -0.10933311786E+02  0.39755219975E+02  0.43400735950E+02  0.00000000000E+00 0.  1.
         11    1    3    3    0    0 -0.50471152582E+01  0.76007425668E+01 -0.13543530007E+02  0.16330090793E+02  0.51100000000E-03 0. -1.
        -11    1    3    3    0    0 -0.12382527680E+01  0.78969977985E+01 -0.79170251924E+01  0.11250561422E+02  0.51100000000E-03 0.  1.
        -12    1    3    3    0    0 -0.72648740081E+01 -0.45644285796E+01 -0.18294664775E+02  0.20206611835E+02  0.00000000000E+00 0.  1.
</event>
<event>
 7    1  0.1322363E-009  0.4778727E+02  0.7816164E-02  0.1312668E+00
        -11   -1    0    0    0    0  0.00000000000E+00  0.00000000000E+00  0.45593999997E+02  0.45594000000E+02  0.51100000000E-03 0.  1.
         11   -1    0    0    0    0 -0.00000000000E+00 -0.00000000000E+00 -0.45593999997E+02  0.45594000000E+02  0.51100000000E-03 0. -1.
    9900012    2    1    2    0    0  0.96120421305E+01  0.39899795863E+02 -0.14115180163E+02  0.47787269881E+02  0.19999994697E+02 0.  0.
        -12    1    1    2    0    0 -0.96120421305E+01 -0.39899795863E+02  0.14115180163E+02  0.43400730119E+02  0.00000000000E+00 0.  1.
         11    1    3    3    0    0  0.40454669293E+01  0.10536401464E+02 -0.82135046292E+01  0.13958625184E+02  0.51100000000E-03 0. -1.
        -11    1    3    3    0    0  0.73407758760E+01  0.29282238435E+02 -0.28822860903E+01  0.30325633573E+02  0.51100000000E-03 0.  1.
        -12    1    3    3    0    0 -0.17742006748E+01  0.81155963904E-01 -0.30193894436E+01  0.35030111243E+01  0.00000000000E+00 0.  1.
</event>
<event>
 7    1  0.1322363E-009  0.4778727E+02  0.7816164E-02  0.1312668E+00
        -11   -1    0    0    0    0  0.00000000000E+00  0.00000000000E+00  0.45593999997E+02  0.45594000000E+02  0.51100000000E-03 0.  1.
         11   -1    0    0    0    0 -0.00000000000E+00 -0.00000000000E+00 -0.45593999997E+02  0.45594000000E+02  0.51100000000E-03 0. -1.
    9900012    2    1    2    0    0  0.26041350041E+02  0.33500405917E+02  0.91210917756E+01  0.47787269317E+02  0.19999992126E+02 0.  0.
        -12    1    1    2    0    0 -0.26041350041E+02 -0.33500405917E+02 -0.91210917756E+01  0.43400730683E+02  0.00000000000E+00 0.  1.
         11    1    3    3    0    0  0.21406046633E+02  0.27520774351E+02  0.29357705728E+01  0.34989006880E+02  0.51100000000E-03 0. -1.
        -11    1    3    3    0    0  0.23105372064E+01 -0.49873859313E+00 -0.12436077167E+01  0.26709329420E+01  0.51100000000E-03 0.  1.
        -12    1    3    3    0    0  0.23247662020E+01  0.64783701598E+01  0.74289289196E+01  0.10127329496E+02  0.00000000000E+00 0.  1.
</event>
<event>
 7    1  0.1322363E-009  0.4778727E+02  0.7816164E-02  0.1312668E+00
        -11   -1    0    0    0    0  0.00000000000E+00  0.00000000000E+00  0.45593999997E+02  0.45594000000E+02  0.51100000000E-03 0. -1.
         11   -1    0    0    0    0 -0.00000000000E+00 -0.00000000000E+00 -0.45593999997E+02  0.45594000000E+02  0.51100000000E-03 0.  1.
    9900012    2    1    2    0    0  0.20821824839E+02 -0.37041424028E+02  0.88321933902E+01  0.47787272774E+02  0.20000007886E+02 0.  0.
        -12    1    1    2    0    0 -0.20821824839E+02  0.37041424028E+02 -0.88321933902E+01  0.43400727226E+02  0.00000000000E+00 0.  1.
         11    1    3    3    0    0  0.11071325537E+02 -0.14777293645E+02 -0.15503711230E+01  0.18529606242E+02  0.51100000000E-03 0. -1.
        -11    1    3    3    0    0 -0.17702585265E+01  0.33445120284E+00 -0.11553098437E+00  0.18052757482E+01  0.51100000000E-03 0.  1.
        -12    1    3    3    0    0  0.11520757828E+02 -0.22598581586E+02  0.10498095498E+02  0.27452390783E+02  0.00000000000E+00 0.  1.
</event>
<event>
 7    1  0.1322363E-009  0.4778727E+02  0.7816164E-02  0.1312668E+00
        -11   -1    0    0    0    0  0.00000000000E+00  0.00000000000E+00  0.45593999997E+02  0.45594000000E+02  0.51100000000E-03 0. -1.
         11   -1    0    0    0    0 -0.00000000000E+00 -0.00000000000E+00 -0.45593999997E+02  0.45594000000E+02  0.51100000000E-03 0.  1.
    9900012    2    1    2    0    0 -0.26039810711E+02 -0.13972429611E+02  0.31785575019E+02  0.47787270624E+02  0.19999998084E+02 0.  0.
        -12    1    1    2    0    0  0.26039810711E+02  0.13972429611E+02 -0.31785575019E+02  0.43400729376E+02  0.00000000000E+00 0.  1.
         11    1    3    3    0    0 -0.13765361206E+02 -0.49655517032E+01  0.23241775107E+02  0.27464922779E+02  0.51100000000E-03 0. -1.
        -11    1    3    3    0    0 -0.12431464409E+02 -0.10896591337E+02  0.74391064378E+01  0.18127805024E+02  0.51100000000E-03 0.  1.
         12    1    3    3    0    0  0.15701490478E+00  0.18897134294E+01  0.11046934737E+01  0.21945428217E+01  0.00000000000E+00 0. -1.
</event>
<event>
 7    1  0.1322363E-009  0.4778727E+02  0.7816164E-02  0.1312668E+00
        -11   -1    0    0    0    0  0.00000000000E+00  0.00000000000E+00  0.45593999997E+02  0.45594000000E+02  0.51100000000E-03 0.  1.
         11   -1    0    0    0    0 -0.00000000000E+00 -0.00000000000E+00 -0.45593999997E+02  0.45594000000E+02  0.51100000000E-03 0. -1.
    9900012    2    1    2    0    0  0.26703745748E+02  0.24443009390E+02 -0.23938931607E+02  0.47787271993E+02  0.20000004324E+02 0.  0.
        -12    1    1    2    0    0 -0.26703745748E+02 -0.24443009390E+02  0.23938931607E+02  0.43400728007E+02  0.00000000000E+00 0.  1.
         11    1    3    3    0    0  0.33166097948E+00 -0.97845595088E+00 -0.29372766822E+01  0.31136746173E+01  0.51100000000E-03 0. -1.
        -11    1    3    3    0    0  0.82135287183E+01  0.10122912469E+02 -0.15587573777E+02  0.20320134531E+02  0.51100000000E-03 0.  1.
         12    1    3    3    0    0  0.18158556050E+02  0.15298552872E+02 -0.54140811482E+01  0.24353462844E+02  0.00000000000E+00 0. -1.
</event>
<event>
 7    1  0.1322363E-009  0.4778727E+02  0.7816164E-02  0.1312668E+00
        -11   -1    0    0    0    0  0.00000000000E+00  0.00000000000E+00  0.45593999997E+02  0.45594000000E+02  0.51100000000E-03 0.  1.
         11   -1    0    0    0    0 -0.00000000000E+00 -0.00000000000E+00 -0.45593999997E+02  0.45594000000E+02  0.51100000000E-03 0. -1.
    9900012    2    1    2    0    0  0.51673672661E+00 -0.39521200947E+02 -0.17928489357E+02  0.47787273372E+02  0.20000010615E+02 0.  0.
        -12    1    1    2    0    0 -0.51673672661E+00  0.39521200947E+02  0.17928489357E+02  0.43400726628E+02  0.00000000000E+00 0.  1.
         11    1    3    3    0    0 -0.20429067197E+01 -0.26187822735E+02 -0.17656224131E+02  0.31649925408E+02  0.51100000000E-03 0. -1.
        -11    1    3    3    0    0  0.73278431165E+00 -0.74575504641E+01 -0.44356867643E+01  0.87078900489E+01  0.51100000000E-03 0.  1.
        -12    1    3    3    0    0  0.18268591347E+01 -0.58758277481E+01  0.41634215381E+01  0.74294579161E+01  0.00000000000E+00 0.  1.
</event>
<event>
 7    1  0.1322363E-009  0.4778727E+02  0.7816164E-02  0.1312668E+00
        -11   -1    0    0    0    0  0.00000000000E+00  0.00000000000E+00  0.45593999997E+02  0.45594000000E+02  0.51100000000E-03 0.  1.
         11   -1    0    0    0    0 -0.00000000000E+00 -0.00000000000E+00 -0.45593999997E+02  0.45594000000E+02  0.51100000000E-03 0. -1.
    9900012    2    1    2    0    0  0.13987486590E+02 -0.16002601228E+02 -0.37840328752E+02  0.47787268356E+02  0.19999987742E+02 0.  0.
        -12    1    1    2    0    0 -0.13987486590E+02  0.16002601228E+02  0.37840328752E+02  0.43400731644E+02  0.00000000000E+00 0.  1.
         11    1    3    3    0    0 -0.28302740824E+01 -0.72762762475E+00 -0.97140951743E+00  0.30795340643E+01  0.51100000000E-03 0. -1.
        -11    1    3    3    0    0  0.13534410983E+02 -0.76809314431E+01 -0.16293414078E+02  0.22531141362E+02  0.51100000000E-03 0.  1.
         12    1    3    3    0    0  0.32833496886E+01 -0.75940421604E+01 -0.20575505157E+02  0.22176592930E+02  0.00000000000E+00 0. -1.
</event>
<event>
 7    1  0.1322363E-009  0.4778727E+02  0.7816164E-02  0.1312668E+00
        -11   -1    0    0    0    0  0.00000000000E+00  0.00000000000E+00  0.45593999997E+02  0.45594000000E+02  0.51100000000E-03 0.  1.
         11   -1    0    0    0    0 -0.00000000000E+00 -0.00000000000E+00 -0.45593999997E+02  0.45594000000E+02  0.51100000000E-03 0. -1.
    9900012    2    1    2    0    0  0.13093032459E+02  0.26677762082E+02 -0.31630570130E+02  0.47787268953E+02  0.19999990465E+02 0.  0.
        -12    1    1    2    0    0 -0.13093032459E+02 -0.26677762082E+02  0.31630570130E+02  0.43400731047E+02  0.00000000000E+00 0.  1.
         11    1    3    3    0    0  0.11751765584E+02  0.40210389033E+01 -0.15577780910E+02  0.19923353295E+02  0.51100000000E-03 0. -1.
        -11    1    3    3    0    0 -0.43358886130E+00  0.68673185457E+01 -0.45772210916E+01  0.82643219015E+01  0.51100000000E-03 0.  1.
         12    1    3    3    0    0  0.17748557368E+01  0.15789404633E+02 -0.11475568129E+02  0.19599593756E+02  0.00000000000E+00 0. -1.
</event>
<event>
 7    1  0.1322363E-009  0.4778727E+02  0.7816164E-02  0.1312668E+00
        -11   -1    0    0    0    0  0.00000000000E+00  0.00000000000E+00  0.45593999997E+02  0.45594000000E+02  0.51100000000E-03 0. -1.
         11   -1    0    0    0    0 -0.00000000000E+00 -0.00000000000E+00 -0.45593999997E+02  0.45594000000E+02  0.51100000000E-03 0.  1.
    9900012    2    1    2    0    0 -0.48630964334E+01 -0.43118953390E+02 -0.85398759795E+00  0.47787272551E+02  0.20000006867E+02 0.  0.
        -12    1    1    2    0    0  0.48630964334E+01  0.43118953390E+02  0.85398759795E+00  0.43400727449E+02  0.00000000000E+00 0.  1.
         11    1    3    3    0    0 -0.80394394029E+01 -0.22403862731E+02  0.36821341845E+01  0.24085758523E+02  0.51100000000E-03 0. -1.
        -11    1    3    3    0    0  0.25469428004E+01 -0.82932480558E+00  0.12861943774E+01  0.29713622295E+01  0.51100000000E-03 0.  1.
         12    1    3    3    0    0  0.62940016918E+00 -0.19885765853E+02 -0.58223161598E+01  0.20730151798E+02  0.00000000000E+00 0. -1.
</event>
<event>
 7    1  0.1322363E-009  0.4778727E+02  0.7816164E-02  0.1312668E+00
        -11   -1    0    0    0    0  0.00000000000E+00  0.00000000000E+00  0.45593999997E+02  0.45594000000E+02  0.51100000000E-03 0. -1.
         11   -1    0    0    0    0 -0.00000000000E+00 -0.00000000000E+00 -0.45593999997E+02  0.45594000000E+02  0.51100000000E-03 0.  1.
    9900012    2    1    2    0    0  0.17376699425E+02  0.23034029063E+02  0.32420783225E+02  0.47787270021E+02  0.19999995335E+02 0.  0.
        -12    1    1    2    0    0 -0.17376699425E+02 -0.23034029063E+02 -0.32420783225E+02  0.43400729979E+02  0.00000000000E+00 0.  1.
         11    1    3    3    0    0  0.54809796429E+01  0.88912058249E+01  0.14733111530E+02  0.18059879692E+02  0.51100000000E-03 0. -1.
        -11    1    3    3    0    0 -0.33503402870E+01  0.20422398879E+01  0.90502535872E+00  0.40267350248E+01  0.51100000000E-03 0.  1.
         12    1    3    3    0    0  0.15246060069E+02  0.12100583351E+02  0.16782646336E+02  0.25700655305E+02  0.00000000000E+00 0. -1.
</event>
<event>
 7    1  0.1322363E-009  0.4778727E+02  0.7816164E-02  0.1312668E+00
        -11   -1    0    0    0    0  0.00000000000E+00  0.00000000000E+00  0.45593999997E+02  0.45594000000E+02  0.51100000000E-03 0.  1.
         11   -1    0    0    0    0 -0.00000000000E+00 -0.00000000000E+00 -0.45593999997E+02  0.45594000000E+02  0.51100000000E-03 0. -1.
    9900012    2    1    2    0    0  0.98052791282E+01  0.42246627241E+02  0.16438363326E+01  0.47787271781E+02  0.20000003358E+02 0.  0.
        -12    1    1    2    0    0 -0.98052791282E+01 -0.42246627241E+02 -0.16438363326E+01  0.43400728219E+02  0.00000000000E+00 0.  1.
         11    1    3    3    0    0 -0.11586286279E+00  0.35573444246E+01 -0.62019931204E+00  0.36128618858E+01  0.51100000000E-03 0. -1.
        -11    1    3    3    0    0 -0.15588660260E+01 -0.15250785734E+01  0.81600842833E+00  0.23284754579E+01  0.51100000000E-03 0.  1.
         12    1    3    3    0    0  0.11480008017E+02  0.40214361390E+02  0.14480272163E+01  0.41845934437E+02  0.00000000000E+00 0. -1.
</event>
<event>
 7    1  0.1322363E-009  0.4778728E+02  0.7816164E-02  0.1312668E+00
        -11   -1    0    0    0    0  0.00000000000E+00  0.00000000000E+00  0.45593999997E+02  0.45594000000E+02  0.51100000000E-03 0. -1.
         11   -1    0    0    0    0 -0.00000000000E+00 -0.00000000000E+00 -0.45593999997E+02  0.45594000000E+02  0.51100000000E-03 0.  1.
    9900012    2    1    2    0    0  0.28265877385E+02 -0.14304596279E+02  0.29665493303E+02  0.47787276597E+02  0.20000025315E+02 0.  0.
        -12    1    1    2    0    0 -0.28265877385E+02  0.14304596279E+02 -0.29665493303E+02  0.43400723403E+02  0.00000000000E+00 0.  1.
         11    1    3    3    0    0  0.82078113337E+01 -0.74833289264E+01  0.87238513407E+01  0.14123525098E+02  0.51100000000E-03 0. -1.
        -11    1    3    3    0    0 -0.98847130929E+00 -0.43723699264E+01  0.10562104028E+01  0.46054614295E+01  0.51100000000E-03 0.  1.
         12    1    3    3    0    0  0.21046537360E+02 -0.24488974266E+01  0.19885431559E+02  0.29058290069E+02  0.00000000000E+00 0. -1.
</event>
<event>
 7    1  0.1322363E-009  0.4778727E+02  0.7816164E-02  0.1312668E+00
        -11   -1    0    0    0    0  0.00000000000E+00  0.00000000000E+00  0.45593999997E+02  0.45594000000E+02  0.51100000000E-03 0.  1.
         11   -1    0    0    0    0 -0.00000000000E+00 -0.00000000000E+00 -0.45593999997E+02  0.45594000000E+02  0.51100000000E-03 0. -1.
    9900012    2    1    2    0    0 -0.13416041149E+02  0.18521704833E+02 -0.36886035251E+02  0.47787270668E+02  0.19999998283E+02 0.  0.
        -12    1    1    2    0    0  0.13416041149E+02 -0.18521704833E+02  0.36886035251E+02  0.43400729332E+02  0.00000000000E+00 0.  1.
         11    1    3    3    0    0 -0.53268756965E+01  0.10489871928E+02 -0.16333166957E+02  0.20129216598E+02  0.51100000000E-03 0. -1.
        -11    1    3    3    0    0 -0.29499002003E+00  0.46510724531E+01 -0.18278237223E+02  0.18863018060E+02  0.51100000000E-03 0.  1.
        -12    1    3    3    0    0 -0.77941754323E+01  0.33807604528E+01 -0.22746310705E+01  0.87950360099E+01  0.00000000000E+00 0.  1.
</event>
<event>
 7    1  0.1322363E-009  0.4778727E+02  0.7816164E-02  0.1312668E+00
        -11   -1    0    0    0    0  0.00000000000E+00  0.00000000000E+00  0.45593999997E+02  0.45594000000E+02  0.51100000000E-03 0.  1.
         11   -1    0    0    0    0 -0.00000000000E+00 -0.00000000000E+00 -0.45593999997E+02  0.45594000000E+02  0.51100000000E-03 0. -1.
    9900012    2    1    2    0    0  0.97348538530E+01  0.23171072219E+02 -0.35383006050E+02  0.47787273226E+02  0.20000009949E+02 0.  0.
        -12    1    1    2    0    0 -0.97348538530E+01 -0.23171072219E+02  0.35383006050E+02  0.43400726774E+02  0.00000000000E+00 0.  1.
         11    1    3    3    0    0  0.11046339186E+02  0.11280542625E+02 -0.23503798555E+02  0.28314321432E+02  0.51100000000E-03 0. -1.
        -11    1    3    3    0    0 -0.50356768082E+00 -0.87822075207E+00  0.92556305186E+00  0.13716848481E+01  0.51100000000E-03 0.  1.
        -12    1    3    3    0    0 -0.80791765217E+00  0.12768750346E+02 -0.12804770547E+02  0.18101266947E+02  0.00000000000E+00 0.  1.
</event>
<event>
 7    1  0.1975919E-009  0.4778726E+02  0.7816164E-02  0.1312668E+00
        -11   -1    0    0    0    0  0.00000000000E+00  0.00000000000E+00  0.45593999997E+02  0.45594000000E+02  0.51100000000E-03 0. -1.
         11   -1    0    0    0    0 -0.00000000000E+00 -0.00000000000E+00 -0.45593999997E+02  0.45594000000E+02  0.51100000000E-03 0.  1.
    9900012    2    1    2    0    0 -0.24724157753E+02  0.25745580238E+01  0.35576839286E+02  0.47787264762E+02  0.19999971356E+02 0.  0.
        -12    1    1    2    0    0  0.24724157753E+02 -0.25745580238E+01 -0.35576839286E+02  0.43400735238E+02  0.00000000000E+00 0.  1.
         11    1    3    3    0    0 -0.24316899456E+02 -0.25572998382E+01  0.32809339432E+02  0.40918261642E+02  0.51100000000E-03 0. -1.
        -11    1    3    3    0    0  0.93220225794E+00  0.69457714254E-01 -0.23447694177E-01  0.93508046673E+00  0.51100000000E-03 0.  1.
         12    1    3    3    0    0 -0.13394605544E+01  0.50624001477E+01  0.27909475484E+01  0.59339226529E+01  0.00000000000E+00 0. -1.
</event>
<event>
 7    1  0.1322363E-009  0.4778727E+02  0.7816164E-02  0.1312668E+00
        -11   -1    0    0    0    0  0.00000000000E+00  0.00000000000E+00  0.45593999997E+02  0.45594000000E+02  0.51100000000E-03 0.  1.
         11   -1    0    0    0    0 -0.00000000000E+00 -0.00000000000E+00 -0.45593999997E+02  0.45594000000E+02  0.51100000000E-03 0. -1.
    9900012    2    1    2    0    0  0.30699164675E+02 -0.99424224494E+01 -0.29022972842E+02  0.47787269263E+02  0.19999991877E+02 0.  0.
        -12    1    1    2    0    0 -0.30699164675E+02  0.99424224494E+01  0.29022972842E+02  0.43400730737E+02  0.00000000000E+00 0.  1.
         11    1    3    3    0    0  0.56864841253E+01 -0.37265835629E+01 -0.25203528958E+01  0.72509106834E+01  0.51100000000E-03 0. -1.
        -11    1    3    3    0    0  0.98534401658E+01  0.74747295363E+00 -0.20588248939E+02  0.22836921718E+02  0.51100000000E-03 0.  1.
        -12    1    3    3    0    0  0.15159240384E+02 -0.69633118401E+01 -0.59143710077E+01  0.17699436862E+02  0.00000000000E+00 0.  1.
</event>
<event>
 7    1  0.1322363E-009  0.4778727E+02  0.7816164E-02  0.1312668E+00
        -11   -1    0    0    0    0  0.00000000000E+00  0.00000000000E+00  0.45593999997E+02  0.45594000000E+02  0.51100000000E-03 0. -1.
         11   -1    0    0    0    0 -0.00000000000E+00 -0.00000000000E+00 -0.45593999997E+02  0.45594000000E+02  0.51100000000E-03 0.  1.
    9900012    2    1    2    0    0 -0.15555069664E+02  0.19573014789E+02  0.35476197267E+02  0.47787266450E+02  0.19999979050E+02 0.  0.
        -12    1    1    2    0    0  0.15555069664E+02 -0.19573014789E+02 -0.35476197267E+02  0.43400733550E+02  0.00000000000E+00 0.  1.
         11    1    3    3    0    0 -0.12475639246E+02  0.43458818937E+01  0.83150726459E+01  0.15609891012E+02  0.51100000000E-03 0.  1.
        -11    1    3    3    0    0  0.14402975135E+01  0.10935761995E+01  0.64533714143E+01  0.67019675248E+01  0.51100000000E-03 0. -1.
         12    1    3    3    0    0 -0.45197279312E+01  0.14133556696E+02  0.20707753207E+02  0.25475407913E+02  0.00000000000E+00 0. -1.
</event>
<event>
 7    1  0.1322363E-009  0.4778727E+02  0.7816164E-02  0.1312668E+00
        -11   -1    0    0    0    0  0.00000000000E+00  0.00000000000E+00  0.45593999997E+02  0.45594000000E+02  0.51100000000E-03 0.  1.
         11   -1    0    0    0    0 -0.00000000000E+00 -0.00000000000E+00 -0.45593999997E+02  0.45594000000E+02  0.51100000000E-03 0. -1.
    9900012    2    1    2    0    0  0.30762823666E+02 -0.21751635726E+02 -0.21543872200E+02  0.47787269522E+02  0.19999993056E+02 0.  0.
        -12    1    1    2    0    0 -0.30762823666E+02  0.21751635726E+02  0.21543872200E+02  0.43400730478E+02  0.00000000000E+00 0.  1.
         11    1    3    3    0    0  0.15166421771E+02 -0.70494640195E+01 -0.18148593767E+02  0.24679682905E+02  0.51100000000E-03 0. -1.
        -11    1    3    3    0    0  0.28747907198E+01 -0.76639085573E+01 -0.24224285960E+01  0.85362800224E+01  0.51100000000E-03 0.  1.
        -12    1    3    3    0    0  0.12721611176E+02 -0.70382631492E+01 -0.97284983743E+00  0.14571306595E+02  0.00000000000E+00 0.  1.
</event>
<event>
 7    1  0.1322363E-009  0.4778728E+02  0.7816164E-02  0.1312668E+00
        -11   -1    0    0    0    0  0.00000000000E+00  0.00000000000E+00  0.45593999997E+02  0.45594000000E+02  0.51100000000E-03 0.  1.
         11   -1    0    0    0    0 -0.00000000000E+00 -0.00000000000E+00 -0.45593999997E+02  0.45594000000E+02  0.51100000000E-03 0. -1.
    9900012    2    1    2    0    0 -0.27201228289E+02 -0.10003736522E+02 -0.32305435716E+02  0.47787277176E+02  0.20000027957E+02 0.  0.
        -12    1    1    2    0    0  0.27201228289E+02  0.10003736522E+02  0.32305435716E+02  0.43400722824E+02  0.00000000000E+00 0.  1.
         11    1    3    3    0    0 -0.92976252814E+01 -0.66268544432E+01 -0.14354609087E+02  0.18341642183E+02  0.51100000000E-03 0. -1.
        -11    1    3    3    0    0 -0.11444965277E+02 -0.46176304943E+01 -0.24154984628E+01  0.12575546694E+02  0.51100000000E-03 0.  1.
        -12    1    3    3    0    0 -0.64586377307E+01  0.12407484153E+01 -0.15535328166E+02  0.16870088299E+02  0.00000000000E+00 0.  1.
</event>
<event>
 7    1  0.1322363E-009  0.4778727E+02  0.7816164E-02  0.1312668E+00
        -11   -1    0    0    0    0  0.00000000000E+00  0.00000000000E+00  0.45593999997E+02  0.45594000000E+02  0.51100000000E-03 0.  1.
         11   -1    0    0    0    0 -0.00000000000E+00 -0.00000000000E+00 -0.45593999997E+02  0.45594000000E+02  0.51100000000E-03 0. -1.
    9900012    2    1    2    0    0 -0.19049609770E+02  0.36001038183E+02 -0.14988689937E+02  0.47787271795E+02  0.20000003423E+02 0.  0.
        -12    1    1    2    0    0  0.19049609770E+02 -0.36001038183E+02  0.14988689937E+02  0.43400728205E+02  0.00000000000E+00 0.  1.
         11    1    3    3    0    0 -0.93121760579E+01  0.22668486056E+02 -0.13967411631E+02  0.28207542802E+02  0.51100000000E-03 0. -1.
        -11    1    3    3    0    0 -0.97440105429E+01  0.14986097780E+02 -0.66220227666E+00  0.17887632047E+02  0.51100000000E-03 0.  1.
        -12    1    3    3    0    0  0.65768306114E-02 -0.16535456525E+01 -0.35907602964E+00  0.16920969460E+01  0.00000000000E+00 0.  1.
</event>
<event>
 7    1  0.1322363E-009  0.4778728E+02  0.7816164E-02  0.1312668E+00
        -11   -1    0    0    0    0  0.00000000000E+00  0.00000000000E+00  0.45593999997E+02  0.45594000000E+02  0.51100000000E-03 0. -1.
         11   -1    0    0    0    0 -0.00000000000E+00 -0.00000000000E+00 -0.45593999997E+02  0.45594000000E+02  0.51100000000E-03 0.  1.
    9900012    2    1    2    0    0  0.20495098071E+02 -0.26257815448E+02 -0.27822670766E+02  0.47787275057E+02  0.20000018294E+02 0.  0.
        -12    1    1    2    0    0 -0.20495098071E+02  0.26257815448E+02  0.27822670766E+02  0.43400724943E+02  0.00000000000E+00 0.  1.
         11    1    3    3    0    0  0.31032929633E+01 -0.10049541956E+02 -0.73102742589E+01  0.12808740404E+02  0.51100000000E-03 0. -1.
        -11    1    3    3    0    0  0.12487624448E+02 -0.12984235250E+02 -0.54624530561E+01  0.18824705125E+02  0.51100000000E-03 0.  1.
        -12    1    3    3    0    0  0.49041806597E+01 -0.32240382420E+01 -0.15049943451E+02  0.16153829528E+02  0.00000000000E+00 0.  1.
</event>
<event>
 7    1  0.1322363E-009  0.4778727E+02  0.7816164E-02  0.1312668E+00
        -11   -1    0    0    0    0  0.00000000000E+00  0.00000000000E+00  0.45593999997E+02  0.45594000000E+02  0.51100000000E-03 0.  1.
         11   -1    0    0    0    0 -0.00000000000E+00 -0.00000000000E+00 -0.45593999997E+02  0.45594000000E+02  0.51100000000E-03 0. -1.
    9900012    2    1    2    0    0 -0.98642122569E+01 -0.40233466012E+02 -0.12945607663E+02  0.47787271567E+02  0.20000002382E+02 0.  0.
        -12    1    1    2    0    0  0.98642122569E+01  0.40233466012E+02  0.12945607663E+02  0.43400728433E+02  0.00000000000E+00 0.  1.
         11    1    3    3    0    0  0.11246735886E+01 -0.58919641268E+01 -0.75510732512E+00  0.60456860062E+01  0.51100000000E-03 0. -1.
        -11    1    3    3    0    0  0.27997643553E+01 -0.20325790448E+01  0.18357146195E+01  0.39166192621E+01  0.51100000000E-03 0.  1.
         12    1    3    3    0    0 -0.13788650201E+02 -0.32308922840E+02 -0.14026214957E+02  0.37824966299E+02  0.00000000000E+00 0. -1.
</event>
<event>
 7    1  0.1322363E-009  0.4778727E+02  0.7816164E-02  0.1312668E+00
        -11   -1    0    0    0    0  0.00000000000E+00  0.00000000000E+00  0.45593999997E+02  0.45594000000E+02  0.51100000000E-03 0.  1.
         11   -1    0    0    0    0 -0.00000000000E+00 -0.00000000000E+00 -0.45593999997E+02  0.45594000000E+02  0.51100000000E-03 0. -1.
    9900012    2    1    2    0    0 -0.34115436268E+02 -0.24021639348E+02 -0.11946606090E+02  0.47787267912E+02  0.19999985716E+02 0.  0.
        -12    1    1    2    0    0  0.34115436268E+02  0.24021639348E+02  0.11946606090E+02  0.43400732088E+02  0.00000000000E+00 0.  1.
         11    1    3    3    0    0  0.55408557765E-02 -0.49788893160E+01 -0.28073039006E+01  0.57157960927E+01  0.51100000000E-03 0. -1.
        -11    1    3    3    0    0 -0.11688259830E+02 -0.30332761700E+01  0.21930136923E+01  0.12272957732E+02  0.51100000000E-03 0.  1.
         12    1    3    3    0    0 -0.22432717294E+02 -0.16009473862E+02 -0.11332315882E+02  0.29798514087E+02  0.00000000000E+00 0. -1.
</event>
<event>
 7    1  0.1322363E-009  0.4778726E+02  0.7816164E-02  0.1312668E+00
        -11   -1    0    0    0    0  0.00000000000E+00  0.00000000000E+00  0.45593999997E+02  0.45594000000E+02  0.51100000000E-03 0.  1.
         11   -1    0    0    0    0 -0.00000000000E+00 -0.00000000000E+00 -0.45593999997E+02  0.45594000000E+02  0.51100000000E-03 0. -1.
    9900012    2    1    2    0    0 -0.30626921434E+02 -0.19023328856E+02 -0.24160474207E+02  0.47787264163E+02  0.19999968623E+02 0.  0.
        -12    1    1    2    0    0  0.30626921434E+02  0.19023328856E+02  0.24160474207E+02  0.43400735837E+02  0.00000000000E+00 0.  1.
         11    1    3    3    0    0 -0.16077589000E+02 -0.12695359057E+02 -0.73080184177E+01  0.21750129726E+02  0.51100000000E-03 0. -1.
        -11    1    3    3    0    0 -0.15570379529E+02 -0.54311892231E+01 -0.17887471250E+02  0.24328916191E+02  0.51100000000E-03 0.  1.
         12    1    3    3    0    0  0.10210470948E+01 -0.89678057534E+00  0.10350154605E+01  0.17082182453E+01  0.00000000000E+00 0. -1.
</event>
<event>
 7    1  0.1322363E-009  0.4778727E+02  0.7816164E-02  0.1312668E+00
        -11   -1    0    0    0    0  0.00000000000E+00  0.00000000000E+00  0.45593999997E+02  0.45594000000E+02  0.51100000000E-03 0.  1.
         11   -1    0    0    0    0 -0.00000000000E+00 -0.00000000000E+00 -0.45593999997E+02  0.45594000000E+02  0.51100000000E-03 0. -1.
    9900012    2    1    2    0    0  0.14529767715E+02 -0.17574160317E+02 -0.36927741349E+02  0.47787270261E+02  0.19999996429E+02 0.  0.
        -12    1    1    2    0    0 -0.14529767715E+02  0.17574160317E+02  0.36927741349E+02  0.43400729739E+02  0.00000000000E+00 0.  1.
         11    1    3    3    0    0  0.49597426351E+01 -0.12412932489E+02 -0.16027164626E+02  0.20869833401E+02  0.51100000000E-03 0. -1.
        -11    1    3    3    0    0  0.77900969960E+00  0.67290283203E+00 -0.14584150389E+02  0.14620434233E+02  0.51100000000E-03 0.  1.
         12    1    3    3    0    0  0.87910153803E+01 -0.58341306604E+01 -0.63164263350E+01  0.12297002628E+02  0.00000000000E+00 0. -1.
</event>
<event>
 7    1  0.1322363E-009  0.4778727E+02  0.7816164E-02  0.1312668E+00
        -11   -1    0    0    0    0  0.00000000000E+00  0.00000000000E+00  0.45593999997E+02  0.45594000000E+02  0.51100000000E-03 0.  1.
         11   -1    0    0    0    0 -0.00000000000E+00 -0.00000000000E+00 -0.45593999997E+02  0.45594000000E+02  0.51100000000E-03 0. -1.
    9900012    2    1    2    0    0 -0.41798408615E+02  0.37079628874E+01 -0.11080045462E+02  0.47787270065E+02  0.19999995533E+02 0.  0.
        -12    1    1    2    0    0  0.41798408615E+02 -0.37079628874E+01  0.11080045462E+02  0.43400729935E+02  0.00000000000E+00 0.  1.
         11    1    3    3    0    0 -0.17405297966E+02 -0.17092929984E+01 -0.11255361610E+02  0.20797818277E+02  0.51100000000E-03 0. -1.
        -11    1    3    3    0    0 -0.24101273371E+02  0.43282129807E+01 -0.19699605013E+01  0.24565942896E+02  0.51100000000E-03 0.  1.
        -12    1    3    3    0    0 -0.29183727745E+00  0.10890429052E+01  0.21452766497E+01  0.24235088920E+01  0.00000000000E+00 0.  1.
</event>
<event>
 7    1  0.1322363E-009  0.4778727E+02  0.7816164E-02  0.1312668E+00
        -11   -1    0    0    0    0  0.00000000000E+00  0.00000000000E+00  0.45593999997E+02  0.45594000000E+02  0.51100000000E-03 0. -1.
         11   -1    0    0    0    0 -0.00000000000E+00 -0.00000000000E+00 -0.45593999997E+02  0.45594000000E+02  0.51100000000E-03 0.  1.
    9900012    2    1    2    0    0 -0.24810918402E+02 -0.35522411033E+02  0.24899873566E+01  0.47787269654E+02  0.19999993661E+02 0.  0.
        -12    1    1    2    0    0  0.24810918402E+02  0.35522411033E+02 -0.24899873566E+01  0.43400730346E+02  0.00000000000E+00 0.  1.
         11    1    3    3    0    0 -0.81194973794E+01 -0.71700615503E+01  0.60478749621E+01  0.12406160250E+02  0.51100000000E-03 0. -1.
        -11    1    3    3    0    0  0.26363087319E+00 -0.39443243684E+01 -0.40478788979E+01  0.56579607452E+01  0.51100000000E-03 0.  1.
         12    1    3    3    0    0 -0.16955051895E+02 -0.24408025114E+02  0.48999129246E+00  0.29723148659E+02  0.00000000000E+00 0. -1.
</event>
<event>
 7    1  0.1322363E-009  0.4778727E+02  0.7816164E-02  0.1312668E+00
        -11   -1    0    0    0    0  0.00000000000E+00  0.00000000000E+00  0.45593999997E+02  0.45594000000E+02  0.51100000000E-03 0.  1.
         11   -1    0    0    0    0 -0.00000000000E+00 -0.00000000000E+00 -0.45593999997E+02  0.45594000000E+02  0.51100000000E-03 0. -1.
    9900012    2    1    2    0    0  0.41807632765E+02  0.27830062342E+01 -0.11313704408E+02  0.47787272028E+02  0.20000004483E+02 0.  0.
        -12    1    1    2    0    0 -0.41807632765E+02 -0.27830062342E+01  0.11313704408E+02  0.43400727972E+02  0.00000000000E+00 0.  1.
         11    1    3    3    0    0  0.20858225307E+01 -0.18140494663E+01 -0.25247176162E+01  0.37437455039E+01  0.51100000000E-03 0. -1.
        -11    1    3    3    0    0  0.82061997593E+01 -0.54564149269E+01 -0.39250779948E+01  0.10607564087E+02  0.51100000000E-03 0.  1.
        -12    1    3    3    0    0  0.31515610475E+02  0.10053470627E+02 -0.48639087974E+01  0.33435962436E+02  0.00000000000E+00 0.  1.
</event>
<event>
 7    1  0.1322363E-009  0.4778729E+02  0.7816164E-02  0.1312668E+00
        -11   -1    0    0    0    0  0.00000000000E+00  0.00000000000E+00  0.45593999997E+02  0.45594000000E+02  0.51100000000E-03 0.  1.
         11   -1    0    0    0    0 -0.00000000000E+00 -0.00000000000E+00 -0.45593999997E+02  0.45594000000E+02  0.51100000000E-03 0. -1.
    9900012    2    1    2    0    0 -0.18694918492E+02 -0.29700767011E+02 -0.25534017079E+02  0.47787290712E+02  0.20000089673E+02 0.  0.
        -12    1    1    2    0    0  0.18694918492E+02  0.29700767011E+02  0.25534017079E+02  0.43400709288E+02  0.00000000000E+00 0.  1.
         11    1    3    3    0    0 -0.79007497724E+01 -0.11494952475E+02 -0.14902727972E+02  0.20411934760E+02  0.51100000000E-03 0. -1.
        -11    1    3    3    0    0 -0.26087566195E+01 -0.65891206054E+01 -0.11085608625E+02  0.13157235284E+02  0.51100000000E-03 0.  1.
         12    1    3    3    0    0 -0.81854121001E+01 -0.11616693931E+02  0.45431951802E+00  0.14218120669E+02  0.00000000000E+00 0. -1.
</event>
<event>
 7    1  0.1322363E-009  0.4778727E+02  0.7816164E-02  0.1312668E+00
        -11   -1    0    0    0    0  0.00000000000E+00  0.00000000000E+00  0.45593999997E+02  0.45594000000E+02  0.51100000000E-03 0.  1.
         11   -1    0    0    0    0 -0.00000000000E+00 -0.00000000000E+00 -0.45593999997E+02  0.45594000000E+02  0.51100000000E-03 0. -1.
    9900012    2    1    2    0    0  0.36930177202E+02 -0.19335347516E+02 -0.12080145645E+02  0.47787267627E+02  0.19999984418E+02 0.  0.
        -12    1    1    2    0    0 -0.36930177202E+02  0.19335347516E+02  0.12080145645E+02  0.43400732373E+02  0.00000000000E+00 0.  1.
         11    1    3    3    0    0  0.12988705714E+02 -0.12844386549E+02 -0.62870408787E+01  0.19318685908E+02  0.51100000000E-03 0. -1.
        -11    1    3    3    0    0  0.62066325389E+00 -0.14870442052E-02  0.27341215385E+01  0.28036843500E+01  0.51100000000E-03 0.  1.
         12    1    3    3    0    0  0.23320808234E+02 -0.64894739220E+01 -0.85272263046E+01  0.25664897369E+02  0.00000000000E+00 0. -1.
</event>
<event>
 7    1  0.1322363E-009  0.4778727E+02  0.7816164E-02  0.1312668E+00
        -11   -1    0    0    0    0  0.00000000000E+00  0.00000000000E+00  0.45593999997E+02  0.45594000000E+02  0.51100000000E-03 0. -1.
         11   -1    0    0    0    0 -0.00000000000E+00 -0.00000000000E+00 -0.45593999997E+02  0.45594000000E+02  0.51100000000E-03 0.  1.
    9900012    2    1    2    0    0 -0.10908949537E+02 -0.10500918069E+02  0.40673687322E+02  0.47787270735E+02  0.19999998591E+02 0.  0.
        -12    1    1    2    0    0  0.10908949537E+02  0.10500918069E+02 -0.40673687322E+02  0.43400729265E+02  0.00000000000E+00 0.  1.
         11    1    3    3    0    0 -0.99047956077E+00  0.20412678829E+01  0.44669274309E+01  0.50101162925E+01  0.51100000000E-03 0. -1.
        -11    1    3    3    0    0 -0.62309025758E+01 -0.15294331794E+02  0.33719505204E+02  0.37546581248E+02  0.51100000000E-03 0.  1.
        -12    1    3    3    0    0 -0.36875674007E+01  0.27521458421E+01  0.24872546873E+01  0.52305731952E+01  0.00000000000E+00 0.  1.
</event>
<event>
 7    1  0.1322363E-009  0.4778727E+02  0.7816164E-02  0.1312668E+00
        -11   -1    0    0    0    0  0.00000000000E+00  0.00000000000E+00  0.45593999997E+02  0.45594000000E+02  0.51100000000E-03 0. -1.
         11   -1    0    0    0    0 -0.00000000000E+00 -0.00000000000E+00 -0.45593999997E+02  0.45594000000E+02  0.51100000000E-03 0.  1.
    9900012    2    1    2    0    0 -0.25409033892E+02  0.21165801655E+02  0.28107175417E+02  0.47787268751E+02  0.19999989541E+02 0.  0.
        -12    1    1    2    0    0  0.25409033892E+02 -0.21165801655E+02 -0.28107175417E+02  0.43400731249E+02  0.00000000000E+00 0.  1.
         11    1    3    3    0    0 -0.20184994331E+02  0.18130219188E+02  0.29757437517E+02  0.40269640324E+02  0.51100000000E-03 0. -1.
        -11    1    3    3    0    0 -0.30778174569E+01 -0.55466421975E+00 -0.40595524544E+00  0.31536348262E+01  0.51100000000E-03 0.  1.
        -12    1    3    3    0    0 -0.21462221046E+01  0.35902466872E+01 -0.12443068549E+01  0.43639936006E+01  0.00000000000E+00 0.  1.
</event>
<event>
 7    1  0.1322363E-009  0.4778728E+02  0.7816164E-02  0.1312668E+00
        -11   -1    0    0    0    0  0.00000000000E+00  0.00000000000E+00  0.45593999997E+02  0.45594000000E+02  0.51100000000E-03 0. -1.
         11   -1    0    0    0    0 -0.00000000000E+00 -0.00000000000E+00 -0.45593999997E+02  0.45594000000E+02  0.51100000000E-03 0.  1.
    9900012    2    1    2    0    0  0.30885230517E+02  0.15433943944E+02  0.26296741643E+02  0.47787277531E+02  0.20000029577E+02 0.  0.
        -12    1    1    2    0    0 -0.30885230517E+02 -0.15433943944E+02 -0.26296741643E+02  0.43400722469E+02  0.00000000000E+00 0.  1.
         11    1    3    3    0    0  0.20692472213E+01  0.81195124150E+01  0.35178725985E+01  0.90875570865E+01  0.51100000000E-03 0. -1.
        -11    1    3    3    0    0  0.19579687562E+02  0.93042747484E+01  0.17614961360E+02  0.27932428423E+02  0.51100000000E-03 0.  1.
        -12    1    3    3    0    0  0.92362957340E+01 -0.19898432192E+01  0.51639076845E+01  0.10767292022E+02  0.00000000000E+00 0.  1.
</event>
<event>
 7    1  0.1322363E-009  0.4778727E+02  0.7816164E-02  0.1312668E+00
        -11   -1    0    0    0    0  0.00000000000E+00  0.00000000000E+00  0.45593999997E+02  0.45594000000E+02  0.51100000000E-03 0. -1.
         11   -1    0    0    0    0 -0.00000000000E+00 -0.00000000000E+00 -0.45593999997E+02  0.45594000000E+02  0.51100000000E-03 0.  1.
    9900012    2    1    2    0    0  0.95299234394E+00  0.43334005852E+02  0.22088848733E+01  0.47787269247E+02  0.19999991803E+02 0.  0.
        -12    1    1    2    0    0 -0.95299234394E+00 -0.43334005852E+02 -0.22088848733E+01  0.43400730753E+02  0.00000000000E+00 0.  1.
         11    1    3    3    0    0  0.34841110127E+00  0.16657428229E+02  0.53971035433E+01  0.17513424348E+02  0.51100000000E-03 0. -1.
        -11    1    3    3    0    0 -0.61114779952E+01  0.69457495397E+01 -0.13630965771E+01  0.93515577576E+01  0.51100000000E-03 0.  1.
        -12    1    3    3    0    0  0.67160592379E+01  0.19730828083E+02 -0.18251220929E+01  0.20922287141E+02  0.00000000000E+00 0.  1.
</event>
<event>
 7    1  0.1322363E-009  0.4778727E+02  0.7816164E-02  0.1312668E+00
        -11   -1    0    0    0    0  0.00000000000E+00  0.00000000000E+00  0.45593999997E+02  0.45594000000E+02  0.51100000000E-03 0.  1.
         11   -1    0    0    0    0 -0.00000000000E+00 -0.00000000000E+00 -0.45593999997E+02  0.45594000000E+02  0.51100000000E-03 0. -1.
    9900012    2    1    2    0    0 -0.40912334192E+02  0.91568209516E+01 -0.11223063609E+02  0.47787267106E+02  0.19999982044E+02 0.  0.
        -12    1    1    2    0    0  0.40912334192E+02 -0.91568209516E+01  0.11223063609E+02  0.43400732894E+02  0.00000000000E+00 0.  1.
         11    1    3    3    0    0 -0.25792553797E+02 -0.30269184253E+01 -0.75663656992E+01  0.27049361484E+02  0.51100000000E-03 0. -1.
        -11    1    3    3    0    0 -0.40506350308E+01  0.34898087192E+01 -0.39697923975E+01  0.66592537862E+01  0.51100000000E-03 0.  1.
         12    1    3    3    0    0 -0.11069145363E+02  0.86939306576E+01  0.31309448768E+00  0.14078651836E+02  0.00000000000E+00 0. -1.
</event>
<event>
 7    1  0.1322363E-009  0.4778727E+02  0.7816164E-02  0.1312668E+00
        -11   -1    0    0    0    0  0.00000000000E+00  0.00000000000E+00  0.45593999997E+02  0.45594000000E+02  0.51100000000E-03 0. -1.
         11   -1    0    0    0    0 -0.00000000000E+00 -0.00000000000E+00 -0.45593999997E+02  0.45594000000E+02  0.51100000000E-03 0.  1.
    9900012    2    1    2    0    0 -0.35673589300E+02 -0.24179348373E+02  0.51358906012E+01  0.47787271509E+02  0.20000002116E+02 0.  0.
        -12    1    1    2    0    0  0.35673589300E+02  0.24179348373E+02 -0.51358906012E+01  0.43400728491E+02  0.00000000000E+00 0.  1.
         11    1    3    3    0    0 -0.23742012811E+02 -0.16768999288E+02  0.15210467307E+01  0.29106633142E+02  0.51100000000E-03 0. -1.
        -11    1    3    3    0    0 -0.10625291465E+02  0.14181788376E+00  0.15134702874E+01  0.10733476771E+02  0.51100000000E-03 0.  1.
         12    1    3    3    0    0 -0.13062850247E+01 -0.75521669692E+01  0.21013735831E+01  0.79471615960E+01  0.00000000000E+00 0. -1.
</event>
<event>
 7    1  0.1322363E-009  0.4778727E+02  0.7816164E-02  0.1312668E+00
        -11   -1    0    0    0    0  0.00000000000E+00  0.00000000000E+00  0.45593999997E+02  0.45594000000E+02  0.51100000000E-03 0. -1.
         11   -1    0    0    0    0 -0.00000000000E+00 -0.00000000000E+00 -0.45593999997E+02  0.45594000000E+02  0.51100000000E-03 0.  1.
    9900012    2    1    2    0    0  0.18091314782E+02 -0.15609119993E+02  0.36230962475E+02  0.47787274898E+02  0.20000017571E+02 0.  0.
        -12    1    1    2    0    0 -0.18091314782E+02  0.15609119993E+02 -0.36230962475E+02  0.43400725102E+02  0.00000000000E+00 0.  1.
         11    1    3    3    0    0  0.13243678234E+02 -0.12089741177E+02  0.22528920833E+02  0.28794255140E+02  0.51100000000E-03 0. -1.
        -11    1    3    3    0    0 -0.34808423002E+00 -0.58535396100E+01  0.23984793719E+01  0.63354393814E+01  0.51100000000E-03 0.  1.
        -12    1    3    3    0    0  0.51957207782E+01  0.23341607939E+01  0.11303562270E+02  0.12657580377E+02  0.00000000000E+00 0.  1.
</event>
<event>
 7    1  0.1322363E-009  0.4778727E+02  0.7816164E-02  0.1312668E+00
        -11   -1    0    0    0    0  0.00000000000E+00  0.00000000000E+00  0.45593999997E+02  0.45594000000E+02  0.51100000000E-03 0.  1.
         11   -1    0    0    0    0 -0.00000000000E+00 -0.00000000000E+00 -0.45593999997E+02  0.45594000000E+02  0.51100000000E-03 0. -1.
    9900012    2    1    2    0    0  0.21731898902E+01  0.43284918666E+02 -0.23056814662E+01  0.47787272988E+02  0.20000008860E+02 0.  0.
        -12    1    1    2    0    0 -0.21731898902E+01 -0.43284918666E+02  0.23056814662E+01  0.43400727012E+02  0.00000000000E+00 0.  1.
         11    1    3    3    0    0  0.18587943432E+01  0.16143231074E+02  0.73929626116E+01  0.17852588674E+02  0.51100000000E-03 0. -1.
        -11    1    3    3    0    0 -0.17033813397E+01  0.28480113175E+01 -0.34122347402E+01  0.47598343076E+01  0.51100000000E-03 0.  1.
         12    1    3    3    0    0  0.20177768867E+01  0.24293676274E+02 -0.62864093377E+01  0.25174850006E+02  0.00000000000E+00 0. -1.
</event>
<event>
 7    1  0.1322363E-009  0.4778729E+02  0.7816164E-02  0.1312668E+00
        -11   -1    0    0    0    0  0.00000000000E+00  0.00000000000E+00  0.45593999997E+02  0.45594000000E+02  0.51100000000E-03 0.  1.
         11   -1    0    0    0    0 -0.00000000000E+00 -0.00000000000E+00 -0.45593999997E+02  0.45594000000E+02  0.51100000000E-03 0. -1.
    9900012    2    1    2    0    0  0.31179377898E+01 -0.11682065736E+02 -0.41682488265E+02  0.47787285445E+02  0.20000065656E+02 0.  0.
        -12    1    1    2    0    0 -0.31179377898E+01  0.11682065736E+02  0.41682488265E+02  0.43400714555E+02  0.00000000000E+00 0.  1.
         11    1    3    3    0    0  0.32174774580E+01 -0.75203733018E+01 -0.59716618516E+01  0.10127631575E+02  0.51100000000E-03 0.  1.
        -11    1    3    3    0    0 -0.41109536368E+01  0.90950101577E+00 -0.65200345858E+01  0.77613132370E+01  0.51100000000E-03 0. -1.
         12    1    3    3    0    0  0.40114139686E+01 -0.50711934497E+01 -0.29190791828E+02  0.29898340632E+02  0.00000000000E+00 0. -1.
</event>
<event>
 7    1  0.1322363E-009  0.4778727E+02  0.7816164E-02  0.1312668E+00
        -11   -1    0    0    0    0  0.00000000000E+00  0.00000000000E+00  0.45593999997E+02  0.45594000000E+02  0.51100000000E-03 0.  1.
         11   -1    0    0    0    0 -0.00000000000E+00 -0.00000000000E+00 -0.45593999997E+02  0.45594000000E+02  0.51100000000E-03 0. -1.
    9900012    2    1    2    0    0 -0.27305265056E+02 -0.30840727329E+02 -0.13670970562E+02  0.47787269613E+02  0.19999993475E+02 0.  0.
        -12    1    1    2    0    0  0.27305265056E+02  0.30840727329E+02  0.13670970562E+02  0.43400730387E+02  0.00000000000E+00 0.  1.
         11    1    3    3    0    0 -0.15995183830E+02 -0.17970332768E+02 -0.54781536490E+01  0.24673648559E+02  0.51100000000E-03 0. -1.
        -11    1    3    3    0    0  0.13914948711E+00 -0.78701690834E+01 -0.70517020078E+01  0.10568132543E+02  0.51100000000E-03 0.  1.
        -12    1    3    3    0    0 -0.11449230713E+02 -0.50002254778E+01 -0.11411149047E+01  0.12545488511E+02  0.00000000000E+00 0.  1.
</event>
<event>
 7    1  0.1322363E-009  0.4778727E+02  0.7816164E-02  0.1312668E+00
        -11   -1    0    0    0    0  0.00000000000E+00  0.00000000000E+00  0.45593999997E+02  0.45594000000E+02  0.51100000000E-03 0.  1.
         11   -1    0    0    0    0 -0.00000000000E+00 -0.00000000000E+00 -0.45593999997E+02  0.45594000000E+02  0.51100000000E-03 0. -1.
    9900012    2    1    2    0    0 -0.19134319621E+02  0.67488040460E+01 -0.38366068168E+02  0.47787265789E+02  0.19999976038E+02 0.  0.
        -12    1    1    2    0    0  0.19134319621E+02 -0.67488040460E+01  0.38366068168E+02  0.43400734211E+02  0.00000000000E+00 0.  1.
         11    1    3    3    0    0 -0.12700373564E+02 -0.36084658137E+01 -0.20476750824E+02  0.24364273820E+02  0.51100000000E-03 0. -1.
        -11    1    3    3    0    0 -0.68130359477E+01  0.79820324334E+01 -0.18188807811E+02  0.20999119754E+02  0.51100000000E-03 0.  1.
        -12    1    3    3    0    0  0.37908989078E+00  0.23752374262E+01  0.29949046698E+00  0.24238722153E+01  0.00000000000E+00 0.  1.
</event>
<event>
 7    1  0.1322363E-009  0.4778728E+02  0.7816164E-02  0.1312668E+00
        -11   -1    0    0    0    0  0.00000000000E+00  0.00000000000E+00  0.45593999997E+02  0.45594000000E+02  0.51100000000E-03 0.  1.
         11   -1    0    0    0    0 -0.00000000000E+00 -0.00000000000E+00 -0.45593999997E+02  0.45594000000E+02  0.51100000000E-03 0. -1.
    9900012    2    1    2    0    0  0.45100137273E+01  0.26015444416E+02 -0.34445307628E+02  0.47787276624E+02  0.20000025439E+02 0.  0.
        -12    1    1    2    0    0 -0.45100137273E+01 -0.26015444416E+02  0.34445307628E+02  0.43400723376E+02  0.00000000000E+00 0.  1.
         11    1    3    3    0    0  0.20937933948E-01  0.52820567796E+01 -0.16908301492E+02  0.17714153150E+02  0.51100000000E-03 0. -1.
        -11    1    3    3    0    0  0.63107121149E+00 -0.10071601918E+01 -0.40016982147E+01  0.41744713903E+01  0.51100000000E-03 0.  1.
        -12    1    3    3    0    0  0.38580045819E+01  0.21740547828E+02 -0.13535307921E+02  0.25898652083E+02  0.00000000000E+00 0.  1.
</event>
<event>
 7    1  0.1322363E-009  0.4778727E+02  0.7816164E-02  0.1312668E+00
        -11   -1    0    0    0    0  0.00000000000E+00  0.00000000000E+00  0.45593999997E+02  0.45594000000E+02  0.51100000000E-03 0. -1.
         11   -1    0    0    0    0 -0.00000000000E+00 -0.00000000000E+00 -0.45593999997E+02  0.45594000000E+02  0.51100000000E-03 0.  1.
    9900012    2    1    2    0    0 -0.25401690948E+02 -0.13073412211E+02  0.32672058538E+02  0.47787269373E+02  0.19999992381E+02 0.  0.
        -12    1    1    2    0    0  0.25401690948E+02  0.13073412211E+02 -0.32672058538E+02  0.43400730627E+02  0.00000000000E+00 0.  1.
         11    1    3    3    0    0 -0.18912817332E-01 -0.77251064208E+00  0.11575602154E+02  0.11601366121E+02  0.51100000000E-03 0. -1.
        -11    1    3    3    0    0 -0.97210276016E+01 -0.67137806845E+01  0.43593407196E+01  0.12592739197E+02  0.51100000000E-03 0.  1.
        -12    1    3    3    0    0 -0.15661750529E+02 -0.55871208841E+01  0.16737115664E+02  0.23593164056E+02  0.00000000000E+00 0.  1.
</event>
<event>
 7    1  0.1322363E-009  0.4778727E+02  0.7816164E-02  0.1312668E+00
        -11   -1    0    0    0    0  0.00000000000E+00  0.00000000000E+00  0.45593999997E+02  0.45594000000E+02  0.51100000000E-03 0. -1.
         11   -1    0    0    0    0 -0.00000000000E+00 -0.00000000000E+00 -0.45593999997E+02  0.45594000000E+02  0.51100000000E-03 0.  1.
    9900012    2    1    2    0    0 -0.39787550401E+02 -0.51737828219E+01  0.16547092029E+02  0.47787269013E+02  0.19999990736E+02 0.  0.
        -12    1    1    2    0    0  0.39787550401E+02  0.51737828219E+01 -0.16547092029E+02  0.43400730987E+02  0.00000000000E+00 0.  1.
         11    1    3    3    0    0 -0.20047043138E+02  0.26292433659E+01  0.39278266489E+01  0.20596715313E+02  0.51100000000E-03 0. -1.
        -11    1    3    3    0    0 -0.64385052876E+01  0.99370368974E+00  0.85185900827E+01  0.10724186432E+02  0.51100000000E-03 0.  1.
         12    1    3    3    0    0 -0.13302001976E+02 -0.87967298775E+01  0.41006752972E+01  0.16466367268E+02  0.00000000000E+00 0. -1.
</event>
<event>
 7    1  0.1322363E-009  0.4778727E+02  0.7816164E-02  0.1312668E+00
        -11   -1    0    0    0    0  0.00000000000E+00  0.00000000000E+00  0.45593999997E+02  0.45594000000E+02  0.51100000000E-03 0.  1.
         11   -1    0    0    0    0 -0.00000000000E+00 -0.00000000000E+00 -0.45593999997E+02  0.45594000000E+02  0.51100000000E-03 0. -1.
    9900012    2    1    2    0    0  0.12480127987E+02 -0.52354010737E+01 -0.41236640729E+02  0.47787267776E+02  0.19999985099E+02 0.  0.
        -12    1    1    2    0    0 -0.12480127987E+02  0.52354010737E+01  0.41236640729E+02  0.43400732224E+02  0.00000000000E+00 0.  1.
         11    1    3    3    0    0  0.81162946134E+00 -0.58576292199E+01 -0.75689431407E+01  0.96051789670E+01  0.51100000000E-03 0. -1.
        -11    1    3    3    0    0  0.50288007776E+01 -0.64688579857E+01 -0.13398963333E+02  0.15705641648E+02  0.51100000000E-03 0.  1.
         12    1    3    3    0    0  0.66396977482E+01  0.70910861320E+01 -0.20268734255E+02  0.22476447162E+02  0.00000000000E+00 0. -1.
</event>
<event>
 7    1  0.1322363E-009  0.4778727E+02  0.7816164E-02  0.1312668E+00
        -11   -1    0    0    0    0  0.00000000000E+00  0.00000000000E+00  0.45593999997E+02  0.45594000000E+02  0.51100000000E-03 0.  1.
         11   -1    0    0    0    0 -0.00000000000E+00 -0.00000000000E+00 -0.45593999997E+02  0.45594000000E+02  0.51100000000E-03 0. -1.
    9900012    2    1    2    0    0 -0.43065908003E+02  0.29244876802E+01 -0.45164165127E+01  0.47787273296E+02  0.20000010266E+02 0.  0.
        -12    1    1    2    0    0  0.43065908003E+02 -0.29244876802E+01  0.45164165127E+01  0.43400726704E+02  0.00000000000E+00 0.  1.
         11    1    3    3    0    0 -0.24163078335E+02 -0.98552250251E+00 -0.56459673658E+01  0.24833496673E+02  0.51100000000E-03 0. -1.
        -11    1    3    3    0    0 -0.18956435977E+02  0.51919883895E+01  0.37747622100E+01  0.20013796201E+02  0.51100000000E-03 0.  1.
        -12    1    3    3    0    0  0.53606309299E-01 -0.12819782068E+01 -0.26452113569E+01  0.29399804221E+01  0.00000000000E+00 0.  1.
</event>
<event>
 7    1  0.1322363E-009  0.4778727E+02  0.7816164E-02  0.1312668E+00
        -11   -1    0    0    0    0  0.00000000000E+00  0.00000000000E+00  0.45593999997E+02  0.45594000000E+02  0.51100000000E-03 0. -1.
         11   -1    0    0    0    0 -0.00000000000E+00 -0.00000000000E+00 -0.45593999997E+02  0.45594000000E+02  0.51100000000E-03 0.  1.
    9900012    2    1    2    0    0 -0.44900825004E+01  0.24421664250E+02  0.35595577187E+02  0.47787266817E+02  0.19999980724E+02 0.  0.
        -12    1    1    2    0    0  0.44900825004E+01 -0.24421664250E+02 -0.35595577187E+02  0.43400733183E+02  0.00000000000E+00 0.  1.
         11    1    3    3    0    0  0.15451720195E+01  0.30930335344E+00  0.54728275238E+00  0.16681558100E+01  0.51100000000E-03 0. -1.
        -11    1    3    3    0    0 -0.39522911586E+01  0.12500333623E+01  0.15252564216E+02  0.15805818683E+02  0.51100000000E-03 0.  1.
         12    1    3    3    0    0 -0.20829633614E+01  0.22862327534E+02  0.19795730218E+02  0.30313292324E+02  0.00000000000E+00 0. -1.
</event>
<event>
 7    1  0.1322363E-009  0.4778727E+02  0.7816164E-02  0.1312668E+00
        -11   -1    0    0    0    0  0.00000000000E+00  0.00000000000E+00  0.45593999997E+02  0.45594000000E+02  0.51100000000E-03 0.  1.
         11   -1    0    0    0    0 -0.00000000000E+00 -0.00000000000E+00 -0.45593999997E+02  0.45594000000E+02  0.51100000000E-03 0. -1.
    9900012    2    1    2    0    0  0.96200881453E+01  0.39502969100E+02 -0.15185271828E+02  0.47787272540E+02  0.20000006817E+02 0.  0.
        -12    1    1    2    0    0 -0.96200881453E+01 -0.39502969100E+02  0.15185271828E+02  0.43400727460E+02  0.00000000000E+00 0.  1.
         11    1    3    3    0    0  0.10431752072E+02  0.20092403920E+02 -0.15140393356E+02  0.27235228250E+02  0.51100000000E-03 0. -1.
        -11    1    3    3    0    0 -0.23793507962E+01  0.23484733621E+01 -0.65725811021E+00  0.34071433531E+01  0.51100000000E-03 0.  1.
        -12    1    3    3    0    0  0.15676868691E+01  0.17062091817E+02  0.61237963806E+00  0.17144900937E+02  0.00000000000E+00 0.  1.
</event>
<event>
 7    1  0.1322363E-009  0.4778727E+02  0.7816164E-02  0.1312668E+00
        -11   -1    0    0    0    0  0.00000000000E+00  0.00000000000E+00  0.45593999997E+02  0.45594000000E+02  0.51100000000E-03 0. -1.
         11   -1    0    0    0    0 -0.00000000000E+00 -0.00000000000E+00 -0.45593999997E+02  0.45594000000E+02  0.51100000000E-03 0.  1.
    9900012    2    1    2    0    0 -0.37061682625E+02  0.22559809765E+02  0.10534291636E+01  0.47787273639E+02  0.20000011829E+02 0.  0.
        -12    1    1    2    0    0  0.37061682625E+02 -0.22559809765E+02 -0.10534291636E+01  0.43400726361E+02  0.00000000000E+00 0.  1.
         11    1    3    3    0    0 -0.16750513150E+02  0.13968967291E+02  0.47016182807E+01  0.22311811954E+02  0.51100000000E-03 0. -1.
        -11    1    3    3    0    0 -0.50126084298E+01 -0.19330367966E+01  0.24860278209E+01  0.59197304934E+01  0.51100000000E-03 0.  1.
        -12    1    3    3    0    0 -0.15298561046E+02  0.10523879271E+02 -0.61342169380E+01  0.19555731192E+02  0.00000000000E+00 0.  1.
</event>
<event>
 7    1  0.1322363E-009  0.4778727E+02  0.7816164E-02  0.1312668E+00
        -11   -1    0    0    0    0  0.00000000000E+00  0.00000000000E+00  0.45593999997E+02  0.45594000000E+02  0.51100000000E-03 0.  1.
         11   -1    0    0    0    0 -0.00000000000E+00 -0.00000000000E+00 -0.45593999997E+02  0.45594000000E+02  0.51100000000E-03 0. -1.
    9900012    2    1    2    0    0 -0.32261228681E+02  0.26401180843E+02  0.12075368164E+02  0.47787265649E+02  0.19999975402E+02 0.  0.
        -12    1    1    2    0    0  0.32261228681E+02 -0.26401180843E+02 -0.12075368164E+02  0.43400734351E+02  0.00000000000E+00 0.  1.
         11    1    3    3    0    0 -0.10643457629E+02  0.34841213974E+01  0.14393880894E+01  0.11291329884E+02  0.51100000000E-03 0. -1.
        -11    1    3    3    0    0  0.17683639721E+01  0.53626659126E+01  0.12330726288E+01  0.57797720713E+01  0.51100000000E-03 0.  1.
        -12    1    3    3    0    0 -0.23386135024E+02  0.17554393533E+02  0.94029074456E+01  0.30716163694E+02  0.00000000000E+00 0.  1.
</event>
<event>
 7    1  0.1322363E-009  0.4778727E+02  0.7816164E-02  0.1312668E+00
        -11   -1    0    0    0    0  0.00000000000E+00  0.00000000000E+00  0.45593999997E+02  0.45594000000E+02  0.51100000000E-03 0.  1.
         11   -1    0    0    0    0 -0.00000000000E+00 -0.00000000000E+00 -0.45593999997E+02  0.45594000000E+02  0.51100000000E-03 0. -1.
    9900012    2    1    2    0    0 -0.29334310236E+02 -0.16082899790E+02 -0.27648902824E+02  0.47787271319E+02  0.20000001252E+02 0.  0.
        -12    1    1    2    0    0  0.29334310236E+02  0.16082899790E+02  0.27648902824E+02  0.43400728681E+02  0.00000000000E+00 0.  1.
         11    1    3    3    0    0 -0.39286746931E+01 -0.33834217951E+01  0.10684229955E+01  0.52937279725E+01  0.51100000000E-03 0. -1.
        -11    1    3    3    0    0  0.85555448065E+00  0.57827988845E+00 -0.37886918082E+01  0.39269029753E+01  0.51100000000E-03 0.  1.
         12    1    3    3    0    0 -0.26261190024E+02 -0.13277757883E+02 -0.24928634011E+02  0.38566640371E+02  0.00000000000E+00 0. -1.
</event>
<event>
 7    1  0.1322363E-009  0.4778727E+02  0.7816164E-02  0.1312668E+00
        -11   -1    0    0    0    0  0.00000000000E+00  0.00000000000E+00  0.45593999997E+02  0.45594000000E+02  0.51100000000E-03 0.  1.
         11   -1    0    0    0    0 -0.00000000000E+00 -0.00000000000E+00 -0.45593999997E+02  0.45594000000E+02  0.51100000000E-03 0. -1.
    9900012    2    1    2    0    0  0.35436104090E+02  0.20189983835E+02  0.14841499345E+02  0.47787273933E+02  0.20000013171E+02 0.  0.
        -12    1    1    2    0    0 -0.35436104090E+02 -0.20189983835E+02 -0.14841499345E+02  0.43400726067E+02  0.00000000000E+00 0.  1.
         11    1    3    3    0    0  0.87192000065E+01  0.78476243446E+01 -0.35782472727E+01  0.12264318587E+02  0.51100000000E-03 0. -1.
        -11    1    3    3    0    0  0.28457227925E+01  0.28961716949E+01  0.53470817754E+01  0.67139580332E+01  0.51100000000E-03 0.  1.
        -12    1    3    3    0    0  0.23871181291E+02  0.94461877953E+01  0.13072664842E+02  0.28808997313E+02  0.00000000000E+00 0.  1.
</event>
<event>
 7    1  0.1322363E-009  0.4778728E+02  0.7816164E-02  0.1312668E+00
        -11   -1    0    0    0    0  0.00000000000E+00  0.00000000000E+00  0.45593999997E+02  0.45594000000E+02  0.51100000000E-03 0.  1.
         11   -1    0    0    0    0 -0.00000000000E+00 -0.00000000000E+00 -0.45593999997E+02  0.45594000000E+02  0.51100000000E-03 0. -1.
    9900012    2    1    2    0    0  0.40387832366E+02 -0.13987154428E+02 -0.75368957059E+01  0.47787282390E+02  0.20000051729E+02 0.  0.
        -12    1    1    2    0    0 -0.40387832366E+02  0.13987154428E+02  0.75368957059E+01  0.43400717610E+02  0.00000000000E+00 0.  1.
         11    1    3    3    0    0  0.65912471903E+01 -0.54982063739E+01 -0.65523786810E+01  0.10798540619E+02  0.51100000000E-03 0. -1.
        -11    1    3    3    0    0  0.21984871970E+02  0.42530635348E+00 -0.24177603492E+01  0.22121506422E+02  0.51100000000E-03 0.  1.
         12    1    3    3    0    0  0.11811713206E+02 -0.89142544077E+01  0.14332433244E+01  0.14867235349E+02  0.00000000000E+00 0. -1.
</event>
<event>
 7    1  0.1322363E-009  0.4778725E+02  0.7816164E-02  0.1312668E+00
        -11   -1    0    0    0    0  0.00000000000E+00  0.00000000000E+00  0.45593999997E+02  0.45594000000E+02  0.51100000000E-03 0.  1.
         11   -1    0    0    0    0 -0.00000000000E+00 -0.00000000000E+00 -0.45593999997E+02  0.45594000000E+02  0.51100000000E-03 0. -1.
    9900012    2    1    2    0    0 -0.28489616500E+02  0.15628037223E+02 -0.28770313232E+02  0.47787254394E+02  0.19999924082E+02 0.  0.
        -12    1    1    2    0    0  0.28489616500E+02 -0.15628037223E+02  0.28770313232E+02  0.43400745606E+02  0.00000000000E+00 0.  1.
         11    1    3    3    0    0 -0.55949150135E+01  0.94930287109E+01 -0.11415484925E+02  0.15866126322E+02  0.51100000000E-03 0. -1.
        -11    1    3    3    0    0 -0.22123586841E+02  0.86133808228E+01 -0.17207572860E+02  0.29321391303E+02  0.51100000000E-03 0.  1.
         12    1    3    3    0    0 -0.77111464460E+00 -0.24783723103E+01 -0.14725544643E+00  0.25997367694E+01  0.00000000000E+00 0. -1.
</event>
<event>
 7    1  0.1618882E-009  0.4778726E+02  0.7816164E-02  0.1312668E+00
        -11   -1    0    0    0    0  0.00000000000E+00  0.00000000000E+00  0.45593999997E+02  0.45594000000E+02  0.51100000000E-03 0. -1.
         11   -1    0    0    0    0 -0.00000000000E+00 -0.00000000000E+00 -0.45593999997E+02  0.45594000000E+02  0.51100000000E-03 0.  1.
    9900012    2    1    2    0    0 -0.20381726640E+02  0.38110882266E+02 -0.39711130838E+01  0.47787264211E+02  0.19999968842E+02 0.  0.
        -12    1    1    2    0    0  0.20381726640E+02 -0.38110882266E+02  0.39711130838E+01  0.43400735789E+02  0.00000000000E+00 0.  1.
         11    1    3    3    0    0 -0.80801131029E+01  0.99957426525E+01  0.15372281655E+01  0.12944735209E+02  0.51100000000E-03 0. -1.
        -11    1    3    3    0    0 -0.86585540043E+01  0.18617616515E+02 -0.10988453651E+02  0.23288029458E+02  0.51100000000E-03 0.  1.
        -12    1    3    3    0    0 -0.36430595324E+01  0.94975230986E+01  0.54801124017E+01  0.11554499543E+02  0.00000000000E+00 0.  1.
</event>
<event>
 7    1  0.1322363E-009  0.4778727E+02  0.7816164E-02  0.1312668E+00
        -11   -1    0    0    0    0  0.00000000000E+00  0.00000000000E+00  0.45593999997E+02  0.45594000000E+02  0.51100000000E-03 0.  1.
         11   -1    0    0    0    0 -0.00000000000E+00 -0.00000000000E+00 -0.45593999997E+02  0.45594000000E+02  0.51100000000E-03 0. -1.
    9900012    2    1    2    0    0 -0.32706375537E+02 -0.79008523833E+01 -0.27413370356E+02  0.47787270243E+02  0.19999996347E+02 0.  0.
        -12    1    1    2    0    0  0.32706375537E+02  0.79008523833E+01  0.27413370356E+02  0.43400729757E+02  0.00000000000E+00 0.  1.
         11    1    3    3    0    0 -0.27198462603E+02 -0.10698007979E+02 -0.24031940149E+02  0.37838312466E+02  0.51100000000E-03 0. -1.
        -11    1    3    3    0    0 -0.29433481346E+00 -0.16075417009E+01  0.92585315366E+00  0.18783044550E+01  0.51100000000E-03 0.  1.
         12    1    3    3    0    0 -0.52135781204E+01  0.44046972970E+01 -0.43072833609E+01  0.80706533221E+01  0.00000000000E+00 0. -1.
</event>
<event>
 7    1  0.1322363E-009  0.4778727E+02  0.7816164E-02  0.1312668E+00
        -11   -1    0    0    0    0  0.00000000000E+00  0.00000000000E+00  0.45593999997E+02  0.45594000000E+02  0.51100000000E-03 0.  1.
         11   -1    0    0    0    0 -0.00000000000E+00 -0.00000000000E+00 -0.45593999997E+02  0.45594000000E+02  0.51100000000E-03 0. -1.
    9900012    2    1    2    0    0 -0.38150130663E+01  0.60844188545E+01 -0.42802438998E+02  0.47787271185E+02  0.20000000640E+02 0.  0.
        -12    1    1    2    0    0  0.38150130663E+01 -0.60844188545E+01  0.42802438998E+02  0.43400728815E+02  0.00000000000E+00 0.  1.
         11    1    3    3    0    0  0.50931667289E+01 -0.32674647641E+00 -0.24094415073E+02  0.24629006244E+02  0.51100000000E-03 0. -1.
        -11    1    3    3    0    0 -0.34450481709E+01 -0.12903435101E+01 -0.26646223382E+01  0.45424173895E+01  0.51100000000E-03 0.  1.
         12    1    3    3    0    0 -0.54631316243E+01  0.77015088411E+01 -0.16043401587E+02  0.18615847551E+02  0.00000000000E+00 0. -1.
</event>
<event>
 7    1  0.1322363E-009  0.4778727E+02  0.7816164E-02  0.1312668E+00
        -11   -1    0    0    0    0  0.00000000000E+00  0.00000000000E+00  0.45593999997E+02  0.45594000000E+02  0.51100000000E-03 0.  1.
         11   -1    0    0    0    0 -0.00000000000E+00 -0.00000000000E+00 -0.45593999997E+02  0.45594000000E+02  0.51100000000E-03 0. -1.
    9900012    2    1    2    0    0  0.16124213462E+01  0.41681966671E+02  0.11984865883E+02  0.47787271223E+02  0.20000000815E+02 0.  0.
        -12    1    1    2    0    0 -0.16124213462E+01 -0.41681966671E+02 -0.11984865883E+02  0.43400728777E+02  0.00000000000E+00 0.  1.
         11    1    3    3    0    0 -0.40700974766E+01  0.12015294298E+02 -0.20708016294E+01  0.12853840290E+02  0.51100000000E-03 0. -1.
        -11    1    3    3    0    0  0.30201283600E+01  0.16535130530E+01  0.34147426103E+01  0.48493038761E+01  0.51100000000E-03 0.  1.
        -12    1    3    3    0    0  0.26623904629E+01  0.28013159320E+02  0.10640924902E+02  0.30084127057E+02  0.00000000000E+00 0.  1.
</event>
<event>
 7    1  0.1322363E-009  0.4778727E+02  0.7816164E-02  0.1312668E+00
        -11   -1    0    0    0    0  0.00000000000E+00  0.00000000000E+00  0.45593999997E+02  0.45594000000E+02  0.51100000000E-03 0.  1.
         11   -1    0    0    0    0 -0.00000000000E+00 -0.00000000000E+00 -0.45593999997E+02  0.45594000000E+02  0.51100000000E-03 0. -1.
    9900012    2    1    2    0    0 -0.81307809798E+01  0.37962373689E+02 -0.19400305600E+02  0.47787271057E+02  0.20000000057E+02 0.  0.
        -12    1    1    2    0    0  0.81307809798E+01 -0.37962373689E+02  0.19400305600E+02  0.43400728943E+02  0.00000000000E+00 0.  1.
         11    1    3    3    0    0 -0.15743041529E+00  0.11393208910E+02  0.16164129484E+01  0.11508378890E+02  0.51100000000E-03 0.  1.
        -11    1    3    3    0    0  0.10592107592E+01  0.20574459597E+01 -0.53229743596E+01  0.58042284245E+01  0.51100000000E-03 0. -1.
        -12    1    3    3    0    0 -0.90325613237E+01  0.24511718819E+02 -0.15693744189E+02  0.30474663742E+02  0.00000000000E+00 0.  1.
</event>
<event>
 7    1  0.1322363E-009  0.4778727E+02  0.7816164E-02  0.1312668E+00
        -11   -1    0    0    0    0  0.00000000000E+00  0.00000000000E+00  0.45593999997E+02  0.45594000000E+02  0.51100000000E-03 0.  1.
         11   -1    0    0    0    0 -0.00000000000E+00 -0.00000000000E+00 -0.45593999997E+02  0.45594000000E+02  0.51100000000E-03 0. -1.
    9900012    2    1    2    0    0 -0.93084493789E+01  0.11887731150E+01 -0.42374083543E+02  0.47787269966E+02  0.19999995082E+02 0.  0.
        -12    1    1    2    0    0  0.93084493789E+01 -0.11887731150E+01  0.42374083543E+02  0.43400730034E+02  0.00000000000E+00 0.  1.
         11    1    3    3    0    0 -0.97947395183E+00  0.96389105594E+00 -0.17703347206E+02  0.17756603216E+02  0.51100000000E-03 0. -1.
        -11    1    3    3    0    0  0.18699720792E+01  0.19150837304E+01  0.58601735925E+00  0.27400288097E+01  0.51100000000E-03 0.  1.
        -12    1    3    3    0    0 -0.10198947506E+02 -0.16902016714E+01 -0.25256753696E+02  0.27290637940E+02  0.00000000000E+00 0.  1.
</event>
<event>
 7    1  0.1322363E-009  0.4778727E+02  0.7816164E-02  0.1312668E+00
        -11   -1    0    0    0    0  0.00000000000E+00  0.00000000000E+00  0.45593999997E+02  0.45594000000E+02  0.51100000000E-03 0. -1.
         11   -1    0    0    0    0 -0.00000000000E+00 -0.00000000000E+00 -0.45593999997E+02  0.45594000000E+02  0.51100000000E-03 0.  1.
    9900012    2    1    2    0    0  0.22106333586E+01 -0.21598407265E+02  0.37579850555E+02  0.47787271159E+02  0.20000000520E+02 0.  0.
        -12    1    1    2    0    0 -0.22106333586E+01  0.21598407265E+02 -0.37579850555E+02  0.43400728841E+02  0.00000000000E+00 0.  1.
         11    1    3    3    0    0 -0.76955487537E+00 -0.76199280999E+01  0.21833471413E+02  0.23137761196E+02  0.51100000000E-03 0. -1.
        -11    1    3    3    0    0  0.21412645942E+01  0.20142719410E+01  0.21592057860E+01  0.36475300413E+01  0.51100000000E-03 0.  1.
        -12    1    3    3    0    0  0.83892363971E+00 -0.15992751106E+02  0.13587173356E+02  0.21001979922E+02  0.00000000000E+00 0.  1.
</event>
<event>
 7    1  0.1322363E-009  0.4778727E+02  0.7816164E-02  0.1312668E+00
        -11   -1    0    0    0    0  0.00000000000E+00  0.00000000000E+00  0.45593999997E+02  0.45594000000E+02  0.51100000000E-03 0.  1.
         11   -1    0    0    0    0 -0.00000000000E+00 -0.00000000000E+00 -0.45593999997E+02  0.45594000000E+02  0.51100000000E-03 0. -1.
    9900012    2    1    2    0    0 -0.39401743079E+02 -0.17075063847E+02 -0.62903037915E+01  0.47787273222E+02  0.20000009930E+02 0.  0.
        -12    1    1    2    0    0  0.39401743079E+02  0.17075063847E+02  0.62903037915E+01  0.43400726778E+02  0.00000000000E+00 0.  1.
         11    1    3    3    0    0 -0.33089657247E+02 -0.13695236058E+02 -0.30449631329E+00  0.35813092936E+02  0.51100000000E-03 0. -1.
        -11    1    3    3    0    0  0.11760286750E+01 -0.78031658569E+00  0.72656376723E+00  0.15873980557E+01  0.51100000000E-03 0.  1.
         12    1    3    3    0    0 -0.74881145071E+01 -0.25995112026E+01 -0.67123712455E+01  0.10386782230E+02  0.00000000000E+00 0. -1.
</event>
<event>
 7    1  0.1322363E-009  0.4778729E+02  0.7816164E-02  0.1312668E+00
        -11   -1    0    0    0    0  0.00000000000E+00  0.00000000000E+00  0.45593999997E+02  0.45594000000E+02  0.51100000000E-03 0. -1.
         11   -1    0    0    0    0 -0.00000000000E+00 -0.00000000000E+00 -0.45593999997E+02  0.45594000000E+02  0.51100000000E-03 0.  1.
    9900012    2    1    2    0    0  0.15502388908E+02  0.19517108123E+02  0.35529986888E+02  0.47787291024E+02  0.20000091094E+02 0.  0.
        -12    1    1    2    0    0 -0.15502388908E+02 -0.19517108123E+02 -0.35529986888E+02  0.43400708976E+02  0.00000000000E+00 0.  1.
         11    1    3    3    0    0  0.47948173329E+01  0.54265765633E+01  0.12111092497E+02  0.14110867025E+02  0.51100000000E-03 0. -1.
        -11    1    3    3    0    0  0.62454910261E+01  0.24675714516E+01 -0.47649146254E+00  0.67321698880E+01  0.51100000000E-03 0.  1.
        -12    1    3    3    0    0  0.44620805490E+01  0.11622960108E+02  0.23895385854E+02  0.26944254111E+02  0.00000000000E+00 0.  1.
</event>
<event>
 7    1  0.1322363E-009  0.4778727E+02  0.7816164E-02  0.1312668E+00
        -11   -1    0    0    0    0  0.00000000000E+00  0.00000000000E+00  0.45593999997E+02  0.45594000000E+02  0.51100000000E-03 0.  1.
         11   -1    0    0    0    0 -0.00000000000E+00 -0.00000000000E+00 -0.45593999997E+02  0.45594000000E+02  0.51100000000E-03 0. -1.
    9900012    2    1    2    0    0 -0.19335978488E+02 -0.38074529669E+02  0.77506985023E+01  0.47787271885E+02  0.20000003835E+02 0.  0.
        -12    1    1    2    0    0  0.19335978488E+02  0.38074529669E+02 -0.77506985023E+01  0.43400728115E+02  0.00000000000E+00 0.  1.
         11    1    3    3    0    0 -0.86081355981E+01 -0.13006683561E+02  0.22655744825E+01  0.15760921411E+02  0.51100000000E-03 0. -1.
        -11    1    3    3    0    0  0.21329165738E+01 -0.15043844628E+02  0.35734896642E+01  0.15608857196E+02  0.51100000000E-03 0.  1.
        -12    1    3    3    0    0 -0.12860759464E+02 -0.10024001480E+02  0.19116343556E+01  0.16417493279E+02  0.00000000000E+00 0.  1.
</event>
<event>
 7    1  0.1322363E-009  0.4778727E+02  0.7816164E-02  0.1312668E+00
        -11   -1    0    0    0    0  0.00000000000E+00  0.00000000000E+00  0.45593999997E+02  0.45594000000E+02  0.51100000000E-03 0. -1.
         11   -1    0    0    0    0 -0.00000000000E+00 -0.00000000000E+00 -0.45593999997E+02  0.45594000000E+02  0.51100000000E-03 0.  1.
    9900012    2    1    2    0    0  0.12469991458E+02  0.30661968167E+02  0.28070736579E+02  0.47787271539E+02  0.20000002257E+02 0.  0.
        -12    1    1    2    0    0 -0.12469991458E+02 -0.30661968167E+02 -0.28070736579E+02  0.43400728461E+02  0.00000000000E+00 0.  1.
         11    1    3    3    0    0  0.85309617925E+01  0.20674048022E+02  0.13434339900E+02  0.26089750086E+02  0.51100000000E-03 0. -1.
        -11    1    3    3    0    0 -0.10810066224E+01  0.88216582785E+01  0.13889936301E+02  0.16490013972E+02  0.51100000000E-03 0.  1.
        -12    1    3    3    0    0  0.50200362883E+01  0.11662618664E+01  0.74646037765E+00  0.52075074817E+01  0.00000000000E+00 0.  1.
</event>
<event>
 7    1  0.1322363E-009  0.4778727E+02  0.7816164E-02  0.1312668E+00
        -11   -1    0    0    0    0  0.00000000000E+00  0.00000000000E+00  0.45593999997E+02  0.45594000000E+02  0.51100000000E-03 0.  1.
         11   -1    0    0    0    0 -0.00000000000E+00 -0.00000000000E+00 -0.45593999997E+02  0.45594000000E+02  0.51100000000E-03 0. -1.
    9900012    2    1    2    0    0  0.10849971598E+02  0.17997465393E+02 -0.37973577726E+02  0.47787271325E+02  0.20000001278E+02 0.  0.
        -12    1    1    2    0    0 -0.10849971598E+02 -0.17997465393E+02  0.37973577726E+02  0.43400728675E+02  0.00000000000E+00 0.  1.
         11    1    3    3    0    0  0.32827294908E+01 -0.29561037214E+00 -0.12719244295E+02  0.13139363535E+02  0.51100000000E-03 0. -1.
        -11    1    3    3    0    0  0.11310698754E+02  0.13138838243E+02 -0.17927798932E+02  0.24939265255E+02  0.51100000000E-03 0.  1.
         12    1    3    3    0    0 -0.37434566465E+01  0.51542375229E+01 -0.73265344985E+01  0.97086425345E+01  0.00000000000E+00 0. -1.
</event>
<event>
 7    1  0.1322363E-009  0.4778727E+02  0.7816164E-02  0.1312668E+00
        -11   -1    0    0    0    0  0.00000000000E+00  0.00000000000E+00  0.45593999997E+02  0.45594000000E+02  0.51100000000E-03 0. -1.
         11   -1    0    0    0    0 -0.00000000000E+00 -0.00000000000E+00 -0.45593999997E+02  0.45594000000E+02  0.51100000000E-03 0.  1.
    9900012    2    1    2    0    0  0.22922713938E+01  0.27660045043E+02  0.33366012702E+02  0.47787269550E+02  0.19999993188E+02 0.  0.
        -12    1    1    2    0    0 -0.22922713938E+01 -0.27660045043E+02 -0.33366012702E+02  0.43400730450E+02  0.00000000000E+00 0.  1.
         11    1    3    3    0    0  0.78701825588E+01  0.69289832951E+01  0.98138683106E+01  0.14361845094E+02  0.51100000000E-03 0. -1.
        -11    1    3    3    0    0 -0.61956039597E+00  0.17007724072E+02  0.20067895293E+02  0.26312866719E+02  0.51100000000E-03 0.  1.
        -12    1    3    3    0    0 -0.49583507690E+01  0.37233376759E+01  0.34842490983E+01  0.71125577380E+01  0.00000000000E+00 0.  1.
</event>
<event>
 7    1  0.1322363E-009  0.4778728E+02  0.7816164E-02  0.1312668E+00
        -11   -1    0    0    0    0  0.00000000000E+00  0.00000000000E+00  0.45593999997E+02  0.45594000000E+02  0.51100000000E-03 0.  1.
         11   -1    0    0    0    0 -0.00000000000E+00 -0.00000000000E+00 -0.45593999997E+02  0.45594000000E+02  0.51100000000E-03 0. -1.
    9900012    2    1    2    0    0 -0.26530733604E+02  0.12363170904E+01 -0.34325126275E+02  0.47787278816E+02  0.20000035433E+02 0.  0.
        -12    1    1    2    0    0  0.26530733604E+02 -0.12363170904E+01  0.34325126275E+02  0.43400721184E+02  0.00000000000E+00 0.  1.
         11    1    3    3    0    0 -0.10675929275E+02 -0.22645111636E+00 -0.21949485955E+02  0.24409151561E+02  0.51100000000E-03 0. -1.
        -11    1    3    3    0    0 -0.34048481118E+01  0.56572263316E+01 -0.52288629122E+01  0.84224822972E+01  0.51100000000E-03 0.  1.
        -12    1    3    3    0    0 -0.12449956217E+02 -0.41944581248E+01 -0.71467774075E+01  0.14955644957E+02  0.00000000000E+00 0.  1.
</event>
<event>
 7    1  0.1425094E-009  0.4778727E+02  0.7816164E-02  0.1312668E+00
        -11   -1    0    0    0    0  0.00000000000E+00  0.00000000000E+00  0.45593999997E+02  0.45594000000E+02  0.51100000000E-03 0.  1.
         11   -1    0    0    0    0 -0.00000000000E+00 -0.00000000000E+00 -0.45593999997E+02  0.45594000000E+02  0.51100000000E-03 0. -1.
    9900012    2    1    2    0    0 -0.20054599811E+02  0.38203640331E+02 -0.46817098650E+01  0.47787268262E+02  0.19999987313E+02 0.  0.
        -12    1    1    2    0    0  0.20054599811E+02 -0.38203640331E+02  0.46817098650E+01  0.43400731738E+02  0.00000000000E+00 0.  1.
         11    1    3    3    0    0 -0.10938773660E+02  0.10601153135E+02 -0.82687685299E+01  0.17332447901E+02  0.51100000000E-03 0. -1.
        -11    1    3    3    0    0 -0.68485518706E+00  0.30972092651E+01  0.32445681744E+01  0.45375053453E+01  0.51100000000E-03 0.  1.
         12    1    3    3    0    0 -0.84309709641E+01  0.24505277931E+02  0.34249049048E+00  0.25917315015E+02  0.00000000000E+00 0. -1.
</event>
<event>
 7    1  0.1322363E-009  0.4778727E+02  0.7816164E-02  0.1312668E+00
        -11   -1    0    0    0    0  0.00000000000E+00  0.00000000000E+00  0.45593999997E+02  0.45594000000E+02  0.51100000000E-03 0.  1.
         11   -1    0    0    0    0 -0.00000000000E+00 -0.00000000000E+00 -0.45593999997E+02  0.45594000000E+02  0.51100000000E-03 0. -1.
    9900012    2    1    2    0    0 -0.28330142425E+02  0.23429144228E+02  0.23067329543E+02  0.47787268885E+02  0.19999990155E+02 0.  0.
        -12    1    1    2    0    0  0.28330142425E+02 -0.23429144228E+02 -0.23067329543E+02  0.43400731115E+02  0.00000000000E+00 0.  1.
         11    1    3    3    0    0 -0.15473188364E+02  0.15971890423E+02  0.11551048585E+02  0.25058881969E+02  0.51100000000E-03 0. -1.
        -11    1    3    3    0    0 -0.11604787620E+02  0.89442050966E+01  0.13520169376E+02  0.19936521280E+02  0.51100000000E-03 0.  1.
        -12    1    3    3    0    0 -0.12521664406E+01 -0.14869512919E+01 -0.20038884184E+01  0.27918656366E+01  0.00000000000E+00 0.  1.
</event>
<event>
 7    1  0.2111850E-009  0.4778727E+02  0.7816164E-02  0.1312668E+00
        -11   -1    0    0    0    0  0.00000000000E+00  0.00000000000E+00  0.45593999997E+02  0.45594000000E+02  0.51100000000E-03 0. -1.
         11   -1    0    0    0    0 -0.00000000000E+00 -0.00000000000E+00 -0.45593999997E+02  0.45594000000E+02  0.51100000000E-03 0.  1.
    9900012    2    1    2    0    0 -0.26609413166E+02 -0.31866660821E+01  0.34138072702E+02  0.47787265932E+02  0.19999976692E+02 0.  0.
        -12    1    1    2    0    0  0.26609413166E+02  0.31866660821E+01 -0.34138072702E+02  0.43400734068E+02  0.00000000000E+00 0.  1.
         11    1    3    3    0    0 -0.16119857385E+02 -0.28928998113E+01  0.31783286251E+02  0.35754663425E+02  0.51100000000E-03 0. -1.
        -11    1    3    3    0    0 -0.31882875672E+01  0.23608320329E+01  0.13918533018E+01  0.42042789362E+01  0.51100000000E-03 0.  1.
         12    1    3    3    0    0 -0.73012682144E+01 -0.26545983036E+01  0.96293314942E+00  0.78283235716E+01  0.00000000000E+00 0. -1.
</event>
<event>
 7    1  0.1812877E-009  0.4778727E+02  0.7816164E-02  0.1312668E+00
        -11   -1    0    0    0    0  0.00000000000E+00  0.00000000000E+00  0.45593999997E+02  0.45594000000E+02  0.51100000000E-03 0.  1.
         11   -1    0    0    0    0 -0.00000000000E+00 -0.00000000000E+00 -0.45593999997E+02  0.45594000000E+02  0.51100000000E-03 0. -1.
    9900012    2    1    2    0    0 -0.20120397739E+02  0.28405770146E+02  0.25921135715E+02  0.47787268905E+02  0.19999990247E+02 0.  0.
        -12    1    1    2    0    0  0.20120397739E+02 -0.28405770146E+02 -0.25921135715E+02  0.43400731095E+02  0.00000000000E+00 0.  1.
         11    1    3    3    0    0 -0.16513453108E+02  0.12108383931E+02  0.68917582067E+01  0.21605634136E+02  0.51100000000E-03 0. -1.
        -11    1    3    3    0    0 -0.19744961178E+00  0.12027998283E+01  0.54780088670E+01  0.56119778318E+01  0.51100000000E-03 0.  1.
         12    1    3    3    0    0 -0.34094950193E+01  0.15094586387E+02  0.13551368642E+02  0.20569656938E+02  0.00000000000E+00 0. -1.
</event>
<event>
 7    1  0.1322363E-009  0.4778726E+02  0.7816164E-02  0.1312668E+00
        -11   -1    0    0    0    0  0.00000000000E+00  0.00000000000E+00  0.45593999997E+02  0.45594000000E+02  0.51100000000E-03 0.  1.
         11   -1    0    0    0    0 -0.00000000000E+00 -0.00000000000E+00 -0.45593999997E+02  0.45594000000E+02  0.51100000000E-03 0. -1.
    9900012    2    1    2    0    0 -0.12357795742E+01  0.38552784340E+02 -0.19894212345E+02  0.47787262491E+02  0.19999961001E+02 0.  0.
        -12    1    1    2    0    0  0.12357795742E+01 -0.38552784340E+02  0.19894212345E+02  0.43400737509E+02  0.00000000000E+00 0.  1.
         11    1    3    3    0    0  0.14318903499E+01  0.27651254131E+02 -0.20437197693E+02  0.34413968309E+02  0.51100000000E-03 0. -1.
        -11    1    3    3    0    0 -0.11135474141E+01 -0.91637095371E+00  0.23063718389E-01  0.14423091778E+01  0.51100000000E-03 0.  1.
         12    1    3    3    0    0 -0.15541225100E+01  0.11817901163E+02  0.51992162909E+00  0.11930985004E+02  0.00000000000E+00 0. -1.
</event>
<event>
 7    1  0.1322363E-009  0.4778729E+02  0.7816164E-02  0.1312668E+00
        -11   -1    0    0    0    0  0.00000000000E+00  0.00000000000E+00  0.45593999997E+02  0.45594000000E+02  0.51100000000E-03 0.  1.
         11   -1    0    0    0    0 -0.00000000000E+00 -0.00000000000E+00 -0.45593999997E+02  0.45594000000E+02  0.51100000000E-03 0. -1.
    9900012    2    1    2    0    0  0.76931776409E+01  0.87991864029E+01 -0.41797261181E+02  0.47787289109E+02  0.20000082365E+02 0.  0.
        -12    1    1    2    0    0 -0.76931776409E+01 -0.87991864029E+01  0.41797261181E+02  0.43400710891E+02  0.00000000000E+00 0.  1.
         11    1    3    3    0    0 -0.80287209031E+00 -0.30147168231E+01 -0.14395566403E+02  0.14729747229E+02  0.51100000000E-03 0. -1.
        -11    1    3    3    0    0  0.41088821824E+01 -0.94649386792E+00 -0.30043455529E+01  0.51773406198E+01  0.51100000000E-03 0.  1.
        -12    1    3    3    0    0  0.43871675488E+01  0.12760397094E+02 -0.24397349226E+02  0.27880201261E+02  0.00000000000E+00 0.  1.
</event>
<event>
 7    1  0.1322363E-009  0.4778727E+02  0.7816164E-02  0.1312668E+00
        -11   -1    0    0    0    0  0.00000000000E+00  0.00000000000E+00  0.45593999997E+02  0.45594000000E+02  0.51100000000E-03 0.  1.
         11   -1    0    0    0    0 -0.00000000000E+00 -0.00000000000E+00 -0.45593999997E+02  0.45594000000E+02  0.51100000000E-03 0. -1.
    9900012    2    1    2    0    0 -0.14355325795E+01 -0.45883718735E+00 -0.43374552164E+02  0.47787273500E+02  0.20000011195E+02 0.  0.
        -12    1    1    2    0    0  0.14355325795E+01  0.45883718735E+00  0.43374552164E+02  0.43400726500E+02  0.00000000000E+00 0.  1.
         11    1    3    3    0    0  0.80005500587E+01 -0.24235099920E+01 -0.21145549452E+02  0.22737996037E+02  0.51100000000E-03 0. -1.
        -11    1    3    3    0    0 -0.30840999045E+01  0.28661141312E+00 -0.14848922852E+02  0.15168530860E+02  0.51100000000E-03 0.  1.
         12    1    3    3    0    0 -0.63519827337E+01  0.16780613916E+01 -0.73800798600E+01  0.98807466026E+01  0.00000000000E+00 0. -1.
</event>
<event>
 7    1  0.1322363E-009  0.4778727E+02  0.7816164E-02  0.1312668E+00
        -11   -1    0    0    0    0  0.00000000000E+00  0.00000000000E+00  0.45593999997E+02  0.45594000000E+02  0.51100000000E-03 0.  1.
         11   -1    0    0    0    0 -0.00000000000E+00 -0.00000000000E+00 -0.45593999997E+02  0.45594000000E+02  0.51100000000E-03 0. -1.
    9900012    2    1    2    0    0 -0.34847839731E+02 -0.76840627995E+01 -0.24702358528E+02  0.47787271067E+02  0.20000000105E+02 0.  0.
        -12    1    1    2    0    0  0.34847839731E+02  0.76840627995E+01  0.24702358528E+02  0.43400728933E+02  0.00000000000E+00 0.  1.
         11    1    3    3    0    0 -0.12556057799E+02 -0.37749186206E+01 -0.15560272342E+02  0.20347645408E+02  0.51100000000E-03 0. -1.
        -11    1    3    3    0    0 -0.99524634701E+01  0.45155432685E+01 -0.40283595075E+01  0.11647718262E+02  0.51100000000E-03 0.  1.
         12    1    3    3    0    0 -0.12339318462E+02 -0.84246874474E+01 -0.51137266792E+01  0.15791907397E+02  0.00000000000E+00 0. -1.
</event>
<event>
 7    1  0.1322363E-009  0.4778727E+02  0.7816164E-02  0.1312668E+00
        -11   -1    0    0    0    0  0.00000000000E+00  0.00000000000E+00  0.45593999997E+02  0.45594000000E+02  0.51100000000E-03 0. -1.
         11   -1    0    0    0    0 -0.00000000000E+00 -0.00000000000E+00 -0.45593999997E+02  0.45594000000E+02  0.51100000000E-03 0.  1.
    9900012    2    1    2    0    0 -0.74448170921E+01  0.86390496333E+01  0.41875585174E+02  0.47787272889E+02  0.20000008409E+02 0.  0.
        -12    1    1    2    0    0  0.74448170921E+01 -0.86390496333E+01 -0.41875585174E+02  0.43400727111E+02  0.00000000000E+00 0.  1.
         11    1    3    3    0    0  0.10932312860E+01  0.62088990975E+01  0.20327058517E+02  0.21282267052E+02  0.51100000000E-03 0. -1.
        -11    1    3    3    0    0  0.21679851472E+01  0.97001096925E+00  0.11522850272E+02  0.11765082215E+02  0.51100000000E-03 0.  1.
         12    1    3    3    0    0 -0.10706033525E+02  0.14601395666E+01  0.10025676385E+02  0.14739923622E+02  0.00000000000E+00 0. -1.
</event>
<event>
 7    1  0.1322363E-009  0.4778727E+02  0.7816164E-02  0.1312668E+00
        -11   -1    0    0    0    0  0.00000000000E+00  0.00000000000E+00  0.45593999997E+02  0.45594000000E+02  0.51100000000E-03 0. -1.
         11   -1    0    0    0    0 -0.00000000000E+00 -0.00000000000E+00 -0.45593999997E+02  0.45594000000E+02  0.51100000000E-03 0.  1.
    9900012    2    1    2    0    0  0.36777198751E+02 -0.20200728711E+02  0.11090162688E+02  0.47787268475E+02  0.19999988287E+02 0.  0.
        -12    1    1    2    0    0 -0.36777198751E+02  0.20200728711E+02 -0.11090162688E+02  0.43400731525E+02  0.00000000000E+00 0.  1.
         11    1    3    3    0    0  0.11759608607E+01 -0.84138376382E+01  0.26796040007E+01  0.89081886828E+01  0.51100000000E-03 0. -1.
        -11    1    3    3    0    0  0.95779958879E+01 -0.10899552943E+01  0.50261547200E+00  0.96529078699E+01  0.51100000000E-03 0.  1.
         12    1    3    3    0    0  0.26023242002E+02 -0.10696935778E+02  0.79079432154E+01  0.29226171923E+02  0.00000000000E+00 0. -1.
</event>
<event>
 7    1  0.1322363E-009  0.4778728E+02  0.7816164E-02  0.1312668E+00
        -11   -1    0    0    0    0  0.00000000000E+00  0.00000000000E+00  0.45593999997E+02  0.45594000000E+02  0.51100000000E-03 0.  1.
         11   -1    0    0    0    0 -0.00000000000E+00 -0.00000000000E+00 -0.45593999997E+02  0.45594000000E+02  0.51100000000E-03 0. -1.
    9900012    2    1    2    0    0  0.35203663447E+02  0.20458205673E+02 -0.15026183438E+02  0.47787282400E+02  0.20000051774E+02 0.  0.
        -12    1    1    2    0    0 -0.35203663447E+02 -0.20458205673E+02  0.15026183438E+02  0.43400717600E+02  0.00000000000E+00 0.  1.
         11    1    3    3    0    0  0.34377972051E+02  0.17367309885E+02 -0.11199190673E+02  0.40110974645E+02  0.51100000000E-03 0. -1.
        -11    1    3    3    0    0  0.21452291648E+01  0.17880207632E+01 -0.48216584678E+01  0.55720209135E+01  0.51100000000E-03 0.  1.
         12    1    3    3    0    0 -0.13195377683E+01  0.13028750248E+01  0.99466570241E+00  0.21042868416E+01  0.00000000000E+00 0. -1.
</event>
<event>
 7    1  0.1322363E-009  0.4778727E+02  0.7816164E-02  0.1312668E+00
        -11   -1    0    0    0    0  0.00000000000E+00  0.00000000000E+00  0.45593999997E+02  0.45594000000E+02  0.51100000000E-03 0.  1.
         11   -1    0    0    0    0 -0.00000000000E+00 -0.00000000000E+00 -0.45593999997E+02  0.45594000000E+02  0.51100000000E-03 0. -1.
    9900012    2    1    2    0    0 -0.21634015398E+02 -0.34550367922E+02 -0.14895126642E+02  0.47787270242E+02  0.19999996342E+02 0.  0.
        -12    1    1    2    0    0  0.21634015398E+02  0.34550367922E+02  0.14895126642E+02  0.43400729758E+02  0.00000000000E+00 0.  1.
         11    1    3    3    0    0 -0.35704101606E+01  0.25404178663E+00 -0.29871536205E+00  0.35918793233E+01  0.51100000000E-03 0.  1.
        -11    1    3    3    0    0 -0.64725790528E+00 -0.16117521781E+02 -0.65985110786E+01  0.17427960290E+02  0.51100000000E-03 0. -1.
         12    1    3    3    0    0 -0.17416347332E+02 -0.18686887928E+02 -0.79979002017E+01  0.26767430629E+02  0.00000000000E+00 0. -1.
</event>
<event>
 7    1  0.1322363E-009  0.4778727E+02  0.7816164E-02  0.1312668E+00
        -11   -1    0    0    0    0  0.00000000000E+00  0.00000000000E+00  0.45593999997E+02  0.45594000000E+02  0.51100000000E-03 0.  1.
         11   -1    0    0    0    0 -0.00000000000E+00 -0.00000000000E+00 -0.45593999997E+02  0.45594000000E+02  0.51100000000E-03 0. -1.
    9900012    2    1    2    0    0 -0.30102955182E+02 -0.27140149204E+01 -0.31145936238E+02  0.47787272681E+02  0.20000007461E+02 0.  0.
        -12    1    1    2    0    0  0.30102955182E+02  0.27140149204E+01  0.31145936238E+02  0.43400727319E+02  0.00000000000E+00 0.  1.
         11    1    3    3    0    0 -0.14501403684E+02  0.44673876001E+00 -0.71674240576E+01  0.16182158453E+02  0.51100000000E-03 0. -1.
        -11    1    3    3    0    0  0.28126404077E+00 -0.29227359515E+01 -0.11527085378E+00  0.29385000482E+01  0.51100000000E-03 0.  1.
         12    1    3    3    0    0 -0.15882815539E+02 -0.23801772898E+00 -0.23863241327E+02  0.28666614180E+02  0.00000000000E+00 0. -1.
</event>
<event>
 7    1  0.1322363E-009  0.4778727E+02  0.7816164E-02  0.1312668E+00
        -11   -1    0    0    0    0  0.00000000000E+00  0.00000000000E+00  0.45593999997E+02  0.45594000000E+02  0.51100000000E-03 0. -1.
         11   -1    0    0    0    0 -0.00000000000E+00 -0.00000000000E+00 -0.45593999997E+02  0.45594000000E+02  0.51100000000E-03 0.  1.
    9900012    2    1    2    0    0 -0.35637843765E+02  0.12394341501E+02  0.21446392036E+02  0.47787270273E+02  0.19999996482E+02 0.  0.
        -12    1    1    2    0    0  0.35637843765E+02 -0.12394341501E+02 -0.21446392036E+02  0.43400729727E+02  0.00000000000E+00 0.  1.
         11    1    3    3    0    0 -0.11873091447E+01  0.22216079364E+01 -0.10562998216E+01  0.27314857500E+01  0.51100000000E-03 0. -1.
        -11    1    3    3    0    0 -0.27122154050E+02  0.12838047292E+01  0.18516995140E+02  0.32865460656E+02  0.51100000000E-03 0.  1.
         12    1    3    3    0    0 -0.73283805710E+01  0.88889288359E+01  0.39856967172E+01  0.12190323866E+02  0.00000000000E+00 0. -1.
</event>
<event>
 7    1  0.1322363E-009  0.4778727E+02  0.7816164E-02  0.1312668E+00
        -11   -1    0    0    0    0  0.00000000000E+00  0.00000000000E+00  0.45593999997E+02  0.45594000000E+02  0.51100000000E-03 0.  1.
         11   -1    0    0    0    0 -0.00000000000E+00 -0.00000000000E+00 -0.45593999997E+02  0.45594000000E+02  0.51100000000E-03 0. -1.
    9900012    2    1    2    0    0  0.14239818532E+02 -0.10707739044E+02 -0.39575185392E+02  0.47787269521E+02  0.19999993055E+02 0.  0.
        -12    1    1    2    0    0 -0.14239818532E+02  0.10707739044E+02  0.39575185392E+02  0.43400730479E+02  0.00000000000E+00 0.  1.
         11    1    3    3    0    0  0.30991267174E+01 -0.40457858739E+01 -0.20759691897E+02  0.21376102958E+02  0.51100000000E-03 0. -1.
        -11    1    3    3    0    0  0.11552053954E+02 -0.94291590959E+01 -0.12333924499E+02  0.19351606797E+02  0.51100000000E-03 0.  1.
        -12    1    3    3    0    0 -0.41136213949E+00  0.27672059257E+01 -0.64815689964E+01  0.70595597667E+01  0.00000000000E+00 0.  1.
</event>
<event>
 7    1  0.1322363E-009  0.4778727E+02  0.7816164E-02  0.1312668E+00
        -11   -1    0    0    0    0  0.00000000000E+00  0.00000000000E+00  0.45593999997E+02  0.45594000000E+02  0.51100000000E-03 0.  1.
         11   -1    0    0    0    0 -0.00000000000E+00 -0.00000000000E+00 -0.45593999997E+02  0.45594000000E+02  0.51100000000E-03 0. -1.
    9900012    2    1    2    0    0 -0.61721982921E+01 -0.42933455672E+02 -0.14985111757E+01  0.47787272086E+02  0.20000004749E+02 0.  0.
        -12    1    1    2    0    0  0.61721982921E+01  0.42933455672E+02  0.14985111757E+01  0.43400727914E+02  0.00000000000E+00 0.  1.
         11    1    3    3    0    0 -0.29193753575E+01 -0.21503087116E+02  0.23029595711E+00  0.21701579309E+02  0.51100000000E-03 0. -1.
        -11    1    3    3    0    0 -0.41361398023E+01 -0.33669194510E+01  0.44793245249E+01  0.69647790715E+01  0.51100000000E-03 0.  1.
         12    1    3    3    0    0  0.88331686769E+00 -0.18063449105E+02 -0.62081316577E+01  0.19120913706E+02  0.00000000000E+00 0. -1.
</event>
<event>
 7    1  0.1322363E-009  0.4778727E+02  0.7816164E-02  0.1312668E+00
        -11   -1    0    0    0    0  0.00000000000E+00  0.00000000000E+00  0.45593999997E+02  0.45594000000E+02  0.51100000000E-03 0. -1.
         11   -1    0    0    0    0 -0.00000000000E+00 -0.00000000000E+00 -0.45593999997E+02  0.45594000000E+02  0.51100000000E-03 0.  1.
    9900012    2    1    2    0    0 -0.22217714011E+02 -0.37279372990E+02 -0.49452282274E+00  0.47787273978E+02  0.20000013374E+02 0.  0.
        -12    1    1    2    0    0  0.22217714011E+02  0.37279372990E+02  0.49452282274E+00  0.43400726022E+02  0.00000000000E+00 0.  1.
         11    1    3    3    0    0 -0.11753108909E+02 -0.23735724651E+02  0.25496335562E+01  0.26608660719E+02  0.51100000000E-03 0. -1.
        -11    1    3    3    0    0  0.20687777668E+01 -0.31375782948E+01  0.18227024568E+01  0.41768987912E+01  0.51100000000E-03 0.  1.
        -12    1    3    3    0    0 -0.12533382869E+02 -0.10406070045E+02 -0.48668588357E+01  0.17001714467E+02  0.00000000000E+00 0.  1.
</event>
<event>
 7    1  0.1322363E-009  0.4778721E+02  0.7816164E-02  0.1312668E+00
        -11   -1    0    0    0    0  0.00000000000E+00  0.00000000000E+00  0.45593999997E+02  0.45594000000E+02  0.51100000000E-03 0. -1.
         11   -1    0    0    0    0 -0.00000000000E+00 -0.00000000000E+00 -0.45593999997E+02  0.45594000000E+02  0.51100000000E-03 0.  1.
    9900012    2    1    2    0    0  0.10249415959E+02  0.38775549094E+02 -0.16584175546E+02  0.47787209528E+02  0.19999719518E+02 0.  0.
        -12    1    1    2    0    0 -0.10249415959E+02 -0.38775549094E+02  0.16584175546E+02  0.43400790472E+02  0.00000000000E+00 0.  1.
         11    1    3    3    0    0  0.52738820251E+01  0.38938243096E+01 -0.69407735736E+01  0.95472528734E+01  0.51100000000E-03 0.  1.
        -11    1    3    3    0    0  0.61494372393E+01  0.79699222132E+01 -0.26644064499E+01  0.10413179171E+02  0.51100000000E-03 0. -1.
        -12    1    3    3    0    0 -0.11739033050E+01  0.26911802572E+02 -0.69789955226E+01  0.27826777484E+02  0.00000000000E+00 0.  1.
</event>
<event>
 7    1  0.1322363E-009  0.4778727E+02  0.7816164E-02  0.1312668E+00
        -11   -1    0    0    0    0  0.00000000000E+00  0.00000000000E+00  0.45593999997E+02  0.45594000000E+02  0.51100000000E-03 0.  1.
         11   -1    0    0    0    0 -0.00000000000E+00 -0.00000000000E+00 -0.45593999997E+02  0.45594000000E+02  0.51100000000E-03 0. -1.
    9900012    2    1    2    0    0 -0.26874345762E+01 -0.32884500892E+02 -0.28195929323E+02  0.47787272657E+02  0.20000007352E+02 0.  0.
        -12    1    1    2    0    0  0.26874345762E+01  0.32884500892E+02  0.28195929323E+02  0.43400727343E+02  0.00000000000E+00 0.  1.
         11    1    3    3    0    0  0.20276664820E+01 -0.10076472415E+02 -0.44129786641E+01  0.11185754720E+02  0.51100000000E-03 0. -1.
        -11    1    3    3    0    0 -0.60615808320E+01 -0.12226394764E+01 -0.48725983096E+01  0.78727265938E+01  0.51100000000E-03 0.  1.
        -12    1    3    3    0    0  0.13464797738E+01 -0.21585389001E+02 -0.18910352349E+02  0.28728791344E+02  0.00000000000E+00 0.  1.
</event>
<event>
 7    1  0.1322363E-009  0.4778728E+02  0.7816164E-02  0.1312668E+00
        -11   -1    0    0    0    0  0.00000000000E+00  0.00000000000E+00  0.45593999997E+02  0.45594000000E+02  0.51100000000E-03 0.  1.
         11   -1    0    0    0    0 -0.00000000000E+00 -0.00000000000E+00 -0.45593999997E+02  0.45594000000E+02  0.51100000000E-03 0. -1.
    9900012    2    1    2    0    0 -0.31785240672E+02  0.65829007458E+01 -0.28809479740E+02  0.47787283073E+02  0.20000054845E+02 0.  0.
        -12    1    1    2    0    0  0.31785240672E+02 -0.65829007458E+01  0.28809479740E+02  0.43400716927E+02  0.00000000000E+00 0.  1.
         11    1    3    3    0    0 -0.10789608271E+01 -0.19298353848E+01 -0.30347319696E+01  0.37547329422E+01  0.51100000000E-03 0. -1.
        -11    1    3    3    0    0 -0.23912553250E+02  0.13321877808E+02 -0.20037975087E+02  0.33923488575E+02  0.51100000000E-03 0.  1.
        -12    1    3    3    0    0 -0.67937265957E+01 -0.48091416770E+01 -0.57367726841E+01  0.10109061557E+02  0.00000000000E+00 0.  1.
</event>
<event>
 7    1  0.1322363E-009  0.4778727E+02  0.7816164E-02  0.1312668E+00
        -11   -1    0    0    0    0  0.00000000000E+00  0.00000000000E+00  0.45593999997E+02  0.45594000000E+02  0.51100000000E-03 0.  1.
         11   -1    0    0    0    0 -0.00000000000E+00 -0.00000000000E+00 -0.45593999997E+02  0.45594000000E+02  0.51100000000E-03 0. -1.
    9900012    2    1    2    0    0 -0.14721887447E+02 -0.16327284107E+02 -0.37420701898E+02  0.47787272968E+02  0.20000008772E+02 0.  0.
        -12    1    1    2    0    0  0.14721887447E+02  0.16327284107E+02  0.37420701898E+02  0.43400727032E+02  0.00000000000E+00 0.  1.
         11    1    3    3    0    0 -0.33506634200E+01  0.20433058310E+01 -0.66903381474E+01  0.77564598150E+01  0.51100000000E-03 0. -1.
        -11    1    3    3    0    0  0.27250778180E+01 -0.70804860279E+01 -0.86779154881E+01  0.11526731930E+02  0.51100000000E-03 0.  1.
         12    1    3    3    0    0 -0.14096301845E+02 -0.11290103910E+02 -0.22052448263E+02  0.28504081223E+02  0.00000000000E+00 0. -1.
</event>
<event>
 7    1  0.1322363E-009  0.4778728E+02  0.7816164E-02  0.1312668E+00
        -11   -1    0    0    0    0  0.00000000000E+00  0.00000000000E+00  0.45593999997E+02  0.45594000000E+02  0.51100000000E-03 0.  1.
         11   -1    0    0    0    0 -0.00000000000E+00 -0.00000000000E+00 -0.45593999997E+02  0.45594000000E+02  0.51100000000E-03 0. -1.
    9900012    2    1    2    0    0 -0.20110270565E+02 -0.34814173874E+02 -0.16345427574E+02  0.47787277802E+02  0.20000030811E+02 0.  0.
        -12    1    1    2    0    0  0.20110270565E+02  0.34814173874E+02  0.16345427574E+02  0.43400722198E+02  0.00000000000E+00 0.  1.
         11    1    3    3    0    0 -0.20335741217E+01 -0.12175850170E+02 -0.84504002766E+01  0.14959813373E+02  0.51100000000E-03 0. -1.
        -11    1    3    3    0    0 -0.19514431393E+02 -0.23191456605E+02 -0.77201235079E+01  0.31277100237E+02  0.51100000000E-03 0.  1.
         12    1    3    3    0    0  0.14377349498E+01  0.55313289995E+00 -0.17490378920E+00  0.15503641915E+01  0.00000000000E+00 0. -1.
</event>
<event>
 7    1  0.1322363E-009  0.4778727E+02  0.7816164E-02  0.1312668E+00
        -11   -1    0    0    0    0  0.00000000000E+00  0.00000000000E+00  0.45593999997E+02  0.45594000000E+02  0.51100000000E-03 0.  1.
         11   -1    0    0    0    0 -0.00000000000E+00 -0.00000000000E+00 -0.45593999997E+02  0.45594000000E+02  0.51100000000E-03 0. -1.
    9900012    2    1    2    0    0 -0.25050496122E+01 -0.28324271669E+02 -0.32788470609E+02  0.47787269084E+02  0.19999991063E+02 0.  0.
        -12    1    1    2    0    0  0.25050496122E+01  0.28324271669E+02  0.32788470609E+02  0.43400730916E+02  0.00000000000E+00 0.  1.
         11    1    3    3    0    0  0.20123024221E+01 -0.79122204824E+00 -0.57302674016E+01  0.61246516735E+01  0.51100000000E-03 0.  1.
        -11    1    3    3    0    0  0.48096042812E+01 -0.10280522551E+02 -0.14337366096E+02  0.18286101391E+02  0.51100000000E-03 0. -1.
         12    1    3    3    0    0 -0.93269563155E+01 -0.17252527069E+02 -0.12720837112E+02  0.23376516019E+02  0.00000000000E+00 0. -1.
</event>
<event>
 7    1  0.1322363E-009  0.4778727E+02  0.7816164E-02  0.1312668E+00
        -11   -1    0    0    0    0  0.00000000000E+00  0.00000000000E+00  0.45593999997E+02  0.45594000000E+02  0.51100000000E-03 0.  1.
         11   -1    0    0    0    0 -0.00000000000E+00 -0.00000000000E+00 -0.45593999997E+02  0.45594000000E+02  0.51100000000E-03 0. -1.
    9900012    2    1    2    0    0  0.54420667645E+01 -0.40257892878E+02 -0.15274454543E+02  0.47787274301E+02  0.20000014847E+02 0.  0.
        -12    1    1    2    0    0 -0.54420667645E+01  0.40257892878E+02  0.15274454543E+02  0.43400725699E+02  0.00000000000E+00 0.  1.
         11    1    3    3    0    0  0.79448763507E+01 -0.20544355389E+02 -0.78068486054E+01  0.23369605987E+02  0.51100000000E-03 0. -1.
        -11    1    3    3    0    0  0.10190910407E+00  0.49409614043E+00 -0.36544505205E+01  0.36891090157E+01  0.51100000000E-03 0.  1.
         12    1    3    3    0    0 -0.26047186903E+01 -0.20207633629E+02 -0.38131554174E+01  0.20728559298E+02  0.00000000000E+00 0. -1.
</event>
<event>
 7    1  0.1322363E-009  0.4778727E+02  0.7816164E-02  0.1312668E+00
        -11   -1    0    0    0    0  0.00000000000E+00  0.00000000000E+00  0.45593999997E+02  0.45594000000E+02  0.51100000000E-03 0.  1.
         11   -1    0    0    0    0 -0.00000000000E+00 -0.00000000000E+00 -0.45593999997E+02  0.45594000000E+02  0.51100000000E-03 0. -1.
    9900012    2    1    2    0    0  0.41799397182E+02  0.88626034034E+01  0.76083964148E+01  0.47787273740E+02  0.20000012291E+02 0.  0.
        -12    1    1    2    0    0 -0.41799397182E+02 -0.88626034034E+01 -0.76083964148E+01  0.43400726260E+02  0.00000000000E+00 0.  1.
         11    1    3    3    0    0  0.92606533447E+01  0.74570462215E+01  0.21591417060E+01  0.12084251400E+02  0.51100000000E-03 0.  1.
        -11    1    3    3    0    0  0.41804324202E+01 -0.32487654915E+01  0.45019722505E+01  0.69496940109E+01  0.51100000000E-03 0. -1.
         12    1    3    3    0    0  0.28358311417E+02  0.46543226734E+01  0.94728245828E+00  0.28753328330E+02  0.00000000000E+00 0. -1.
</event>
<event>
 7    1  0.1322363E-009  0.4778727E+02  0.7816164E-02  0.1312668E+00
        -11   -1    0    0    0    0  0.00000000000E+00  0.00000000000E+00  0.45593999997E+02  0.45594000000E+02  0.51100000000E-03 0.  1.
         11   -1    0    0    0    0 -0.00000000000E+00 -0.00000000000E+00 -0.45593999997E+02  0.45594000000E+02  0.51100000000E-03 0. -1.
    9900012    2    1    2    0    0 -0.28695970608E+02 -0.12714339333E+01 -0.32535336967E+02  0.47787269304E+02  0.19999992065E+02 0.  0.
        -12    1    1    2    0    0  0.28695970608E+02  0.12714339333E+01  0.32535336967E+02  0.43400730696E+02  0.00000000000E+00 0.  1.
         11    1    3    3    0    0 -0.13971205180E+01  0.22342300690E+01 -0.69506033605E+01  0.74333449455E+01  0.51100000000E-03 0. -1.
        -11    1    3    3    0    0 -0.15773854810E+02 -0.92647042931E+01 -0.15872052354E+02  0.24219233831E+02  0.51100000000E-03 0.  1.
         12    1    3    3    0    0 -0.11524995281E+02  0.57590402908E+01 -0.97126812523E+01  0.16134690527E+02  0.00000000000E+00 0. -1.
</event>
<event>
 7    1  0.1322363E-009  0.4778728E+02  0.7816164E-02  0.1312668E+00
        -11   -1    0    0    0    0  0.00000000000E+00  0.00000000000E+00  0.45593999997E+02  0.45594000000E+02  0.51100000000E-03 0.  1.
         11   -1    0    0    0    0 -0.00000000000E+00 -0.00000000000E+00 -0.45593999997E+02  0.45594000000E+02  0.51100000000E-03 0. -1.
    9900012    2    1    2    0    0  0.43098525253E+02  0.50927582644E+01  0.45118105404E+00  0.47787278461E+02  0.20000033817E+02 0.  0.
        -12    1    1    2    0    0 -0.43098525253E+02 -0.50927582644E+01 -0.45118105404E+00  0.43400721539E+02  0.00000000000E+00 0.  1.
         11    1    3    3    0    0  0.33291854311E+02  0.53344967012E+01  0.79738372676E-01  0.33716624638E+02  0.51100000000E-03 0. -1.
        -11    1    3    3    0    0  0.26633902076E+01  0.46832060866E+01  0.36825222372E-01  0.53877103677E+01  0.51100000000E-03 0.  1.
        -12    1    3    3    0    0  0.71432807344E+01 -0.49249445234E+01  0.33461745899E+00  0.86829434556E+01  0.00000000000E+00 0.  1.
</event>
<event>
 7    1  0.1322363E-009  0.4778727E+02  0.7816164E-02  0.1312668E+00
        -11   -1    0    0    0    0  0.00000000000E+00  0.00000000000E+00  0.45593999997E+02  0.45594000000E+02  0.51100000000E-03 0.  1.
         11   -1    0    0    0    0 -0.00000000000E+00 -0.00000000000E+00 -0.45593999997E+02  0.45594000000E+02  0.51100000000E-03 0. -1.
    9900012    2    1    2    0    0 -0.38384715980E+02 -0.11869305024E+02 -0.16412084144E+02  0.47787270414E+02  0.19999997125E+02 0.  0.
        -12    1    1    2    0    0  0.38384715980E+02  0.11869305024E+02  0.16412084144E+02  0.43400729586E+02  0.00000000000E+00 0.  1.
         11    1    3    3    0    0 -0.11160942853E+02 -0.73855071094E+01  0.87311416843E-02  0.13383289474E+02  0.51100000000E-03 0. -1.
        -11    1    3    3    0    0 -0.21371487575E+01 -0.40683407019E+01 -0.51392619062E+01  0.68942595020E+01  0.51100000000E-03 0.  1.
         12    1    3    3    0    0 -0.25086624370E+02 -0.41545721292E+00 -0.11281553380E+02  0.27509721438E+02  0.00000000000E+00 0. -1.
</event>
<event>
 7    1  0.1322363E-009  0.4778727E+02  0.7816164E-02  0.1312668E+00
        -11   -1    0    0    0    0  0.00000000000E+00  0.00000000000E+00  0.45593999997E+02  0.45594000000E+02  0.51100000000E-03 0.  1.
         11   -1    0    0    0    0 -0.00000000000E+00 -0.00000000000E+00 -0.45593999997E+02  0.45594000000E+02  0.51100000000E-03 0. -1.
    9900012    2    1    2    0    0  0.39916438729E+02 -0.66107261277E+01 -0.15703483798E+02  0.47787272078E+02  0.20000004714E+02 0.  0.
        -12    1    1    2    0    0 -0.39916438729E+02  0.66107261277E+01  0.15703483798E+02  0.43400727922E+02  0.00000000000E+00 0.  1.
         11    1    3    3    0    0  0.54673246582E+01  0.33701154510E+01 -0.71982542269E+01  0.96469778298E+01  0.51100000000E-03 0. -1.
        -11    1    3    3    0    0  0.26389728826E+02 -0.80445890958E+01 -0.10659325659E+02  0.29576247649E+02  0.51100000000E-03 0.  1.
        -12    1    3    3    0    0  0.80593852447E+01 -0.19362524830E+01  0.21540960879E+01  0.85640465994E+01  0.00000000000E+00 0.  1.
</event>
<event>
 7    1  0.1322363E-009  0.4778732E+02  0.7816164E-02  0.1312668E+00
        -11   -1    0    0    0    0  0.00000000000E+00  0.00000000000E+00  0.45593999997E+02  0.45594000000E+02  0.51100000000E-03 0. -1.
         11   -1    0    0    0    0 -0.00000000000E+00 -0.00000000000E+00 -0.45593999997E+02  0.45594000000E+02  0.51100000000E-03 0.  1.
    9900012    2    1    2    0    0  0.14575643951E+02 -0.40841488340E+02 -0.17728101058E+01  0.47787315419E+02  0.20000202322E+02 0.  0.
        -12    1    1    2    0    0 -0.14575643951E+02  0.40841488340E+02  0.17728101058E+01  0.43400684581E+02  0.00000000000E+00 0.  1.
         11    1    3    3    0    0  0.49476433193E+01 -0.12667623140E+02 -0.19661029159E+01  0.13740939246E+02  0.51100000000E-03 0. -1.
        -11    1    3    3    0    0  0.14024927431E+01 -0.23238822539E+02 -0.39208405476E+01  0.23608956982E+02  0.51100000000E-03 0.  1.
         12    1    3    3    0    0  0.82255078891E+01 -0.49350426603E+01  0.41141333577E+01  0.10437419191E+02  0.00000000000E+00 0. -1.
</event>
<event>
 7    1  0.1322363E-009  0.4778727E+02  0.7816164E-02  0.1312668E+00
        -11   -1    0    0    0    0  0.00000000000E+00  0.00000000000E+00  0.45593999997E+02  0.45594000000E+02  0.51100000000E-03 0. -1.
         11   -1    0    0    0    0 -0.00000000000E+00 -0.00000000000E+00 -0.45593999997E+02  0.45594000000E+02  0.51100000000E-03 0.  1.
    9900012    2    1    2    0    0 -0.43225021096E+02  0.25355963273E+01  0.29650229903E+01  0.47787273522E+02  0.20000011298E+02 0.  0.
        -12    1    1    2    0    0  0.43225021096E+02 -0.25355963273E+01 -0.29650229903E+01  0.43400726478E+02  0.00000000000E+00 0.  1.
         11    1    3    3    0    0 -0.98018322657E+01 -0.20973091393E+01  0.37768051036E+01  0.10711623520E+02  0.51100000000E-03 0. -1.
        -11    1    3    3    0    0 -0.27278175407E+02 -0.20240773481E+01  0.24125763745E+01  0.27459356651E+02  0.51100000000E-03 0.  1.
        -12    1    3    3    0    0 -0.61450134226E+01  0.66569828147E+01 -0.32243584877E+01  0.96162933512E+01  0.00000000000E+00 0.  1.
</event>
<event>
 7    1  0.1322363E-009  0.4778727E+02  0.7816164E-02  0.1312668E+00
        -11   -1    0    0    0    0  0.00000000000E+00  0.00000000000E+00  0.45593999997E+02  0.45594000000E+02  0.51100000000E-03 0.  1.
         11   -1    0    0    0    0 -0.00000000000E+00 -0.00000000000E+00 -0.45593999997E+02  0.45594000000E+02  0.51100000000E-03 0. -1.
    9900012    2    1    2    0    0  0.27000486254E+02  0.33793434641E+02  0.35498266742E+01  0.47787265534E+02  0.19999974876E+02 0.  0.
        -12    1    1    2    0    0 -0.27000486254E+02 -0.33793434641E+02 -0.35498266742E+01  0.43400734466E+02  0.00000000000E+00 0.  1.
         11    1    3    3    0    0  0.13559540836E+02  0.15423516850E+02  0.75861309659E+01  0.21892816242E+02  0.51100000000E-03 0.  1.
        -11    1    3    3    0    0  0.85175637940E+00 -0.15713661492E+01 -0.11746069389E+01  0.21387805466E+01  0.51100000000E-03 0. -1.
         12    1    3    3    0    0  0.12589189039E+02  0.19941283940E+02 -0.28616973528E+01  0.23755668746E+02  0.00000000000E+00 0. -1.
</event>
<event>
 7    1  0.1322363E-009  0.4778727E+02  0.7816164E-02  0.1312668E+00
        -11   -1    0    0    0    0  0.00000000000E+00  0.00000000000E+00  0.45593999997E+02  0.45594000000E+02  0.51100000000E-03 0. -1.
         11   -1    0    0    0    0 -0.00000000000E+00 -0.00000000000E+00 -0.45593999997E+02  0.45594000000E+02  0.51100000000E-03 0.  1.
    9900012    2    1    2    0    0 -0.12593806531E+02 -0.37170188025E+02 -0.18530958770E+02  0.47787271047E+02  0.20000000013E+02 0.  0.
        -12    1    1    2    0    0  0.12593806531E+02  0.37170188025E+02  0.18530958770E+02  0.43400728953E+02  0.00000000000E+00 0.  1.
         11    1    3    3    0    0 -0.43159801597E+01 -0.16699257740E+02 -0.13734242884E+01  0.17302577506E+02  0.51100000000E-03 0. -1.
        -11    1    3    3    0    0 -0.14262611454E+01 -0.15640293822E+01  0.18516172969E+01  0.28122758823E+01  0.51100000000E-03 0.  1.
        -12    1    3    3    0    0 -0.68515652254E+01 -0.18906900902E+02 -0.19009151778E+02  0.27672417659E+02  0.00000000000E+00 0.  1.
</event>
<event>
 7    1  0.1322363E-009  0.4778727E+02  0.7816164E-02  0.1312668E+00
        -11   -1    0    0    0    0  0.00000000000E+00  0.00000000000E+00  0.45593999997E+02  0.45594000000E+02  0.51100000000E-03 0. -1.
         11   -1    0    0    0    0 -0.00000000000E+00 -0.00000000000E+00 -0.45593999997E+02  0.45594000000E+02  0.51100000000E-03 0.  1.
    9900012    2    1    2    0    0 -0.41648974910E+02  0.12182990247E+02  0.74904254522E+00  0.47787269279E+02  0.19999991950E+02 0.  0.
        -12    1    1    2    0    0  0.41648974910E+02 -0.12182990247E+02 -0.74904254522E+00  0.43400730721E+02  0.00000000000E+00 0.  1.
         11    1    3    3    0    0 -0.65634137064E+01  0.67111697607E+01  0.34434806507E+01  0.99987878411E+01  0.51100000000E-03 0. -1.
        -11    1    3    3    0    0 -0.11056619192E+02  0.25337691333E+01 -0.68140768677E+01  0.13232552959E+02  0.51100000000E-03 0.  1.
         12    1    3    3    0    0 -0.24028942011E+02  0.29380513526E+01  0.41196387622E+01  0.24555928479E+02  0.00000000000E+00 0. -1.
</event>
<event>
 7    1  0.1479378E-009  0.4778728E+02  0.7816164E-02  0.1312668E+00
        -11   -1    0    0    0    0  0.00000000000E+00  0.00000000000E+00  0.45593999997E+02  0.45594000000E+02  0.51100000000E-03 0. -1.
         11   -1    0    0    0    0 -0.00000000000E+00 -0.00000000000E+00 -0.45593999997E+02  0.45594000000E+02  0.51100000000E-03 0.  1.
    9900012    2    1    2    0    0  0.29749634678E+02 -0.74670883302E+01  0.30705449289E+02  0.47787276646E+02  0.20000025539E+02 0.  0.
        -12    1    1    2    0    0 -0.29749634678E+02  0.74670883302E+01 -0.30705449289E+02  0.43400723354E+02  0.00000000000E+00 0.  1.
         11    1    3    3    0    0  0.13644447593E+02 -0.75188756155E+01  0.14812717480E+02  0.21497000721E+02  0.51100000000E-03 0. -1.
        -11    1    3    3    0    0  0.11640702191E+01  0.85700813651E+00 -0.23112761650E+01  0.27260814722E+01  0.51100000000E-03 0.  1.
         12    1    3    3    0    0  0.14941116867E+02 -0.80522085124E+00  0.18204007974E+02  0.23564194452E+02  0.00000000000E+00 0. -1.
</event>
<event>
 7    1  0.1322363E-009  0.4778728E+02  0.7816164E-02  0.1312668E+00
        -11   -1    0    0    0    0  0.00000000000E+00  0.00000000000E+00  0.45593999997E+02  0.45594000000E+02  0.51100000000E-03 0.  1.
         11   -1    0    0    0    0 -0.00000000000E+00 -0.00000000000E+00 -0.45593999997E+02  0.45594000000E+02  0.51100000000E-03 0. -1.
    9900012    2    1    2    0    0  0.14332864025E+02  0.86813417107E+01 -0.40035309585E+02  0.47787277671E+02  0.20000030215E+02 0.  0.
        -12    1    1    2    0    0 -0.14332864025E+02 -0.86813417107E+01  0.40035309585E+02  0.43400722329E+02  0.00000000000E+00 0.  1.
         11    1    3    3    0    0  0.20502697233E+01  0.10937577651E+02 -0.11278601938E+02  0.15844275709E+02  0.51100000000E-03 0. -1.
        -11    1    3    3    0    0  0.71140402620E+01  0.14268750289E+00 -0.95530051471E+01  0.11911752020E+02  0.51100000000E-03 0.  1.
         12    1    3    3    0    0  0.51685540396E+01 -0.23989234432E+01 -0.19203702500E+02  0.20031249943E+02  0.00000000000E+00 0. -1.
</event>
<event>
 7    1  0.1322363E-009  0.4778727E+02  0.7816164E-02  0.1312668E+00
        -11   -1    0    0    0    0  0.00000000000E+00  0.00000000000E+00  0.45593999997E+02  0.45594000000E+02  0.51100000000E-03 0.  1.
         11   -1    0    0    0    0 -0.00000000000E+00 -0.00000000000E+00 -0.45593999997E+02  0.45594000000E+02  0.51100000000E-03 0. -1.
    9900012    2    1    2    0    0 -0.12041663187E+02 -0.40785008038E+02 -0.86720691848E+01  0.47787270549E+02  0.19999997740E+02 0.  0.
        -12    1    1    2    0    0  0.12041663187E+02  0.40785008038E+02  0.86720691848E+01  0.43400729451E+02  0.00000000000E+00 0.  1.
         11    1    3    3    0    0 -0.41510987942E+01 -0.16308965299E+02  0.47744313425E+01  0.17493117654E+02  0.51100000000E-03 0. -1.
        -11    1    3    3    0    0 -0.30197117708E+01 -0.19472809831E+02 -0.73730979238E+01  0.21039761290E+02  0.51100000000E-03 0.  1.
        -12    1    3    3    0    0 -0.48708526222E+01 -0.50032329070E+01 -0.60734026035E+01  0.92543916047E+01  0.00000000000E+00 0.  1.
</event>
<event>
 7    1  0.1322363E-009  0.4778727E+02  0.7816164E-02  0.1312668E+00
        -11   -1    0    0    0    0  0.00000000000E+00  0.00000000000E+00  0.45593999997E+02  0.45594000000E+02  0.51100000000E-03 0. -1.
         11   -1    0    0    0    0 -0.00000000000E+00 -0.00000000000E+00 -0.45593999997E+02  0.45594000000E+02  0.51100000000E-03 0.  1.
    9900012    2    1    2    0    0  0.28303242355E+02 -0.29027561485E+02 -0.15490333544E+02  0.47787270895E+02  0.19999999318E+02 0.  0.
        -12    1    1    2    0    0 -0.28303242355E+02  0.29027561485E+02  0.15490333544E+02  0.43400729105E+02  0.00000000000E+00 0.  1.
         11    1    3    3    0    0  0.17428629331E+02 -0.11383878187E+02 -0.55398813518E+01  0.21541589741E+02  0.51100000000E-03 0. -1.
        -11    1    3    3    0    0  0.23955337897E+01 -0.86264103895E+01  0.18526031881E+01  0.91425202859E+01  0.51100000000E-03 0.  1.
        -12    1    3    3    0    0  0.84790792347E+01 -0.90172729079E+01 -0.11803055380E+02  0.17103160868E+02  0.00000000000E+00 0.  1.
</event>
<event>
 7    1  0.1660268E-009  0.4778726E+02  0.7816164E-02  0.1312668E+00
        -11   -1    0    0    0    0  0.00000000000E+00  0.00000000000E+00  0.45593999997E+02  0.45594000000E+02  0.51100000000E-03 0.  1.
         11   -1    0    0    0    0 -0.00000000000E+00 -0.00000000000E+00 -0.45593999997E+02  0.45594000000E+02  0.51100000000E-03 0. -1.
    9900012    2    1    2    0    0  0.28538458403E+02 -0.21688711618E+01 -0.32626323755E+02  0.47787255630E+02  0.19999929717E+02 0.  0.
        -12    1    1    2    0    0 -0.28538458403E+02  0.21688711618E+01  0.32626323755E+02  0.43400744370E+02  0.00000000000E+00 0.  1.
         11    1    3    3    0    0  0.25408271502E+02 -0.21131352824E+00 -0.24564325679E+02  0.35341632821E+02  0.51100000000E-03 0. -1.
        -11    1    3    3    0    0  0.13150848876E+01 -0.18079797427E+01 -0.97254068589E+01  0.99790669826E+01  0.51100000000E-03 0.  1.
        -12    1    3    3    0    0  0.18151020134E+01 -0.14957789088E+00  0.16634087828E+01  0.24665558260E+01  0.00000000000E+00 0.  1.
</event>
<event>
 7    1  0.1322363E-009  0.4778727E+02  0.7816164E-02  0.1312668E+00
        -11   -1    0    0    0    0  0.00000000000E+00  0.00000000000E+00  0.45593999997E+02  0.45594000000E+02  0.51100000000E-03 0.  1.
         11   -1    0    0    0    0 -0.00000000000E+00 -0.00000000000E+00 -0.45593999997E+02  0.45594000000E+02  0.51100000000E-03 0. -1.
    9900012    2    1    2    0    0 -0.15126370744E+02  0.20744837101E+02 -0.34992399486E+02  0.47787269821E+02  0.19999994423E+02 0.  0.
        -12    1    1    2    0    0  0.15126370744E+02 -0.20744837101E+02  0.34992399486E+02  0.43400730179E+02  0.00000000000E+00 0.  1.
         11    1    3    3    0    0 -0.17398084996E+02  0.12517471735E+02 -0.22515337431E+02  0.31085702180E+02  0.51100000000E-03 0. -1.
        -11    1    3    3    0    0 -0.21690240281E+00  0.58759618547E+01 -0.29510463833E+01  0.65789550377E+01  0.51100000000E-03 0.  1.
         12    1    3    3    0    0  0.24886166546E+01  0.23514035112E+01 -0.95260156721E+01  0.10122612603E+02  0.00000000000E+00 0. -1.
</event>
<event>
 7    1  0.1322363E-009  0.4778727E+02  0.7816164E-02  0.1312668E+00
        -11   -1    0    0    0    0  0.00000000000E+00  0.00000000000E+00  0.45593999997E+02  0.45594000000E+02  0.51100000000E-03 0.  1.
         11   -1    0    0    0    0 -0.00000000000E+00 -0.00000000000E+00 -0.45593999997E+02  0.45594000000E+02  0.51100000000E-03 0. -1.
    9900012    2    1    2    0    0  0.76939988893E+01  0.39879876801E+02 -0.15297752415E+02  0.47787269344E+02  0.19999992246E+02 0.  0.
        -12    1    1    2    0    0 -0.76939988893E+01 -0.39879876801E+02  0.15297752415E+02  0.43400730656E+02  0.00000000000E+00 0.  1.
         11    1    3    3    0    0 -0.39549118448E+01  0.19990774131E+02 -0.10624804793E+02  0.22981706969E+02  0.51100000000E-03 0.  1.
        -11    1    3    3    0    0  0.47295329279E+01  0.13909299414E+02 -0.36371285494E+00  0.14695896679E+02  0.51100000000E-03 0. -1.
        -12    1    3    3    0    0  0.69193778062E+01  0.59798032562E+01 -0.43092347665E+01  0.10109665696E+02  0.00000000000E+00 0.  1.
</event>
<event>
 7    1  0.1322363E-009  0.4778727E+02  0.7816164E-02  0.1312668E+00
        -11   -1    0    0    0    0  0.00000000000E+00  0.00000000000E+00  0.45593999997E+02  0.45594000000E+02  0.51100000000E-03 0.  1.
         11   -1    0    0    0    0 -0.00000000000E+00 -0.00000000000E+00 -0.45593999997E+02  0.45594000000E+02  0.51100000000E-03 0. -1.
    9900012    2    1    2    0    0  0.18245089188E+02 -0.16540060078E+01 -0.39344683096E+02  0.47787273010E+02  0.20000008963E+02 0.  0.
        -12    1    1    2    0    0 -0.18245089188E+02  0.16540060078E+01  0.39344683096E+02  0.43400726990E+02  0.00000000000E+00 0.  1.
         11    1    3    3    0    0  0.26803533464E+01 -0.33873542291E+01  0.91261866316E+00  0.44148992990E+01  0.51100000000E-03 0. -1.
        -11    1    3    3    0    0 -0.17868335896E+00  0.25559827809E+00 -0.54840181594E+00  0.63087481752E+00  0.51100000000E-03 0.  1.
        -12    1    3    3    0    0  0.15743419200E+02  0.14777499433E+01 -0.39708899943E+02  0.42741498894E+02  0.00000000000E+00 0.  1.
</event>
<event>
 7    1  0.1322363E-009  0.4778724E+02  0.7816164E-02  0.1312668E+00
        -11   -1    0    0    0    0  0.00000000000E+00  0.00000000000E+00  0.45593999997E+02  0.45594000000E+02  0.51100000000E-03 0. -1.
         11   -1    0    0    0    0 -0.00000000000E+00 -0.00000000000E+00 -0.45593999997E+02  0.45594000000E+02  0.51100000000E-03 0.  1.
    9900012    2    1    2    0    0 -0.16896804493E+02 -0.35516320575E+02 -0.18349802150E+02  0.47787236548E+02  0.19999842716E+02 0.  0.
        -12    1    1    2    0    0  0.16896804493E+02  0.35516320575E+02  0.18349802150E+02  0.43400763452E+02  0.00000000000E+00 0.  1.
         11    1    3    3    0    0 -0.50869931901E+01 -0.94556557875E+01 -0.12834967812E+02  0.16733897486E+02  0.51100000000E-03 0. -1.
        -11    1    3    3    0    0 -0.39039853294E+01 -0.98156870032E+00 -0.20895414647E+01  0.45355002326E+01  0.51100000000E-03 0.  1.
         12    1    3    3    0    0 -0.79058259733E+01 -0.25079096088E+02 -0.34252928728E+01  0.26517838829E+02  0.00000000000E+00 0. -1.
</event>
<event>
 7    1  0.1322363E-009  0.4778727E+02  0.7816164E-02  0.1312668E+00
        -11   -1    0    0    0    0  0.00000000000E+00  0.00000000000E+00  0.45593999997E+02  0.45594000000E+02  0.51100000000E-03 0.  1.
         11   -1    0    0    0    0 -0.00000000000E+00 -0.00000000000E+00 -0.45593999997E+02  0.45594000000E+02  0.51100000000E-03 0. -1.
    9900012    2    1    2    0    0 -0.89379756587E+01 -0.19364788010E+02 -0.37798689080E+02  0.47787270516E+02  0.19999997590E+02 0.  0.
        -12    1    1    2    0    0  0.89379756587E+01  0.19364788010E+02  0.37798689080E+02  0.43400729484E+02  0.00000000000E+00 0.  1.
         11    1    3    3    0    0 -0.47915665627E+01 -0.89327661052E+01 -0.13013299802E+02  0.16495435502E+02  0.51100000000E-03 0. -1.
        -11    1    3    3    0    0  0.21676332445E+01  0.33216446820E+01 -0.50002977875E+01  0.63823926157E+01  0.51100000000E-03 0.  1.
        -12    1    3    3    0    0 -0.63140423406E+01 -0.13753666587E+02 -0.19785091491E+02  0.24909442398E+02  0.00000000000E+00 0.  1.
</event>
<event>
 7    1  0.1322363E-009  0.4778727E+02  0.7816164E-02  0.1312668E+00
        -11   -1    0    0    0    0  0.00000000000E+00  0.00000000000E+00  0.45593999997E+02  0.45594000000E+02  0.51100000000E-03 0.  1.
         11   -1    0    0    0    0 -0.00000000000E+00 -0.00000000000E+00 -0.45593999997E+02  0.45594000000E+02  0.51100000000E-03 0. -1.
    9900012    2    1    2    0    0 -0.88675842980E+01 -0.18829757379E+02 -0.38084504740E+02  0.47787270565E+02  0.19999997814E+02 0.  0.
        -12    1    1    2    0    0  0.88675842980E+01  0.18829757379E+02  0.38084504740E+02  0.43400729435E+02  0.00000000000E+00 0.  1.
         11    1    3    3    0    0 -0.62737460010E+01 -0.14646400841E+02 -0.37314019288E+02  0.40573550278E+02  0.51100000000E-03 0. -1.
        -11    1    3    3    0    0  0.15278921594E+01 -0.19459179661E+01 -0.99229866339E-01  0.24760650252E+01  0.51100000000E-03 0.  1.
         12    1    3    3    0    0 -0.41217304565E+01 -0.22374385714E+01 -0.67125558539E+00  0.47376552616E+01  0.00000000000E+00 0. -1.
</event>
<event>
 7    1  0.1322363E-009  0.4778727E+02  0.7816164E-02  0.1312668E+00
        -11   -1    0    0    0    0  0.00000000000E+00  0.00000000000E+00  0.45593999997E+02  0.45594000000E+02  0.51100000000E-03 0.  1.
         11   -1    0    0    0    0 -0.00000000000E+00 -0.00000000000E+00 -0.45593999997E+02  0.45594000000E+02  0.51100000000E-03 0. -1.
    9900012    2    1    2    0    0  0.27142475493E+02  0.31917161568E+02 -0.11322714424E+02  0.47787273735E+02  0.20000012267E+02 0.  0.
        -12    1    1    2    0    0 -0.27142475493E+02 -0.31917161568E+02  0.11322714424E+02  0.43400726265E+02  0.00000000000E+00 0.  1.
         11    1    3    3    0    0  0.25843876821E+02  0.27562811076E+02 -0.60924931969E+01  0.38271830335E+02  0.51100000000E-03 0. -1.
        -11    1    3    3    0    0  0.35887498904E+01  0.15761416452E+01 -0.11737331639E+01  0.40915764765E+01  0.51100000000E-03 0.  1.
        -12    1    3    3    0    0 -0.22901512191E+01  0.27782088468E+01 -0.40564880629E+01  0.54238669239E+01  0.00000000000E+00 0.  1.
</event>
<event>
 7    1  0.1322363E-009  0.4778727E+02  0.7816164E-02  0.1312668E+00
        -11   -1    0    0    0    0  0.00000000000E+00  0.00000000000E+00  0.45593999997E+02  0.45594000000E+02  0.51100000000E-03 0.  1.
         11   -1    0    0    0    0 -0.00000000000E+00 -0.00000000000E+00 -0.45593999997E+02  0.45594000000E+02  0.51100000000E-03 0. -1.
    9900012    2    1    2    0    0  0.38059975693E+02 -0.83347550750E+01 -0.19120489502E+02  0.47787274077E+02  0.20000013825E+02 0.  0.
        -12    1    1    2    0    0 -0.38059975693E+02  0.83347550750E+01  0.19120489502E+02  0.43400725923E+02  0.00000000000E+00 0.  1.
         11    1    3    3    0    0  0.70885273215E+01  0.12678832825E+01 -0.75525086785E+01  0.10435283188E+02  0.51100000000E-03 0. -1.
        -11    1    3    3    0    0  0.17183051212E+02 -0.86016919823E+01  0.16969499073E+00  0.19216533260E+02  0.51100000000E-03 0.  1.
        -12    1    3    3    0    0  0.13788397160E+02 -0.10009463752E+01 -0.11737675814E+02  0.18135457628E+02  0.00000000000E+00 0.  1.
</event>
<event>
 7    1  0.1322363E-009  0.4778727E+02  0.7816164E-02  0.1312668E+00
        -11   -1    0    0    0    0  0.00000000000E+00  0.00000000000E+00  0.45593999997E+02  0.45594000000E+02  0.51100000000E-03 0.  1.
         11   -1    0    0    0    0 -0.00000000000E+00 -0.00000000000E+00 -0.45593999997E+02  0.45594000000E+02  0.51100000000E-03 0. -1.
    9900012    2    1    2    0    0  0.27629498485E+02  0.27342158591E+02 -0.19303900945E+02  0.47787269422E+02  0.19999992605E+02 0.  0.
        -12    1    1    2    0    0 -0.27629498485E+02 -0.27342158591E+02  0.19303900945E+02  0.43400730578E+02  0.00000000000E+00 0.  1.
         11    1    3    3    0    0  0.14006297695E+02  0.21377341420E+02 -0.14136379826E+02  0.29206237966E+02  0.51100000000E-03 0. -1.
        -11    1    3    3    0    0  0.86511014305E+01  0.65796327542E+01 -0.73453279608E+01  0.13118192187E+02  0.51100000000E-03 0.  1.
        -12    1    3    3    0    0  0.49720993598E+01 -0.61481558277E+00  0.21778068414E+01  0.54628392693E+01  0.00000000000E+00 0.  1.
</event>
<event>
 7    1  0.1322363E-009  0.4778727E+02  0.7816164E-02  0.1312668E+00
        -11   -1    0    0    0    0  0.00000000000E+00  0.00000000000E+00  0.45593999997E+02  0.45594000000E+02  0.51100000000E-03 0. -1.
         11   -1    0    0    0    0 -0.00000000000E+00 -0.00000000000E+00 -0.45593999997E+02  0.45594000000E+02  0.51100000000E-03 0.  1.
    9900012    2    1    2    0    0  0.39187724072E+02  0.15458637158E+02 -0.10439166069E+02  0.47787269949E+02  0.19999995007E+02 0.  0.
        -12    1    1    2    0    0 -0.39187724072E+02 -0.15458637158E+02  0.10439166069E+02  0.43400730051E+02  0.00000000000E+00 0.  1.
         11    1    3    3    0    0  0.33253088734E+02  0.17961770479E+02 -0.94305985746E+01  0.38952911301E+02  0.51100000000E-03 0. -1.
        -11    1    3    3    0    0  0.93788148721E+00 -0.37383048577E+00 -0.29095718701E+01  0.30797694141E+01  0.51100000000E-03 0.  1.
         12    1    3    3    0    0  0.49967538512E+01 -0.21293028359E+01  0.19010043759E+01  0.57545892341E+01  0.00000000000E+00 0. -1.
</event>
<event>
 7    1  0.1322363E-009  0.4778727E+02  0.7816164E-02  0.1312668E+00
        -11   -1    0    0    0    0  0.00000000000E+00  0.00000000000E+00  0.45593999997E+02  0.45594000000E+02  0.51100000000E-03 0. -1.
         11   -1    0    0    0    0 -0.00000000000E+00 -0.00000000000E+00 -0.45593999997E+02  0.45594000000E+02  0.51100000000E-03 0.  1.
    9900012    2    1    2    0    0  0.32213035322E+02  0.91828665570E-01  0.29084965364E+02  0.47787270889E+02  0.19999999292E+02 0.  0.
        -12    1    1    2    0    0 -0.32213035322E+02 -0.91828665570E-01 -0.29084965364E+02  0.43400729111E+02  0.00000000000E+00 0.  1.
         11    1    3    3    0    0  0.14598651827E+01 -0.14088789228E+01  0.13638537016E+01  0.24446356275E+01  0.51100000000E-03 0. -1.
        -11    1    3    3    0    0  0.12152606144E+02 -0.82911761413E+01  0.13469657827E+02  0.19946456330E+02  0.51100000000E-03 0.  1.
         12    1    3    3    0    0  0.18600563995E+02  0.97918837297E+01  0.14251453835E+02  0.25396178932E+02  0.00000000000E+00 0. -1.
</event>
<event>
 7    1  0.1322363E-009  0.4778727E+02  0.7816164E-02  0.1312668E+00
        -11   -1    0    0    0    0  0.00000000000E+00  0.00000000000E+00  0.45593999997E+02  0.45594000000E+02  0.51100000000E-03 0.  1.
         11   -1    0    0    0    0 -0.00000000000E+00 -0.00000000000E+00 -0.45593999997E+02  0.45594000000E+02  0.51100000000E-03 0. -1.
    9900012    2    1    2    0    0 -0.27239621154E+02 -0.33393877839E+02  0.51454186405E+01  0.47787269928E+02  0.19999994912E+02 0.  0.
        -12    1    1    2    0    0  0.27239621154E+02  0.33393877839E+02 -0.51454186405E+01  0.43400730072E+02  0.00000000000E+00 0.  1.
         11    1    3    3    0    0 -0.14310652239E+02 -0.11642556769E+02 -0.35750590523E+01  0.18791618959E+02  0.51100000000E-03 0. -1.
        -11    1    3    3    0    0 -0.33516994714E+01 -0.14883749805E+02  0.18869926605E+01  0.15372723869E+02  0.51100000000E-03 0.  1.
        -12    1    3    3    0    0 -0.95772694435E+01 -0.68675712657E+01  0.68334850323E+01  0.13622927100E+02  0.00000000000E+00 0.  1.
</event>
<event>
 7    1  0.1322363E-009  0.4778727E+02  0.7816164E-02  0.1312668E+00
        -11   -1    0    0    0    0  0.00000000000E+00  0.00000000000E+00  0.45593999997E+02  0.45594000000E+02  0.51100000000E-03 0. -1.
         11   -1    0    0    0    0 -0.00000000000E+00 -0.00000000000E+00 -0.45593999997E+02  0.45594000000E+02  0.51100000000E-03 0.  1.
    9900012    2    1    2    0    0 -0.35897348650E+02 -0.24334028849E+02 -0.16907832518E+01  0.47787270189E+02  0.19999996098E+02 0.  0.
        -12    1    1    2    0    0  0.35897348650E+02  0.24334028849E+02  0.16907832518E+01  0.43400729811E+02  0.00000000000E+00 0.  1.
         11    1    3    3    0    0 -0.15602120310E+01  0.83707985409E+00  0.17568013791E+01  0.24942565246E+01  0.51100000000E-03 0. -1.
        -11    1    3    3    0    0 -0.26559704513E+01 -0.93426537094E+01 -0.14613174474E+01  0.98221589437E+01  0.51100000000E-03 0.  1.
         12    1    3    3    0    0 -0.31681166168E+02 -0.15828454994E+02 -0.19862671834E+01  0.35470854720E+02  0.00000000000E+00 0. -1.
</event>
<event>
 7    1  0.1322363E-009  0.4778727E+02  0.7816164E-02  0.1312668E+00
        -11   -1    0    0    0    0  0.00000000000E+00  0.00000000000E+00  0.45593999997E+02  0.45594000000E+02  0.51100000000E-03 0.  1.
         11   -1    0    0    0    0 -0.00000000000E+00 -0.00000000000E+00 -0.45593999997E+02  0.45594000000E+02  0.51100000000E-03 0. -1.
    9900012    2    1    2    0    0 -0.36860450701E+02 -0.14121177096E+02 -0.18042251896E+02  0.47787270491E+02  0.19999997475E+02 0.  0.
        -12    1    1    2    0    0  0.36860450701E+02  0.14121177096E+02  0.18042251896E+02  0.43400729509E+02  0.00000000000E+00 0.  1.
         11    1    3    3    0    0  0.69590252837E-01 -0.37119932598E+01  0.81345576227E+00  0.38007166827E+01  0.51100000000E-03 0. -1.
        -11    1    3    3    0    0 -0.11265697654E+02  0.28293035725E+00 -0.92240865969E+01  0.14562958732E+02  0.51100000000E-03 0.  1.
         12    1    3    3    0    0 -0.25664343299E+02 -0.10692114193E+02 -0.96316210618E+01  0.29423595076E+02  0.00000000000E+00 0. -1.
</event>
<event>
 7    1  0.1322363E-009  0.4778727E+02  0.7816164E-02  0.1312668E+00
        -11   -1    0    0    0    0  0.00000000000E+00  0.00000000000E+00  0.45593999997E+02  0.45594000000E+02  0.51100000000E-03 0. -1.
         11   -1    0    0    0    0 -0.00000000000E+00 -0.00000000000E+00 -0.45593999997E+02  0.45594000000E+02  0.51100000000E-03 0.  1.
    9900012    2    1    2    0    0  0.40515927640E+02 -0.15057832940E+02  0.39172132718E+01  0.47787270914E+02  0.19999999404E+02 0.  0.
        -12    1    1    2    0    0 -0.40515927640E+02  0.15057832940E+02 -0.39172132718E+01  0.43400729086E+02  0.00000000000E+00 0.  1.
         11    1    3    3    0    0  0.14591165873E+02 -0.72232681962E+01  0.20061513774E+01  0.16404339932E+02  0.51100000000E-03 0. -1.
        -11    1    3    3    0    0  0.91485885918E+01  0.17095822779E+01  0.67349325075E+01  0.11488196592E+02  0.51100000000E-03 0.  1.
         12    1    3    3    0    0  0.16776173175E+02 -0.95441470222E+01 -0.48238706131E+01  0.19894734390E+02  0.00000000000E+00 0. -1.
</event>
<event>
 7    1  0.1322363E-009  0.4778728E+02  0.7816164E-02  0.1312668E+00
        -11   -1    0    0    0    0  0.00000000000E+00  0.00000000000E+00  0.45593999997E+02  0.45594000000E+02  0.51100000000E-03 0.  1.
         11   -1    0    0    0    0 -0.00000000000E+00 -0.00000000000E+00 -0.45593999997E+02  0.45594000000E+02  0.51100000000E-03 0. -1.
    9900012    2    1    2    0    0  0.19193509296E+02 -0.23535138338E+02 -0.31005302264E+02  0.47787282216E+02  0.20000050936E+02 0.  0.
        -12    1    1    2    0    0 -0.19193509296E+02  0.23535138338E+02  0.31005302264E+02  0.43400717784E+02  0.00000000000E+00 0.  1.
         11    1    3    3    0    0  0.73359788453E+01 -0.58362019994E+01 -0.10033721395E+02  0.13731474964E+02  0.51100000000E-03 0. -1.
        -11    1    3    3    0    0 -0.18696026414E+01 -0.11379979888E+02 -0.71005771948E+01  0.13543173670E+02  0.51100000000E-03 0.  1.
        -12    1    3    3    0    0  0.13727133092E+02 -0.63189564507E+01 -0.13871003674E+02  0.20512633582E+02  0.00000000000E+00 0.  1.
</event>
<event>
 7    1  0.1322363E-009  0.4778727E+02  0.7816164E-02  0.1312668E+00
        -11   -1    0    0    0    0  0.00000000000E+00  0.00000000000E+00  0.45593999997E+02  0.45594000000E+02  0.51100000000E-03 0. -1.
         11   -1    0    0    0    0 -0.00000000000E+00 -0.00000000000E+00 -0.45593999997E+02  0.45594000000E+02  0.51100000000E-03 0.  1.
    9900012    2    1    2    0    0 -0.22793431687E+02  0.35978238568E+02  0.83456294276E+01  0.47787266031E+02  0.19999977142E+02 0.  0.
        -12    1    1    2    0    0  0.22793431687E+02 -0.35978238568E+02 -0.83456294276E+01  0.43400733969E+02  0.00000000000E+00 0.  1.
         11    1    3    3    0    0 -0.41720631183E+01  0.14958714622E+02  0.31090749748E+01  0.15837790290E+02  0.51100000000E-03 0. -1.
        -11    1    3    3    0    0 -0.81275426160E+01  0.74877234919E+01 -0.48580161171E+01  0.12071589494E+02  0.51100000000E-03 0.  1.
         12    1    3    3    0    0 -0.10493825952E+02  0.13531800454E+02  0.10094570570E+02  0.19877886247E+02  0.00000000000E+00 0. -1.
</event>
<event>
 7    1  0.1322363E-009  0.4778727E+02  0.7816164E-02  0.1312668E+00
        -11   -1    0    0    0    0  0.00000000000E+00  0.00000000000E+00  0.45593999997E+02  0.45594000000E+02  0.51100000000E-03 0. -1.
         11   -1    0    0    0    0 -0.00000000000E+00 -0.00000000000E+00 -0.45593999997E+02  0.45594000000E+02  0.51100000000E-03 0.  1.
    9900012    2    1    2    0    0  0.22887017548E+02  0.10546558225E+02  0.35335227498E+02  0.47787265386E+02  0.19999974203E+02 0.  0.
        -12    1    1    2    0    0 -0.22887017548E+02 -0.10546558225E+02 -0.35335227498E+02  0.43400734614E+02  0.00000000000E+00 0.  1.
         11    1    3    3    0    0  0.10671107956E+02  0.19857642770E+01  0.13227755710E+02  0.17111087814E+02  0.51100000000E-03 0. -1.
        -11    1    3    3    0    0 -0.27340156506E+01 -0.39821556413E+00  0.73037688933E+01  0.78088704383E+01  0.51100000000E-03 0.  1.
         12    1    3    3    0    0  0.14949925242E+02  0.89590095119E+01  0.14803702895E+02  0.22867307134E+02  0.00000000000E+00 0. -1.
</event>
<event>
 7    1  0.1322363E-009  0.4778727E+02  0.7816164E-02  0.1312668E+00
        -11   -1    0    0    0    0  0.00000000000E+00  0.00000000000E+00  0.45593999997E+02  0.45594000000E+02  0.51100000000E-03 0.  1.
         11   -1    0    0    0    0 -0.00000000000E+00 -0.00000000000E+00 -0.45593999997E+02  0.45594000000E+02  0.51100000000E-03 0. -1.
    9900012    2    1    2    0    0  0.33907415067E+02 -0.21186034057E+02 -0.16883785336E+02  0.47787273706E+02  0.20000012134E+02 0.  0.
        -12    1    1    2    0    0 -0.33907415067E+02  0.21186034057E+02  0.16883785336E+02  0.43400726294E+02  0.00000000000E+00 0.  1.
         11    1    3    3    0    0  0.25585883217E+02 -0.16853891827E+02 -0.38479500181E+01  0.30878759841E+02  0.51100000000E-03 0. -1.
        -11    1    3    3    0    0  0.12558086438E+00 -0.22271082432E+01 -0.35911874226E+01  0.42275772076E+01  0.51100000000E-03 0.  1.
         12    1    3    3    0    0  0.81959509863E+01 -0.21050339865E+01 -0.94446478951E+01  0.12680936658E+02  0.00000000000E+00 0. -1.
</event>
<event>
 7    1  0.1322363E-009  0.4778727E+02  0.7816164E-02  0.1312668E+00
        -11   -1    0    0    0    0  0.00000000000E+00  0.00000000000E+00  0.45593999997E+02  0.45594000000E+02  0.51100000000E-03 0.  1.
         11   -1    0    0    0    0 -0.00000000000E+00 -0.00000000000E+00 -0.45593999997E+02  0.45594000000E+02  0.51100000000E-03 0. -1.
    9900012    2    1    2    0    0  0.28272892838E+02  0.78160742948E+01 -0.31987119893E+02  0.47787270446E+02  0.19999997269E+02 0.  0.
        -12    1    1    2    0    0 -0.28272892838E+02 -0.78160742948E+01  0.31987119893E+02  0.43400729554E+02  0.00000000000E+00 0.  1.
         11    1    3    3    0    0  0.16750656577E+02  0.50390581592E+01 -0.28477295630E+02  0.33420547116E+02  0.51100000000E-03 0. -1.
        -11    1    3    3    0    0 -0.40197484137E+00  0.16610830805E+01  0.42408663079E+00  0.17608607284E+01  0.51100000000E-03 0.  1.
         12    1    3    3    0    0  0.11924211102E+02  0.11159330551E+01 -0.39339108943E+01  0.12605862601E+02  0.00000000000E+00 0. -1.
</event>
<event>
 7    1  0.1322363E-009  0.4778727E+02  0.7816164E-02  0.1312668E+00
        -11   -1    0    0    0    0  0.00000000000E+00  0.00000000000E+00  0.45593999997E+02  0.45594000000E+02  0.51100000000E-03 0.  1.
         11   -1    0    0    0    0 -0.00000000000E+00 -0.00000000000E+00 -0.45593999997E+02  0.45594000000E+02  0.51100000000E-03 0. -1.
    9900012    2    1    2    0    0 -0.75051267807E+00 -0.16206310982E+02 -0.40254384629E+02  0.47787271126E+02  0.20000000373E+02 0.  0.
        -12    1    1    2    0    0  0.75051267807E+00  0.16206310982E+02  0.40254384629E+02  0.43400728874E+02  0.00000000000E+00 0.  1.
         11    1    3    3    0    0 -0.21781912607E+01 -0.64899732019E+01 -0.19104915414E+02  0.20294385001E+02  0.51100000000E-03 0. -1.
        -11    1    3    3    0    0 -0.29106997336E+01  0.17239465994E+01 -0.40244434635E+00  0.34067765600E+01  0.51100000000E-03 0.  1.
        -12    1    3    3    0    0  0.43383783162E+01 -0.11440284380E+02 -0.20747024868E+02  0.24086109565E+02  0.00000000000E+00 0.  1.
</event>
<event>
 7    1  0.1322363E-009  0.4778727E+02  0.7816164E-02  0.1312668E+00
        -11   -1    0    0    0    0  0.00000000000E+00  0.00000000000E+00  0.45593999997E+02  0.45594000000E+02  0.51100000000E-03 0.  1.
         11   -1    0    0    0    0 -0.00000000000E+00 -0.00000000000E+00 -0.45593999997E+02  0.45594000000E+02  0.51100000000E-03 0. -1.
    9900012    2    1    2    0    0  0.40699873036E+02 -0.43959803533E+01 -0.14415919081E+02  0.47787273838E+02  0.20000012738E+02 0.  0.
        -12    1    1    2    0    0 -0.40699873036E+02  0.43959803533E+01  0.14415919081E+02  0.43400726162E+02  0.00000000000E+00 0.  1.
         11    1    3    3    0    0  0.18922416049E+01 -0.13564545705E+01 -0.53130998487E+00  0.23880615265E+01  0.51100000000E-03 0. -1.
        -11    1    3    3    0    0  0.17293727829E+01  0.18152779427E+01 -0.69216531604E+01  0.73617421148E+01  0.51100000000E-03 0.  1.
        -12    1    3    3    0    0  0.37078258648E+02 -0.48548037255E+01 -0.69629559355E+01  0.38037470197E+02  0.00000000000E+00 0.  1.
</event>
<event>
 7    1  0.1322363E-009  0.4778727E+02  0.7816164E-02  0.1312668E+00
        -11   -1    0    0    0    0  0.00000000000E+00  0.00000000000E+00  0.45593999997E+02  0.45594000000E+02  0.51100000000E-03 0. -1.
         11   -1    0    0    0    0 -0.00000000000E+00 -0.00000000000E+00 -0.45593999997E+02  0.45594000000E+02  0.51100000000E-03 0.  1.
    9900012    2    1    2    0    0  0.35205838621E+02 -0.13241173975E+02  0.21652789920E+02  0.47787273363E+02  0.20000010573E+02 0.  0.
        -12    1    1    2    0    0 -0.35205838621E+02  0.13241173975E+02 -0.21652789920E+02  0.43400726637E+02  0.00000000000E+00 0.  1.
         11    1    3    3    0    0  0.13618962816E+02 -0.50375477125E+01  0.32652912920E+01  0.14883385456E+02  0.51100000000E-03 0. -1.
        -11    1    3    3    0    0  0.80449001601E+00 -0.40700640507E+01 -0.90616088816E+00  0.42466166979E+01  0.51100000000E-03 0.  1.
        -12    1    3    3    0    0  0.20782385789E+02 -0.41335622117E+01  0.19293659517E+02  0.28657271210E+02  0.00000000000E+00 0.  1.
</event>
<event>
 7    1  0.1322363E-009  0.4778727E+02  0.7816164E-02  0.1312668E+00
        -11   -1    0    0    0    0  0.00000000000E+00  0.00000000000E+00  0.45593999997E+02  0.45594000000E+02  0.51100000000E-03 0. -1.
         11   -1    0    0    0    0 -0.00000000000E+00 -0.00000000000E+00 -0.45593999997E+02  0.45594000000E+02  0.51100000000E-03 0.  1.
    9900012    2    1    2    0    0 -0.22306760881E+02  0.45353188365E+01  0.36952163821E+02  0.47787272944E+02  0.20000008659E+02 0.  0.
        -12    1    1    2    0    0  0.22306760881E+02 -0.45353188365E+01 -0.36952163821E+02  0.43400727056E+02  0.00000000000E+00 0.  1.
         11    1    3    3    0    0 -0.14083505377E+02  0.62086241676E+01  0.15841452841E+02  0.22087185564E+02  0.51100000000E-03 0. -1.
        -11    1    3    3    0    0 -0.48273396630E+01 -0.34514223977E+01  0.20816646477E+01  0.62887878606E+01  0.51100000000E-03 0.  1.
        -12    1    3    3    0    0 -0.33959158410E+01  0.17781170666E+01  0.19029046332E+02  0.19411299519E+02  0.00000000000E+00 0.  1.
</event>
<event>
 7    1  0.1322363E-009  0.4778725E+02  0.7816164E-02  0.1312668E+00
        -11   -1    0    0    0    0  0.00000000000E+00  0.00000000000E+00  0.45593999997E+02  0.45594000000E+02  0.51100000000E-03 0.  1.
         11   -1    0    0    0    0 -0.00000000000E+00 -0.00000000000E+00 -0.45593999997E+02  0.45594000000E+02  0.51100000000E-03 0. -1.
    9900012    2    1    2    0    0 -0.12812306892E+02 -0.34968021942E+02 -0.22286922737E+02  0.47787254713E+02  0.19999925537E+02 0.  0.
        -12    1    1    2    0    0  0.12812306892E+02  0.34968021942E+02  0.22286922737E+02  0.43400745287E+02  0.00000000000E+00 0.  1.
         11    1    3    3    0    0 -0.35629334026E+01 -0.16040354841E+02 -0.56554888645E+01  0.17377342501E+02  0.51100000000E-03 0. -1.
        -11    1    3    3    0    0  0.81101649378E+00 -0.12780969637E+02 -0.47151150455E+01  0.13647096496E+02  0.51100000000E-03 0.  1.
         12    1    3    3    0    0 -0.10060389983E+02 -0.61466974636E+01 -0.11916318827E+02  0.16762815715E+02  0.00000000000E+00 0. -1.
</event>
<event>
 7    1  0.1322363E-009  0.4778727E+02  0.7816164E-02  0.1312668E+00
        -11   -1    0    0    0    0  0.00000000000E+00  0.00000000000E+00  0.45593999997E+02  0.45594000000E+02  0.51100000000E-03 0.  1.
         11   -1    0    0    0    0 -0.00000000000E+00 -0.00000000000E+00 -0.45593999997E+02  0.45594000000E+02  0.51100000000E-03 0. -1.
    9900012    2    1    2    0    0  0.11464313162E+02 -0.11769656688E+01 -0.41842655465E+02  0.47787267969E+02  0.19999985979E+02 0.  0.
        -12    1    1    2    0    0 -0.11464313162E+02  0.11769656688E+01  0.41842655465E+02  0.43400732031E+02  0.00000000000E+00 0.  1.
         11    1    3    3    0    0 -0.83660936986E+00  0.55620783416E+01 -0.26006383834E+02  0.26607679927E+02  0.51100000000E-03 0. -1.
        -11    1    3    3    0    0  0.73100301236E+01 -0.42784743378E+01 -0.10217491636E+02  0.13271737590E+02  0.51100000000E-03 0.  1.
         12    1    3    3    0    0  0.49908924084E+01 -0.24605696726E+01 -0.56187799946E+01  0.79078504522E+01  0.00000000000E+00 0. -1.
</event>
<event>
 7    1  0.1322363E-009  0.4778727E+02  0.7816164E-02  0.1312668E+00
        -11   -1    0    0    0    0  0.00000000000E+00  0.00000000000E+00  0.45593999997E+02  0.45594000000E+02  0.51100000000E-03 0.  1.
         11   -1    0    0    0    0 -0.00000000000E+00 -0.00000000000E+00 -0.45593999997E+02  0.45594000000E+02  0.51100000000E-03 0. -1.
    9900012    2    1    2    0    0 -0.28172156062E+02 -0.19057931334E+02  0.26958268344E+02  0.47787270098E+02  0.19999995687E+02 0.  0.
        -12    1    1    2    0    0  0.28172156062E+02  0.19057931334E+02 -0.26958268344E+02  0.43400729902E+02  0.00000000000E+00 0.  1.
         11    1    3    3    0    0 -0.32056359430E+01 -0.67281756790E+01  0.17521345603E+01  0.76560058481E+01  0.51100000000E-03 0. -1.
        -11    1    3    3    0    0 -0.17940265465E+02 -0.15294609034E+02  0.19745804464E+02  0.30751828964E+02  0.51100000000E-03 0.  1.
        -12    1    3    3    0    0 -0.70262546532E+01  0.29648533786E+01  0.54603293198E+01  0.93794352862E+01  0.00000000000E+00 0.  1.
</event>
<event>
 7    1  0.1322363E-009  0.4778727E+02  0.7816164E-02  0.1312668E+00
        -11   -1    0    0    0    0  0.00000000000E+00  0.00000000000E+00  0.45593999997E+02  0.45594000000E+02  0.51100000000E-03 0.  1.
         11   -1    0    0    0    0 -0.00000000000E+00 -0.00000000000E+00 -0.45593999997E+02  0.45594000000E+02  0.51100000000E-03 0. -1.
    9900012    2    1    2    0    0 -0.18842968450E+02  0.52164698142E+01 -0.38747315329E+02  0.47787268871E+02  0.19999990090E+02 0.  0.
        -12    1    1    2    0    0  0.18842968450E+02 -0.52164698142E+01  0.38747315329E+02  0.43400731129E+02  0.00000000000E+00 0.  1.
         11    1    3    3    0    0 -0.51096208478E+01 -0.26095143780E+01 -0.16918470803E+02  0.17864838232E+02  0.51100000000E-03 0. -1.
        -11    1    3    3    0    0 -0.98931142895E+01  0.44878825348E+01 -0.22307130331E+02  0.24811748504E+02  0.51100000000E-03 0.  1.
        -12    1    3    3    0    0 -0.38402333124E+01  0.33381016574E+01  0.47828580405E+00  0.51106821345E+01  0.00000000000E+00 0.  1.
</event>
<event>
 7    1  0.1322363E-009  0.4778727E+02  0.7816164E-02  0.1312668E+00
        -11   -1    0    0    0    0  0.00000000000E+00  0.00000000000E+00  0.45593999997E+02  0.45594000000E+02  0.51100000000E-03 0.  1.
         11   -1    0    0    0    0 -0.00000000000E+00 -0.00000000000E+00 -0.45593999997E+02  0.45594000000E+02  0.51100000000E-03 0. -1.
    9900012    2    1    2    0    0  0.24120306732E+02 -0.11277630934E+02 -0.34273155511E+02  0.47787270225E+02  0.19999996266E+02 0.  0.
        -12    1    1    2    0    0 -0.24120306732E+02  0.11277630934E+02  0.34273155511E+02  0.43400729775E+02  0.00000000000E+00 0.  1.
         11    1    3    3    0    0  0.12936526878E+02 -0.59538846770E+01 -0.29735559787E+02  0.32969773831E+02  0.51100000000E-03 0. -1.
        -11    1    3    3    0    0  0.37387392510E+01 -0.52425258424E+01 -0.34125080540E+01  0.72874865266E+01  0.51100000000E-03 0.  1.
         12    1    3    3    0    0  0.74450406033E+01 -0.81220414290E-01 -0.11250876701E+01  0.75300098676E+01  0.00000000000E+00 0. -1.
</event>
<event>
 7    1  0.1324635E-009  0.4778727E+02  0.7816164E-02  0.1312668E+00
        -11   -1    0    0    0    0  0.00000000000E+00  0.00000000000E+00  0.45593999997E+02  0.45594000000E+02  0.51100000000E-03 0. -1.
         11   -1    0    0    0    0 -0.00000000000E+00 -0.00000000000E+00 -0.45593999997E+02  0.45594000000E+02  0.51100000000E-03 0.  1.
    9900012    2    1    2    0    0 -0.18803684107E+02  0.22845064856E+02  0.31751340616E+02  0.47787272412E+02  0.20000006235E+02 0.  0.
        -12    1    1    2    0    0  0.18803684107E+02 -0.22845064856E+02 -0.31751340616E+02  0.43400727588E+02  0.00000000000E+00 0.  1.
         11    1    3    3    0    0 -0.96927785365E+01  0.11337632679E+02  0.13172472457E+02  0.19899897020E+02  0.51100000000E-03 0. -1.
        -11    1    3    3    0    0 -0.32906107996E+01  0.12735834400E+01  0.15249652940E+02  0.15652541304E+02  0.51100000000E-03 0.  1.
        -12    1    3    3    0    0 -0.58202947707E+01  0.10233848737E+02  0.33292152190E+01  0.12234834088E+02  0.00000000000E+00 0.  1.
</event>
<event>
 7    1  0.1322363E-009  0.4778727E+02  0.7816164E-02  0.1312668E+00
        -11   -1    0    0    0    0  0.00000000000E+00  0.00000000000E+00  0.45593999997E+02  0.45594000000E+02  0.51100000000E-03 0.  1.
         11   -1    0    0    0    0 -0.00000000000E+00 -0.00000000000E+00 -0.45593999997E+02  0.45594000000E+02  0.51100000000E-03 0. -1.
    9900012    2    1    2    0    0  0.58698236036E+01  0.27053089362E+02 -0.33426026163E+02  0.47787266156E+02  0.19999977712E+02 0.  0.
        -12    1    1    2    0    0 -0.58698236036E+01 -0.27053089362E+02  0.33426026163E+02  0.43400733844E+02  0.00000000000E+00 0.  1.
         11    1    3    3    0    0 -0.64269919773E+00  0.11940472265E+02 -0.12945357401E+02  0.17623002544E+02  0.51100000000E-03 0. -1.
        -11    1    3    3    0    0  0.82384696482E+00  0.35023892388E+01  0.20840826377E+01  0.41579868811E+01  0.51100000000E-03 0.  1.
         12    1    3    3    0    0  0.56886758365E+01  0.11610227858E+02 -0.22564751400E+02  0.26006276731E+02  0.00000000000E+00 0. -1.
</event>
<event>
 7    1  0.1322363E-009  0.4778729E+02  0.7816164E-02  0.1312668E+00
        -11   -1    0    0    0    0  0.00000000000E+00  0.00000000000E+00  0.45593999997E+02  0.45594000000E+02  0.51100000000E-03 0. -1.
         11   -1    0    0    0    0 -0.00000000000E+00 -0.00000000000E+00 -0.45593999997E+02  0.45594000000E+02  0.51100000000E-03 0.  1.
    9900012    2    1    2    0    0 -0.40420820552E+02 -0.13317823059E+02  0.85096843982E+01  0.47787287176E+02  0.20000073548E+02 0.  0.
        -12    1    1    2    0    0  0.40420820552E+02  0.13317823059E+02 -0.85096843982E+01  0.43400712824E+02  0.00000000000E+00 0.  1.
         11    1    3    3    0    0 -0.16970469420E+02 -0.90009858268E+01 -0.55298501905E+01  0.19989842960E+02  0.51100000000E-03 0. -1.
        -11    1    3    3    0    0 -0.21226714008E+01  0.35858709170E+00  0.14171593679E+01  0.25773357393E+01  0.51100000000E-03 0.  1.
         12    1    3    3    0    0 -0.21327679731E+02 -0.46754243235E+01  0.12622375221E+02  0.25220108476E+02  0.00000000000E+00 0. -1.
</event>
<event>
 7    1  0.1322363E-009  0.4778727E+02  0.7816164E-02  0.1312668E+00
        -11   -1    0    0    0    0  0.00000000000E+00  0.00000000000E+00  0.45593999997E+02  0.45594000000E+02  0.51100000000E-03 0.  1.
         11   -1    0    0    0    0 -0.00000000000E+00 -0.00000000000E+00 -0.45593999997E+02  0.45594000000E+02  0.51100000000E-03 0. -1.
    9900012    2    1    2    0    0  0.42288959257E+01 -0.31007450834E+02 -0.30071212295E+02  0.47787269859E+02  0.19999994593E+02 0.  0.
        -12    1    1    2    0    0 -0.42288959257E+01  0.31007450834E+02  0.30071212295E+02  0.43400730141E+02  0.00000000000E+00 0.  1.
         11    1    3    3    0    0 -0.25516214331E+01 -0.15375460847E+02 -0.20873602071E+02  0.26050390244E+02  0.51100000000E-03 0. -1.
        -11    1    3    3    0    0  0.58739332707E+01 -0.52687066697E+01 -0.80476895037E+01  0.11270655200E+02  0.51100000000E-03 0.  1.
         12    1    3    3    0    0  0.90658408810E+00 -0.10363283317E+02 -0.11499207196E+01  0.10466224414E+02  0.00000000000E+00 0. -1.
</event>
<event>
 7    1  0.1322363E-009  0.4778727E+02  0.7816164E-02  0.1312668E+00
        -11   -1    0    0    0    0  0.00000000000E+00  0.00000000000E+00  0.45593999997E+02  0.45594000000E+02  0.51100000000E-03 0. -1.
         11   -1    0    0    0    0 -0.00000000000E+00 -0.00000000000E+00 -0.45593999997E+02  0.45594000000E+02  0.51100000000E-03 0.  1.
    9900012    2    1    2    0    0 -0.35995697635E+02 -0.13463211924E+02  0.20166180332E+02  0.47787272440E+02  0.20000006364E+02 0.  0.
        -12    1    1    2    0    0  0.35995697635E+02  0.13463211924E+02 -0.20166180332E+02  0.43400727560E+02  0.00000000000E+00 0.  1.
         11    1    3    3    0    0 -0.55164738611E+01 -0.72438572957E+01 -0.17865573603E+01  0.92788328924E+01  0.51100000000E-03 0. -1.
        -11    1    3    3    0    0 -0.62194876664E+01  0.10563054083E+01  0.45687602761E+01  0.77891834405E+01  0.51100000000E-03 0.  1.
         12    1    3    3    0    0 -0.24259736107E+02 -0.72756600364E+01  0.17383977417E+02  0.30719256107E+02  0.00000000000E+00 0. -1.
</event>
<event>
 7    1  0.1322363E-009  0.4778728E+02  0.7816164E-02  0.1312668E+00
        -11   -1    0    0    0    0  0.00000000000E+00  0.00000000000E+00  0.45593999997E+02  0.45594000000E+02  0.51100000000E-03 0.  1.
         11   -1    0    0    0    0 -0.00000000000E+00 -0.00000000000E+00 -0.45593999997E+02  0.45594000000E+02  0.51100000000E-03 0. -1.
    9900012    2    1    2    0    0  0.30986276275E+02 -0.36971066968E+01 -0.30162968927E+02  0.47787278695E+02  0.20000034881E+02 0.  0.
        -12    1    1    2    0    0 -0.30986276275E+02  0.36971066968E+01  0.30162968927E+02  0.43400721305E+02  0.00000000000E+00 0.  1.
         11    1    3    3    0    0  0.42084151946E+01  0.47208944282E+01 -0.92866056681E+01  0.11235597347E+02  0.51100000000E-03 0. -1.
        -11    1    3    3    0    0  0.48389808713E+01 -0.63254455331E+01 -0.54221822251E+01  0.96346799328E+01  0.51100000000E-03 0.  1.
        -12    1    3    3    0    0  0.21938880209E+02 -0.20925555920E+01 -0.15454181034E+02  0.26917001415E+02  0.00000000000E+00 0.  1.
</event>
<event>
 7    1  0.1322363E-009  0.4778727E+02  0.7816164E-02  0.1312668E+00
        -11   -1    0    0    0    0  0.00000000000E+00  0.00000000000E+00  0.45593999997E+02  0.45594000000E+02  0.51100000000E-03 0.  1.
         11   -1    0    0    0    0 -0.00000000000E+00 -0.00000000000E+00 -0.45593999997E+02  0.45594000000E+02  0.51100000000E-03 0. -1.
    9900012    2    1    2    0    0 -0.18263126891E+02  0.25643014394E+02 -0.29875026401E+02  0.47787271970E+02  0.20000004221E+02 0.  0.
        -12    1    1    2    0    0  0.18263126891E+02 -0.25643014394E+02  0.29875026401E+02  0.43400728030E+02  0.00000000000E+00 0.  1.
         11    1    3    3    0    0 -0.18121843542E+02  0.11863302742E+02 -0.14845946940E+02  0.26259118533E+02  0.51100000000E-03 0. -1.
        -11    1    3    3    0    0  0.89768241945E+00  0.26407437923E+01  0.40193304504E-02  0.27891536205E+01  0.51100000000E-03 0.  1.
         12    1    3    3    0    0 -0.10389657676E+01  0.11138967860E+02 -0.15033098792E+02  0.18738999817E+02  0.00000000000E+00 0. -1.
</event>
<event>
 7    1  0.1322363E-009  0.4778727E+02  0.7816164E-02  0.1312668E+00
        -11   -1    0    0    0    0  0.00000000000E+00  0.00000000000E+00  0.45593999997E+02  0.45594000000E+02  0.51100000000E-03 0.  1.
         11   -1    0    0    0    0 -0.00000000000E+00 -0.00000000000E+00 -0.45593999997E+02  0.45594000000E+02  0.51100000000E-03 0. -1.
    9900012    2    1    2    0    0 -0.31009789252E+02 -0.20434298415E+02 -0.22460087531E+02  0.47787272897E+02  0.20000008447E+02 0.  0.
        -12    1    1    2    0    0  0.31009789252E+02  0.20434298415E+02  0.22460087531E+02  0.43400727103E+02  0.00000000000E+00 0.  1.
         11    1    3    3    0    0 -0.72256214934E+01 -0.84792829564E+01 -0.36395945735E+01  0.11719833375E+02  0.51100000000E-03 0. -1.
        -11    1    3    3    0    0 -0.21612390574E+02 -0.38085896035E+01 -0.10915415773E+02  0.24510142448E+02  0.51100000000E-03 0.  1.
        -12    1    3    3    0    0 -0.21717771848E+01 -0.81464258553E+01 -0.79050771847E+01  0.11557297074E+02  0.00000000000E+00 0.  1.
</event>
<event>
 7    1  0.1322363E-009  0.4778726E+02  0.7816164E-02  0.1312668E+00
        -11   -1    0    0    0    0  0.00000000000E+00  0.00000000000E+00  0.45593999997E+02  0.45594000000E+02  0.51100000000E-03 0.  1.
         11   -1    0    0    0    0 -0.00000000000E+00 -0.00000000000E+00 -0.45593999997E+02  0.45594000000E+02  0.51100000000E-03 0. -1.
    9900012    2    1    2    0    0 -0.31453396780E+02  0.87088134482E+01 -0.28608814558E+02  0.47787264165E+02  0.19999968632E+02 0.  0.
        -12    1    1    2    0    0  0.31453396780E+02 -0.87088134482E+01  0.28608814558E+02  0.43400735835E+02  0.00000000000E+00 0.  1.
         11    1    3    3    0    0 -0.18875400718E+02  0.70961347277E+01 -0.12640960328E+02  0.23799784843E+02  0.51100000000E-03 0. -1.
        -11    1    3    3    0    0 -0.54145529604E+01 -0.32063560312E+01 -0.54969495489E+00  0.63166658582E+01  0.51100000000E-03 0.  1.
        -12    1    3    3    0    0 -0.71634431018E+01  0.48190347517E+01 -0.15418159275E+02  0.17670813463E+02  0.00000000000E+00 0.  1.
</event>
<event>
 7    1  0.1322363E-009  0.4778727E+02  0.7816164E-02  0.1312668E+00
        -11   -1    0    0    0    0  0.00000000000E+00  0.00000000000E+00  0.45593999997E+02  0.45594000000E+02  0.51100000000E-03 0.  1.
         11   -1    0    0    0    0 -0.00000000000E+00 -0.00000000000E+00 -0.45593999997E+02  0.45594000000E+02  0.51100000000E-03 0. -1.
    9900012    2    1    2    0    0  0.19049885805E+02  0.27194687834E+02 -0.27949492671E+02  0.47787270327E+02  0.19999996729E+02 0.  0.
        -12    1    1    2    0    0 -0.19049885805E+02 -0.27194687834E+02  0.27949492671E+02  0.43400729673E+02  0.00000000000E+00 0.  1.
         11    1    3    3    0    0  0.45570818132E+00  0.23283830793E+01 -0.51665456595E+01  0.56852644638E+01  0.51100000000E-03 0. -1.
        -11    1    3    3    0    0  0.20672525480E+02  0.24081785110E+02 -0.17212182695E+02  0.36104638444E+02  0.51100000000E-03 0.  1.
        -12    1    3    3    0    0 -0.20783478567E+01  0.78451964504E+00 -0.55707643167E+01  0.59973674191E+01  0.00000000000E+00 0.  1.
</event>
<event>
 7    1  0.1322363E-009  0.4778727E+02  0.7816164E-02  0.1312668E+00
        -11   -1    0    0    0    0  0.00000000000E+00  0.00000000000E+00  0.45593999997E+02  0.45594000000E+02  0.51100000000E-03 0.  1.
         11   -1    0    0    0    0 -0.00000000000E+00 -0.00000000000E+00 -0.45593999997E+02  0.45594000000E+02  0.51100000000E-03 0. -1.
    9900012    2    1    2    0    0  0.37626300713E+02  0.50735061817E+01 -0.21027234800E+02  0.47787267591E+02  0.19999984254E+02 0.  0.
        -12    1    1    2    0    0 -0.37626300713E+02 -0.50735061817E+01  0.21027234800E+02  0.43400732409E+02  0.00000000000E+00 0.  1.
         11    1    3    3    0    0  0.99205391830E+01  0.77446200308E+01 -0.12733440913E+02  0.17903540288E+02  0.51100000000E-03 0. -1.
        -11    1    3    3    0    0  0.52652656190E+01 -0.21344295686E+01  0.65438308475E+00  0.57190059542E+01  0.51100000000E-03 0.  1.
         12    1    3    3    0    0  0.22440495911E+02 -0.53668428046E+00 -0.89481769723E+01  0.24164721349E+02  0.00000000000E+00 0. -1.
</event>
<event>
 7    1  0.1322363E-009  0.4778727E+02  0.7816164E-02  0.1312668E+00
        -11   -1    0    0    0    0  0.00000000000E+00  0.00000000000E+00  0.45593999997E+02  0.45594000000E+02  0.51100000000E-03 0.  1.
         11   -1    0    0    0    0 -0.00000000000E+00 -0.00000000000E+00 -0.45593999997E+02  0.45594000000E+02  0.51100000000E-03 0. -1.
    9900012    2    1    2    0    0 -0.67386976733E+01 -0.83638772345E+00 -0.42866233792E+02  0.47787267399E+02  0.19999983381E+02 0.  0.
        -12    1    1    2    0    0  0.67386976733E+01  0.83638772345E+00  0.42866233792E+02  0.43400732601E+02  0.00000000000E+00 0.  1.
         11    1    3    3    0    0 -0.85218165754E+01  0.16190081326E+01 -0.22924338643E+02  0.24510566040E+02  0.51100000000E-03 0.  1.
        -11    1    3    3    0    0  0.29936278100E+01  0.24010063540E+01 -0.17091354741E+02  0.17516878892E+02  0.51100000000E-03 0. -1.
        -12    1    3    3    0    0 -0.12105089079E+01 -0.48564022101E+01 -0.28505404075E+01  0.57598224675E+01  0.00000000000E+00 0.  1.
</event>
<event>
 7    1  0.1322363E-009  0.4778727E+02  0.7816164E-02  0.1312668E+00
        -11   -1    0    0    0    0  0.00000000000E+00  0.00000000000E+00  0.45593999997E+02  0.45594000000E+02  0.51100000000E-03 0.  1.
         11   -1    0    0    0    0 -0.00000000000E+00 -0.00000000000E+00 -0.45593999997E+02  0.45594000000E+02  0.51100000000E-03 0. -1.
    9900012    2    1    2    0    0 -0.33571641459E+02  0.11610599898E+01 -0.27481263672E+02  0.47787273928E+02  0.20000013147E+02 0.  0.
        -12    1    1    2    0    0  0.33571641459E+02 -0.11610599898E+01  0.27481263672E+02  0.43400726072E+02  0.00000000000E+00 0.  1.
         11    1    3    3    0    0 -0.31859542356E+02  0.73395032412E+00 -0.28442952198E+02  0.42714993295E+02  0.51100000000E-03 0. -1.
        -11    1    3    3    0    0  0.11700473609E+01  0.85915479650E+00 -0.80936228861E+00  0.16619943942E+01  0.51100000000E-03 0.  1.
         12    1    3    3    0    0 -0.28821464648E+01 -0.43204513086E+00  0.17710508150E+01  0.34102862385E+01  0.00000000000E+00 0. -1.
</event>
<event>
 7    1  0.1322363E-009  0.4778725E+02  0.7816164E-02  0.1312668E+00
        -11   -1    0    0    0    0  0.00000000000E+00  0.00000000000E+00  0.45593999997E+02  0.45594000000E+02  0.51100000000E-03 0.  1.
         11   -1    0    0    0    0 -0.00000000000E+00 -0.00000000000E+00 -0.45593999997E+02  0.45594000000E+02  0.51100000000E-03 0. -1.
    9900012    2    1    2    0    0  0.26423799340E+02  0.11515846209E+02 -0.32446779493E+02  0.47787246724E+02  0.19999889114E+02 0.  0.
        -12    1    1    2    0    0 -0.26423799340E+02 -0.11515846209E+02  0.32446779493E+02  0.43400753276E+02  0.00000000000E+00 0.  1.
         11    1    3    3    0    0  0.67247211830E+01  0.76151391811E+01 -0.19451286631E+02  0.21944584106E+02  0.51100000000E-03 0. -1.
        -11    1    3    3    0    0  0.14060105042E+02  0.71890875084E+01 -0.96652834421E+01  0.18514514233E+02  0.51100000000E-03 0.  1.
         12    1    3    3    0    0  0.56389731147E+01 -0.32883804808E+01 -0.33302094201E+01  0.73281483853E+01  0.00000000000E+00 0. -1.
</event>
<event>
 7    1  0.1322363E-009  0.4778725E+02  0.7816164E-02  0.1312668E+00
        -11   -1    0    0    0    0  0.00000000000E+00  0.00000000000E+00  0.45593999997E+02  0.45594000000E+02  0.51100000000E-03 0.  1.
         11   -1    0    0    0    0 -0.00000000000E+00 -0.00000000000E+00 -0.45593999997E+02  0.45594000000E+02  0.51100000000E-03 0. -1.
    9900012    2    1    2    0    0  0.37192210369E+02 -0.98032160865E+01 -0.20106263315E+02  0.47787246754E+02  0.19999889251E+02 0.  0.
        -12    1    1    2    0    0 -0.37192210369E+02  0.98032160865E+01  0.20106263315E+02  0.43400753246E+02  0.00000000000E+00 0.  1.
         11    1    3    3    0    0  0.12831018946E+02 -0.51193481668E+01 -0.93540688755E+01  0.16683566095E+02  0.51100000000E-03 0. -1.
        -11    1    3    3    0    0  0.17355032131E+02 -0.99237949497E+01 -0.49181956345E+01  0.20588042526E+02  0.51100000000E-03 0.  1.
        -12    1    3    3    0    0  0.70061592916E+01  0.52399270300E+01 -0.58339988053E+01  0.10515638134E+02  0.00000000000E+00 0.  1.
</event>
<event>
 7    1  0.1322363E-009  0.4778727E+02  0.7816164E-02  0.1312668E+00
        -11   -1    0    0    0    0  0.00000000000E+00  0.00000000000E+00  0.45593999997E+02  0.45594000000E+02  0.51100000000E-03 0.  1.
         11   -1    0    0    0    0 -0.00000000000E+00 -0.00000000000E+00 -0.45593999997E+02  0.45594000000E+02  0.51100000000E-03 0. -1.
    9900012    2    1    2    0    0 -0.20693410983E+02  0.34758537378E+02 -0.15724186259E+02  0.47787271754E+02  0.20000003235E+02 0.  0.
        -12    1    1    2    0    0  0.20693410983E+02 -0.34758537378E+02  0.15724186259E+02  0.43400728246E+02  0.00000000000E+00 0.  1.
         11    1    3    3    0    0 -0.14807677043E+02  0.16471794975E+02 -0.32198686006E+01  0.22382021427E+02  0.51100000000E-03 0. -1.
        -11    1    3    3    0    0 -0.30420263003E+01  0.44699587377E+01  0.14136014647E+01  0.55886245616E+01  0.51100000000E-03 0.  1.
        -12    1    3    3    0    0 -0.28437076404E+01  0.13816783665E+02 -0.13917919123E+02  0.19816625765E+02  0.00000000000E+00 0.  1.
</event>
<event>
 7    1  0.1322363E-009  0.4778727E+02  0.7816164E-02  0.1312668E+00
        -11   -1    0    0    0    0  0.00000000000E+00  0.00000000000E+00  0.45593999997E+02  0.45594000000E+02  0.51100000000E-03 0. -1.
         11   -1    0    0    0    0 -0.00000000000E+00 -0.00000000000E+00 -0.45593999997E+02  0.45594000000E+02  0.51100000000E-03 0.  1.
    9900012    2    1    2    0    0 -0.24238043172E+02  0.27061543560E+02  0.23744758919E+02  0.47787268983E+02  0.19999990603E+02 0.  0.
        -12    1    1    2    0    0  0.24238043172E+02 -0.27061543560E+02 -0.23744758919E+02  0.43400731017E+02  0.00000000000E+00 0.  1.
         11    1    3    3    0    0  0.71918215279E+00 -0.14084382269E+01  0.29225045886E+00  0.16082076357E+01  0.51100000000E-03 0. -1.
        -11    1    3    3    0    0 -0.15582583791E+02  0.10038900178E+02  0.72287714293E+01  0.19896018974E+02  0.51100000000E-03 0.  1.
        -12    1    3    3    0    0 -0.93746415338E+01  0.18431081609E+02  0.16223737031E+02  0.26283042374E+02  0.00000000000E+00 0.  1.
</event>
<event>
 7    1  0.1322363E-009  0.4778727E+02  0.7816164E-02  0.1312668E+00
        -11   -1    0    0    0    0  0.00000000000E+00  0.00000000000E+00  0.45593999997E+02  0.45594000000E+02  0.51100000000E-03 0. -1.
         11   -1    0    0    0    0 -0.00000000000E+00 -0.00000000000E+00 -0.45593999997E+02  0.45594000000E+02  0.51100000000E-03 0.  1.
    9900012    2    1    2    0    0 -0.37049010652E+02 -0.18659360336E+02  0.12760186449E+02  0.47787271012E+02  0.19999999854E+02 0.  0.
        -12    1    1    2    0    0  0.37049010652E+02  0.18659360336E+02 -0.12760186449E+02  0.43400728988E+02  0.00000000000E+00 0.  1.
         11    1    3    3    0    0 -0.23824665548E+02 -0.76926592315E+01  0.39656506708E+01  0.25347940351E+02  0.51100000000E-03 0. -1.
        -11    1    3    3    0    0 -0.65754434289E+01 -0.16559105949E+01  0.86582199945E+01  0.10997421058E+02  0.51100000000E-03 0.  1.
         12    1    3    3    0    0 -0.66489016752E+01 -0.93107905094E+01  0.13631578399E+00  0.11441909604E+02  0.00000000000E+00 0. -1.
</event>
<event>
 7    1  0.2114123E-009  0.4778727E+02  0.7816164E-02  0.1312668E+00
        -11   -1    0    0    0    0  0.00000000000E+00  0.00000000000E+00  0.45593999997E+02  0.45594000000E+02  0.51100000000E-03 0.  1.
         11   -1    0    0    0    0 -0.00000000000E+00 -0.00000000000E+00 -0.45593999997E+02  0.45594000000E+02  0.51100000000E-03 0. -1.
    9900012    2    1    2    0    0  0.24711567412E+02  0.12405616767E+02 -0.33452390812E+02  0.47787270255E+02  0.19999996401E+02 0.  0.
        -12    1    1    2    0    0 -0.24711567412E+02 -0.12405616767E+02  0.33452390812E+02  0.43400729745E+02  0.00000000000E+00 0.  1.
         11    1    3    3    0    0  0.10556580707E+02  0.27983351058E+01 -0.25301694855E+02  0.27558081181E+02  0.51100000000E-03 0. -1.
        -11    1    3    3    0    0  0.32865294189E+01 -0.27116830316E+00  0.25393286655E+00  0.33074597552E+01  0.51100000000E-03 0.  1.
         12    1    3    3    0    0  0.10868457286E+02  0.98784499648E+01 -0.84046288242E+01  0.16921729319E+02  0.00000000000E+00 0. -1.
</event>
<event>
 7    1  0.1322363E-009  0.4778727E+02  0.7816164E-02  0.1312668E+00
        -11   -1    0    0    0    0  0.00000000000E+00  0.00000000000E+00  0.45593999997E+02  0.45594000000E+02  0.51100000000E-03 0.  1.
         11   -1    0    0    0    0 -0.00000000000E+00 -0.00000000000E+00 -0.45593999997E+02  0.45594000000E+02  0.51100000000E-03 0. -1.
    9900012    2    1    2    0    0  0.25860862115E+02  0.31255835962E+02 -0.15424400895E+02  0.47787267126E+02  0.19999982135E+02 0.  0.
        -12    1    1    2    0    0 -0.25860862115E+02 -0.31255835962E+02  0.15424400895E+02  0.43400732874E+02  0.00000000000E+00 0.  1.
         11    1    3    3    0    0  0.96255326351E+01  0.11583582179E+02 -0.95591715357E+01  0.17838386006E+02  0.51100000000E-03 0. -1.
        -11    1    3    3    0    0  0.11386069575E+02  0.47545978075E+01  0.18352279079E+01  0.12474647987E+02  0.51100000000E-03 0.  1.
         12    1    3    3    0    0  0.48492599050E+01  0.14917655976E+02 -0.77004572669E+01  0.17474233133E+02  0.00000000000E+00 0. -1.
</event>
<event>
 7    1  0.1322363E-009  0.4778728E+02  0.7816164E-02  0.1312668E+00
        -11   -1    0    0    0    0  0.00000000000E+00  0.00000000000E+00  0.45593999997E+02  0.45594000000E+02  0.51100000000E-03 0. -1.
         11   -1    0    0    0    0 -0.00000000000E+00 -0.00000000000E+00 -0.45593999997E+02  0.45594000000E+02  0.51100000000E-03 0.  1.
    9900012    2    1    2    0    0  0.87741444317E+00 -0.56502549801E+01  0.43022400971E+02  0.47787283154E+02  0.20000055212E+02 0.  0.
        -12    1    1    2    0    0 -0.87741444317E+00  0.56502549801E+01 -0.43022400971E+02  0.43400716846E+02  0.00000000000E+00 0.  1.
         11    1    3    3    0    0  0.24423539810E+01  0.15066380244E+00  0.12211863631E+02  0.12454613850E+02  0.51100000000E-03 0. -1.
        -11    1    3    3    0    0 -0.17147413874E+01 -0.10505782886E+02  0.12459530270E+02  0.16387547312E+02  0.51100000000E-03 0.  1.
        -12    1    3    3    0    0  0.14980184956E+00  0.47048641039E+01  0.18351007070E+02  0.18945121992E+02  0.00000000000E+00 0.  1.
</event>
<event>
 7    1  0.1322363E-009  0.4778726E+02  0.7816164E-02  0.1312668E+00
        -11   -1    0    0    0    0  0.00000000000E+00  0.00000000000E+00  0.45593999997E+02  0.45594000000E+02  0.51100000000E-03 0.  1.
         11   -1    0    0    0    0 -0.00000000000E+00 -0.00000000000E+00 -0.45593999997E+02  0.45594000000E+02  0.51100000000E-03 0. -1.
    9900012    2    1    2    0    0 -0.36384494099E+02  0.13981040342E+02 -0.19087255565E+02  0.47787260088E+02  0.19999950045E+02 0.  0.
        -12    1    1    2    0    0  0.36384494099E+02 -0.13981040342E+02  0.19087255565E+02  0.43400739912E+02  0.00000000000E+00 0.  1.
         11    1    3    3    0    0 -0.80126410721E+01  0.18631600511E+01 -0.11606638843E+02  0.14226308299E+02  0.51100000000E-03 0. -1.
        -11    1    3    3    0    0 -0.14341157418E+01 -0.15657397589E+01 -0.18723857107E+01  0.28309110661E+01  0.51100000000E-03 0.  1.
         12    1    3    3    0    0 -0.26937737285E+02  0.13683620050E+02 -0.56082310112E+01  0.30730040722E+02  0.00000000000E+00 0. -1.
</event>
<event>
 7    1  0.1322363E-009  0.4778727E+02  0.7816164E-02  0.1312668E+00
        -11   -1    0    0    0    0  0.00000000000E+00  0.00000000000E+00  0.45593999997E+02  0.45594000000E+02  0.51100000000E-03 0.  1.
         11   -1    0    0    0    0 -0.00000000000E+00 -0.00000000000E+00 -0.45593999997E+02  0.45594000000E+02  0.51100000000E-03 0. -1.
    9900012    2    1    2    0    0 -0.67256325719E+01 -0.15008191279E+02 -0.40163957377E+02  0.47787269463E+02  0.19999992788E+02 0.  0.
        -12    1    1    2    0    0  0.67256325719E+01  0.15008191279E+02  0.40163957377E+02  0.43400730537E+02  0.00000000000E+00 0.  1.
         11    1    3    3    0    0  0.14785844626E+01 -0.50355992418E+01 -0.60286466959E+01  0.79930002491E+01  0.51100000000E-03 0. -1.
        -11    1    3    3    0    0 -0.12948491007E+02 -0.60276985546E+01 -0.23646790168E+02  0.27625481982E+02  0.51100000000E-03 0.  1.
        -12    1    3    3    0    0  0.47442739730E+01 -0.39448934828E+01 -0.10488520514E+02  0.12168787232E+02  0.00000000000E+00 0.  1.
</event>
<event>
 7    1  0.1322363E-009  0.4778727E+02  0.7816164E-02  0.1312668E+00
        -11   -1    0    0    0    0  0.00000000000E+00  0.00000000000E+00  0.45593999997E+02  0.45594000000E+02  0.51100000000E-03 0.  1.
         11   -1    0    0    0    0 -0.00000000000E+00 -0.00000000000E+00 -0.45593999997E+02  0.45594000000E+02  0.51100000000E-03 0. -1.
    9900012    2    1    2    0    0 -0.62482648372E+01 -0.77876998827E+01 -0.42236643473E+02  0.47787272646E+02  0.20000007303E+02 0.  0.
        -12    1    1    2    0    0  0.62482648372E+01  0.77876998827E+01  0.42236643473E+02  0.43400727354E+02  0.00000000000E+00 0.  1.
         11    1    3    3    0    0 -0.53756064418E+01 -0.90088345932E+01 -0.35480378530E+02  0.36998831147E+02  0.51100000000E-03 0. -1.
        -11    1    3    3    0    0 -0.39362181944E+01 -0.90476340993E+00 -0.14257673176E+01  0.42831324060E+01  0.51100000000E-03 0.  1.
        -12    1    3    3    0    0  0.30635597991E+01  0.21258981204E+01 -0.53304976257E+01  0.65053090932E+01  0.00000000000E+00 0.  1.
</event>
<event>
 7    1  0.1322363E-009  0.4778727E+02  0.7816164E-02  0.1312668E+00
        -11   -1    0    0    0    0  0.00000000000E+00  0.00000000000E+00  0.45593999997E+02  0.45594000000E+02  0.51100000000E-03 0. -1.
         11   -1    0    0    0    0 -0.00000000000E+00 -0.00000000000E+00 -0.45593999997E+02  0.45594000000E+02  0.51100000000E-03 0.  1.
    9900012    2    1    2    0    0 -0.41713134697E+02 -0.11207080998E+02  0.42471943964E+01  0.47787274995E+02  0.20000018010E+02 0.  0.
        -12    1    1    2    0    0  0.41713134697E+02  0.11207080998E+02 -0.42471943964E+01  0.43400725005E+02  0.00000000000E+00 0.  1.
         11    1    3    3    0    0 -0.15326024311E+02 -0.31018989949E+01 -0.24551659497E+01  0.15828349208E+02  0.51100000000E-03 0. -1.
        -11    1    3    3    0    0 -0.72752848242E+01 -0.47992279524E+01 -0.42370458656E+01  0.96909708565E+01  0.51100000000E-03 0.  1.
         12    1    3    3    0    0 -0.19111825562E+02 -0.33059540506E+01  0.10939406212E+02  0.22267954930E+02  0.00000000000E+00 0. -1.
</event>
<event>
 7    1  0.1322363E-009  0.4778727E+02  0.7816164E-02  0.1312668E+00
        -11   -1    0    0    0    0  0.00000000000E+00  0.00000000000E+00  0.45593999997E+02  0.45594000000E+02  0.51100000000E-03 0.  1.
         11   -1    0    0    0    0 -0.00000000000E+00 -0.00000000000E+00 -0.45593999997E+02  0.45594000000E+02  0.51100000000E-03 0. -1.
    9900012    2    1    2    0    0 -0.12220858215E+02 -0.23816859100E+01 -0.41576451488E+02  0.47787272798E+02  0.20000007997E+02 0.  0.
        -12    1    1    2    0    0  0.12220858215E+02  0.23816859100E+01  0.41576451488E+02  0.43400727202E+02  0.00000000000E+00 0.  1.
         11    1    3    3    0    0 -0.12190809651E+02  0.43418292235E+01 -0.22791392548E+02  0.26209061324E+02  0.51100000000E-03 0. -1.
        -11    1    3    3    0    0  0.45327332093E+00 -0.22719581428E+01 -0.16286727417E+02  0.16450675996E+02  0.51100000000E-03 0.  1.
        -12    1    3    3    0    0 -0.48332188506E+00 -0.44515569907E+01 -0.24983315236E+01  0.51275354789E+01  0.00000000000E+00 0.  1.
</event>
<event>
 7    1  0.1322363E-009  0.4778727E+02  0.7816164E-02  0.1312668E+00
        -11   -1    0    0    0    0  0.00000000000E+00  0.00000000000E+00  0.45593999997E+02  0.45594000000E+02  0.51100000000E-03 0.  1.
         11   -1    0    0    0    0 -0.00000000000E+00 -0.00000000000E+00 -0.45593999997E+02  0.45594000000E+02  0.51100000000E-03 0. -1.
    9900012    2    1    2    0    0  0.16807632652E+02  0.21427419325E+02 -0.33793384022E+02  0.47787267080E+02  0.19999981925E+02 0.  0.
        -12    1    1    2    0    0 -0.16807632652E+02 -0.21427419325E+02  0.33793384022E+02  0.43400732920E+02  0.00000000000E+00 0.  1.
         11    1    3    3    0    0  0.47582869344E+01  0.29336698441E+01  0.21735566622E-01  0.55900076923E+01  0.51100000000E-03 0. -1.
        -11    1    3    3    0    0 -0.17619570603E+01  0.37287012885E+01 -0.10813355136E+02  0.11573087554E+02  0.51100000000E-03 0.  1.
        -12    1    3    3    0    0  0.13811302777E+02  0.14765048193E+02 -0.23001764453E+02  0.30624171834E+02  0.00000000000E+00 0.  1.
</event>
<event>
 7    1  0.1322363E-009  0.4778727E+02  0.7816164E-02  0.1312668E+00
        -11   -1    0    0    0    0  0.00000000000E+00  0.00000000000E+00  0.45593999997E+02  0.45594000000E+02  0.51100000000E-03 0.  1.
         11   -1    0    0    0    0 -0.00000000000E+00 -0.00000000000E+00 -0.45593999997E+02  0.45594000000E+02  0.51100000000E-03 0. -1.
    9900012    2    1    2    0    0  0.13714999627E+02 -0.83865541105E+01 -0.40313618405E+02  0.47787270357E+02  0.19999996866E+02 0.  0.
        -12    1    1    2    0    0 -0.13714999627E+02  0.83865541105E+01  0.40313618405E+02  0.43400729643E+02  0.00000000000E+00 0.  1.
         11    1    3    3    0    0  0.14936131660E+00 -0.19529843344E+01  0.99495218919E+00  0.21969038971E+01  0.51100000000E-03 0. -1.
        -11    1    3    3    0    0 -0.18260254016E+01 -0.26261967587E+01 -0.45887548721E+01  0.55935632400E+01  0.51100000000E-03 0.  1.
         12    1    3    3    0    0  0.15391663712E+02 -0.38073730174E+01 -0.36719815723E+02  0.39996803220E+02  0.00000000000E+00 0. -1.
</event>
<event>
 7    1  0.1322363E-009  0.4778727E+02  0.7816164E-02  0.1312668E+00
        -11   -1    0    0    0    0  0.00000000000E+00  0.00000000000E+00  0.45593999997E+02  0.45594000000E+02  0.51100000000E-03 0. -1.
         11   -1    0    0    0    0 -0.00000000000E+00 -0.00000000000E+00 -0.45593999997E+02  0.45594000000E+02  0.51100000000E-03 0.  1.
    9900012    2    1    2    0    0  0.40288888100E+02 -0.14284356689E+02  0.75090543724E+01  0.47787271343E+02  0.20000001363E+02 0.  0.
        -12    1    1    2    0    0 -0.40288888100E+02  0.14284356689E+02 -0.75090543724E+01  0.43400728657E+02  0.00000000000E+00 0.  1.
         11    1    3    3    0    0 -0.80514983581E+00  0.20270952574E+01  0.12250309141E+01  0.25016159662E+01  0.51100000000E-03 0. -1.
        -11    1    3    3    0    0  0.14263277327E+02 -0.74114586502E+01 -0.96431900023E+00  0.16102816860E+02  0.51100000000E-03 0.  1.
         12    1    3    3    0    0  0.26830760609E+02 -0.88999932958E+01  0.72483424585E+01  0.29182838517E+02  0.00000000000E+00 0. -1.
</event>
<event>
 7    1  0.1322363E-009  0.4778727E+02  0.7816164E-02  0.1312668E+00
        -11   -1    0    0    0    0  0.00000000000E+00  0.00000000000E+00  0.45593999997E+02  0.45594000000E+02  0.51100000000E-03 0.  1.
         11   -1    0    0    0    0 -0.00000000000E+00 -0.00000000000E+00 -0.45593999997E+02  0.45594000000E+02  0.51100000000E-03 0. -1.
    9900012    2    1    2    0    0  0.42608577985E+02  0.63215546876E+01 -0.53075585962E+01  0.47787272474E+02  0.20000006517E+02 0.  0.
        -12    1    1    2    0    0 -0.42608577985E+02 -0.63215546876E+01  0.53075585962E+01  0.43400727526E+02  0.00000000000E+00 0.  1.
         11    1    3    3    0    0  0.18698890735E+01  0.50122642604E-01 -0.32168662122E+01  0.37211860898E+01  0.51100000000E-03 0. -1.
        -11    1    3    3    0    0  0.25089418539E+02 -0.46144030126E+00  0.50451362122E+01  0.25595805309E+02  0.51100000000E-03 0.  1.
         12    1    3    3    0    0  0.15649270373E+02  0.67328723462E+01 -0.71358285961E+01  0.18470281075E+02  0.00000000000E+00 0. -1.
</event>
<event>
 7    1  0.1672304E-009  0.4778728E+02  0.7816164E-02  0.1312668E+00
        -11   -1    0    0    0    0  0.00000000000E+00  0.00000000000E+00  0.45593999997E+02  0.45594000000E+02  0.51100000000E-03 0.  1.
         11   -1    0    0    0    0 -0.00000000000E+00 -0.00000000000E+00 -0.45593999997E+02  0.45594000000E+02  0.51100000000E-03 0. -1.
    9900012    2    1    2    0    0  0.70165075918E+01  0.42261721318E+02 -0.69525679513E+01  0.47787278017E+02  0.20000031789E+02 0.  0.
        -12    1    1    2    0    0 -0.70165075918E+01 -0.42261721318E+02  0.69525679513E+01  0.43400721983E+02  0.00000000000E+00 0.  1.
         11    1    3    3    0    0  0.88024904303E+01  0.19901328923E+02 -0.79834796336E+00  0.21775768423E+02  0.51100000000E-03 0. -1.
        -11    1    3    3    0    0  0.27153407230E+00  0.20867779264E+02 -0.85174670565E+01  0.22540745052E+02  0.51100000000E-03 0.  1.
        -12    1    3    3    0    0 -0.20575169108E+01  0.14926131307E+01  0.23632470686E+01  0.34707645416E+01  0.00000000000E+00 0.  1.
</event>
<event>
 7    1  0.1322363E-009  0.4778725E+02  0.7816164E-02  0.1312668E+00
        -11   -1    0    0    0    0  0.00000000000E+00  0.00000000000E+00  0.45593999997E+02  0.45594000000E+02  0.51100000000E-03 0.  1.
         11   -1    0    0    0    0 -0.00000000000E+00 -0.00000000000E+00 -0.45593999997E+02  0.45594000000E+02  0.51100000000E-03 0. -1.
    9900012    2    1    2    0    0  0.92286019420E+01 -0.14405460277E+02 -0.39886600362E+02  0.47787248070E+02  0.19999895252E+02 0.  0.
        -12    1    1    2    0    0 -0.92286019420E+01  0.14405460277E+02  0.39886600362E+02  0.43400751930E+02  0.00000000000E+00 0.  1.
         11    1    3    3    0    0  0.73376311936E+01 -0.92192907441E+01 -0.19693898496E+02  0.22949635980E+02  0.51100000000E-03 0. -1.
        -11    1    3    3    0    0  0.20625711386E+01  0.38488665541E+01 -0.11489890345E+02  0.12291686371E+02  0.51100000000E-03 0.  1.
         12    1    3    3    0    0 -0.17160039013E+00 -0.90350360868E+01 -0.87028115211E+01  0.12545925719E+02  0.00000000000E+00 0. -1.
</event>
<event>
 7    1  0.1322363E-009  0.4778727E+02  0.7816164E-02  0.1312668E+00
        -11   -1    0    0    0    0  0.00000000000E+00  0.00000000000E+00  0.45593999997E+02  0.45594000000E+02  0.51100000000E-03 0.  1.
         11   -1    0    0    0    0 -0.00000000000E+00 -0.00000000000E+00 -0.45593999997E+02  0.45594000000E+02  0.51100000000E-03 0. -1.
    9900012    2    1    2    0    0 -0.24515489737E+02  0.28851791415E+02 -0.21217639525E+02  0.47787270376E+02  0.19999996952E+02 0.  0.
        -12    1    1    2    0    0  0.24515489737E+02 -0.28851791415E+02  0.21217639525E+02  0.43400729624E+02  0.00000000000E+00 0.  1.
         11    1    3    3    0    0 -0.20591237833E+02  0.24700577796E+02 -0.23177355119E+02  0.39639720099E+02  0.51100000000E-03 0. -1.
        -11    1    3    3    0    0  0.26163898755E+00 -0.10879043303E+01 -0.12284898341E+00  0.11256477804E+01  0.51100000000E-03 0.  1.
         12    1    3    3    0    0 -0.41858908913E+01  0.52391179500E+01  0.20825645783E+01  0.70219024965E+01  0.00000000000E+00 0. -1.
</event>
<event>
 7    1  0.1322363E-009  0.4778727E+02  0.7816164E-02  0.1312668E+00
        -11   -1    0    0    0    0  0.00000000000E+00  0.00000000000E+00  0.45593999997E+02  0.45594000000E+02  0.51100000000E-03 0.  1.
         11   -1    0    0    0    0 -0.00000000000E+00 -0.00000000000E+00 -0.45593999997E+02  0.45594000000E+02  0.51100000000E-03 0. -1.
    9900012    2    1    2    0    0 -0.32973263059E+02  0.25533844283E+02 -0.12017062693E+02  0.47787273320E+02  0.20000010373E+02 0.  0.
        -12    1    1    2    0    0  0.32973263059E+02 -0.25533844283E+02  0.12017062693E+02  0.43400726680E+02  0.00000000000E+00 0.  1.
         11    1    3    3    0    0  0.22610956865E+00  0.41854281922E+01 -0.56334677295E+00  0.42292191403E+01  0.51100000000E-03 0. -1.
        -11    1    3    3    0    0 -0.83419729741E+01  0.13660052120E+02 -0.44176339203E+01  0.16604247250E+02  0.51100000000E-03 0.  1.
        -12    1    3    3    0    0 -0.24857399653E+02  0.76883639712E+01 -0.70360819997E+01  0.26953806929E+02  0.00000000000E+00 0.  1.
</event>
<event>
 7    1  0.1322363E-009  0.4778727E+02  0.7816164E-02  0.1312668E+00
        -11   -1    0    0    0    0  0.00000000000E+00  0.00000000000E+00  0.45593999997E+02  0.45594000000E+02  0.51100000000E-03 0. -1.
         11   -1    0    0    0    0 -0.00000000000E+00 -0.00000000000E+00 -0.45593999997E+02  0.45594000000E+02  0.51100000000E-03 0.  1.
    9900012    2    1    2    0    0 -0.43349155730E+01  0.43172074712E+02  0.10019122179E+01  0.47787270097E+02  0.19999995681E+02 0.  0.
        -12    1    1    2    0    0  0.43349155730E+01 -0.43172074712E+02 -0.10019122179E+01  0.43400729903E+02  0.00000000000E+00 0.  1.
         11    1    3    3    0    0 -0.67990799824E+01  0.25932037090E+02  0.29981111306E+01  0.26975668794E+02  0.51100000000E-03 0. -1.
        -11    1    3    3    0    0 -0.17414600427E+01  0.14304447186E+02 -0.45106863921E+01  0.15099542522E+02  0.51100000000E-03 0.  1.
         12    1    3    3    0    0  0.42056244520E+01  0.29355904361E+01  0.25144874794E+01  0.57120587816E+01  0.00000000000E+00 0. -1.
</event>
<event>
 7    1  0.1322363E-009  0.4778727E+02  0.7816164E-02  0.1312668E+00
        -11   -1    0    0    0    0  0.00000000000E+00  0.00000000000E+00  0.45593999997E+02  0.45594000000E+02  0.51100000000E-03 0.  1.
         11   -1    0    0    0    0 -0.00000000000E+00 -0.00000000000E+00 -0.45593999997E+02  0.45594000000E+02  0.51100000000E-03 0. -1.
    9900012    2    1    2    0    0 -0.38136289111E+01  0.14976251046E+02 -0.40556027297E+02  0.47787271769E+02  0.20000003302E+02 0.  0.
        -12    1    1    2    0    0  0.38136289111E+01 -0.14976251046E+02  0.40556027297E+02  0.43400728231E+02  0.00000000000E+00 0.  1.
         11    1    3    3    0    0 -0.53541879993E+01  0.54166656430E+01 -0.48243967686E+01  0.90156752527E+01  0.51100000000E-03 0. -1.
        -11    1    3    3    0    0  0.48697960475E+01  0.23980394965E+01 -0.63834651145E+01  0.83793874538E+01  0.51100000000E-03 0.  1.
         12    1    3    3    0    0 -0.33292369593E+01  0.71615459068E+01 -0.29348165414E+02  0.30392209062E+02  0.00000000000E+00 0. -1.
</event>
<event>
 7    1  0.1322363E-009  0.4778728E+02  0.7816164E-02  0.1312668E+00
        -11   -1    0    0    0    0  0.00000000000E+00  0.00000000000E+00  0.45593999997E+02  0.45594000000E+02  0.51100000000E-03 0.  1.
         11   -1    0    0    0    0 -0.00000000000E+00 -0.00000000000E+00 -0.45593999997E+02  0.45594000000E+02  0.51100000000E-03 0. -1.
    9900012    2    1    2    0    0 -0.41745065998E+01 -0.28438727737E+02 -0.32518224190E+02  0.47787278288E+02  0.20000033027E+02 0.  0.
        -12    1    1    2    0    0  0.41745065998E+01  0.28438727737E+02  0.32518224190E+02  0.43400721712E+02  0.00000000000E+00 0.  1.
         11    1    3    3    0    0 -0.75460401291E+01 -0.61413467911E+01 -0.60409748939E+01  0.11452171845E+02  0.51100000000E-03 0. -1.
        -11    1    3    3    0    0 -0.25361241569E+01 -0.62426811041E+01 -0.12673263185E+02  0.14353208461E+02  0.51100000000E-03 0.  1.
         12    1    3    3    0    0  0.59076576862E+01 -0.16054699842E+02 -0.13803986111E+02  0.21981897982E+02  0.00000000000E+00 0. -1.
</event>
<event>
 7    1  0.1322363E-009  0.4778726E+02  0.7816164E-02  0.1312668E+00
        -11   -1    0    0    0    0  0.00000000000E+00  0.00000000000E+00  0.45593999997E+02  0.45594000000E+02  0.51100000000E-03 0.  1.
         11   -1    0    0    0    0 -0.00000000000E+00 -0.00000000000E+00 -0.45593999997E+02  0.45594000000E+02  0.51100000000E-03 0. -1.
    9900012    2    1    2    0    0 -0.12827527662E+02  0.34650663663E+02 -0.22768619236E+02  0.47787262908E+02  0.19999962903E+02 0.  0.
        -12    1    1    2    0    0  0.12827527662E+02 -0.34650663663E+02  0.22768619236E+02  0.43400737092E+02  0.00000000000E+00 0.  1.
         11    1    3    3    0    0 -0.16292689967E+02  0.25985643503E+02 -0.22026654623E+02  0.37760812077E+02  0.51100000000E-03 0. -1.
        -11    1    3    3    0    0  0.82260690819E+00  0.65535829677E+01 -0.71753559522E+00  0.66438685592E+01  0.51100000000E-03 0.  1.
        -12    1    3    3    0    0  0.26425553974E+01  0.21114371929E+01 -0.24429018133E-01  0.33825822717E+01  0.00000000000E+00 0.  1.
</event>
<event>
 7    1  0.1322363E-009  0.4778727E+02  0.7816164E-02  0.1312668E+00
        -11   -1    0    0    0    0  0.00000000000E+00  0.00000000000E+00  0.45593999997E+02  0.45594000000E+02  0.51100000000E-03 0.  1.
         11   -1    0    0    0    0 -0.00000000000E+00 -0.00000000000E+00 -0.45593999997E+02  0.45594000000E+02  0.51100000000E-03 0. -1.
    9900012    2    1    2    0    0 -0.30778545521E+01 -0.43145123089E+02 -0.35564530143E+01  0.47787271976E+02  0.20000004246E+02 0.  0.
        -12    1    1    2    0    0  0.30778545521E+01  0.43145123089E+02  0.35564530143E+01  0.43400728024E+02  0.00000000000E+00 0.  1.
         11    1    3    3    0    0  0.17825219294E+00 -0.14724292904E+02 -0.46862663417E+01  0.15453079559E+02  0.51100000000E-03 0. -1.
        -11    1    3    3    0    0 -0.64790433188E+01 -0.22739298502E+02  0.57499098317E+01  0.24333416571E+02  0.51100000000E-03 0.  1.
        -12    1    3    3    0    0  0.32229365738E+01 -0.56815316826E+01 -0.46200965043E+01  0.80007758454E+01  0.00000000000E+00 0.  1.
</event>
<event>
 7    1  0.1322363E-009  0.4778727E+02  0.7816164E-02  0.1312668E+00
        -11   -1    0    0    0    0  0.00000000000E+00  0.00000000000E+00  0.45593999997E+02  0.45594000000E+02  0.51100000000E-03 0.  1.
         11   -1    0    0    0    0 -0.00000000000E+00 -0.00000000000E+00 -0.45593999997E+02  0.45594000000E+02  0.51100000000E-03 0. -1.
    9900012    2    1    2    0    0 -0.25040715898E+02  0.48628331140E+01 -0.35113228027E+02  0.47787269810E+02  0.19999994371E+02 0.  0.
        -12    1    1    2    0    0  0.25040715898E+02 -0.48628331140E+01  0.35113228027E+02  0.43400730190E+02  0.00000000000E+00 0.  1.
         11    1    3    3    0    0 -0.49188850168E+01  0.33959163720E+01 -0.14139405147E+02  0.15350910592E+02  0.51100000000E-03 0. -1.
        -11    1    3    3    0    0 -0.36450179705E+01 -0.44332213027E+01 -0.90824409093E+00  0.58107241127E+01  0.51100000000E-03 0.  1.
        -12    1    3    3    0    0 -0.16476812911E+02  0.59001380448E+01 -0.20065578789E+02  0.26625635105E+02  0.00000000000E+00 0.  1.
</event>
<event>
 7    1  0.1322363E-009  0.4778728E+02  0.7816164E-02  0.1312668E+00
        -11   -1    0    0    0    0  0.00000000000E+00  0.00000000000E+00  0.45593999997E+02  0.45594000000E+02  0.51100000000E-03 0.  1.
         11   -1    0    0    0    0 -0.00000000000E+00 -0.00000000000E+00 -0.45593999997E+02  0.45594000000E+02  0.51100000000E-03 0. -1.
    9900012    2    1    2    0    0 -0.95996372498E+01 -0.39838348466E+02 -0.14296003478E+02  0.47787276973E+02  0.20000027030E+02 0.  0.
        -12    1    1    2    0    0  0.95996372498E+01  0.39838348466E+02  0.14296003478E+02  0.43400723027E+02  0.00000000000E+00 0.  1.
         11    1    3    3    0    0 -0.67357746393E+01 -0.25810846364E+02 -0.11020070281E+02  0.28861954183E+02  0.51100000000E-03 0. -1.
        -11    1    3    3    0    0  0.45808816605E+01 -0.66074382750E+01 -0.23349890066E+01  0.83722691827E+01  0.51100000000E-03 0.  1.
        -12    1    3    3    0    0 -0.74447442710E+01 -0.74200638269E+01 -0.94094419117E+00  0.10553053607E+02  0.00000000000E+00 0.  1.
</event>
<event>
 7    1  0.1322363E-009  0.4778727E+02  0.7816164E-02  0.1312668E+00
        -11   -1    0    0    0    0  0.00000000000E+00  0.00000000000E+00  0.45593999997E+02  0.45594000000E+02  0.51100000000E-03 0. -1.
         11   -1    0    0    0    0 -0.00000000000E+00 -0.00000000000E+00 -0.45593999997E+02  0.45594000000E+02  0.51100000000E-03 0.  1.
    9900012    2    1    2    0    0 -0.26323614067E+02  0.27064022452E+02  0.21406299365E+02  0.47787267041E+02  0.19999981748E+02 0.  0.
        -12    1    1    2    0    0  0.26323614067E+02 -0.27064022452E+02 -0.21406299365E+02  0.43400732959E+02  0.00000000000E+00 0.  1.
         11    1    3    3    0    0 -0.31366646127E-01  0.32837095841E+01  0.43238671544E+01  0.54295082585E+01  0.51100000000E-03 0. -1.
        -11    1    3    3    0    0 -0.17143956916E+01 -0.12496730933E+01  0.47006583693E+01  0.51572303413E+01  0.51100000000E-03 0.  1.
         12    1    3    3    0    0 -0.24577851730E+02  0.25029985961E+02  0.12381773841E+02  0.37200528442E+02  0.00000000000E+00 0. -1.
</event>
<event>
 7    1  0.1322363E-009  0.4778727E+02  0.7816164E-02  0.1312668E+00
        -11   -1    0    0    0    0  0.00000000000E+00  0.00000000000E+00  0.45593999997E+02  0.45594000000E+02  0.51100000000E-03 0.  1.
         11   -1    0    0    0    0 -0.00000000000E+00 -0.00000000000E+00 -0.45593999997E+02  0.45594000000E+02  0.51100000000E-03 0. -1.
    9900012    2    1    2    0    0 -0.32068407758E+02 -0.17834072774E+02 -0.23177280864E+02  0.47787271018E+02  0.19999999881E+02 0.  0.
        -12    1    1    2    0    0  0.32068407758E+02  0.17834072774E+02  0.23177280864E+02  0.43400728982E+02  0.00000000000E+00 0.  1.
         11    1    3    3    0    0 -0.23429480087E+02 -0.49140967723E+01 -0.14409686588E+02  0.27941509481E+02  0.51100000000E-03 0. -1.
        -11    1    3    3    0    0  0.85760253417E+00  0.75900541484E+00 -0.69876831853E+00  0.13415844179E+01  0.51100000000E-03 0.  1.
         12    1    3    3    0    0 -0.94965302057E+01 -0.13678981417E+02 -0.80688259573E+01  0.18504177120E+02  0.00000000000E+00 0. -1.
</event>
<event>
 7    1  0.1322363E-009  0.4778727E+02  0.7816164E-02  0.1312668E+00
        -11   -1    0    0    0    0  0.00000000000E+00  0.00000000000E+00  0.45593999997E+02  0.45594000000E+02  0.51100000000E-03 0.  1.
         11   -1    0    0    0    0 -0.00000000000E+00 -0.00000000000E+00 -0.45593999997E+02  0.45594000000E+02  0.51100000000E-03 0. -1.
    9900012    2    1    2    0    0 -0.93732061388E+00  0.42113107578E+02 -0.10451358954E+02  0.47787270700E+02  0.19999998430E+02 0.  0.
        -12    1    1    2    0    0  0.93732061388E+00 -0.42113107578E+02  0.10451358954E+02  0.43400729300E+02  0.00000000000E+00 0.  1.
         11    1    3    3    0    0 -0.66130695801E+01  0.58124457700E+01 -0.91470688702E+00  0.88517740623E+01  0.51100000000E-03 0. -1.
        -11    1    3    3    0    0  0.31352015854E+01  0.92724217398E+01 -0.61935116695E+01  0.11583042820E+02  0.51100000000E-03 0.  1.
        -12    1    3    3    0    0  0.25405473808E+01  0.27028240068E+02 -0.33431403974E+01  0.27352453818E+02  0.00000000000E+00 0.  1.
</event>
<event>
 7    1  0.1322363E-009  0.4778727E+02  0.7816164E-02  0.1312668E+00
        -11   -1    0    0    0    0  0.00000000000E+00  0.00000000000E+00  0.45593999997E+02  0.45594000000E+02  0.51100000000E-03 0. -1.
         11   -1    0    0    0    0 -0.00000000000E+00 -0.00000000000E+00 -0.45593999997E+02  0.45594000000E+02  0.51100000000E-03 0.  1.
    9900012    2    1    2    0    0 -0.51953608213E+00  0.33740002990E+02  0.27294058050E+02  0.47787270463E+02  0.19999997348E+02 0.  0.
        -12    1    1    2    0    0  0.51953608213E+00 -0.33740002990E+02 -0.27294058050E+02  0.43400729537E+02  0.00000000000E+00 0.  1.
         11    1    3    3    0    0  0.64132134555E+00  0.29208955063E+02  0.16126764588E+02  0.33371348268E+02  0.51100000000E-03 0. -1.
        -11    1    3    3    0    0 -0.31765513913E+01  0.53495005751E+01  0.53512375129E+01  0.82063011354E+01  0.51100000000E-03 0.  1.
        -12    1    3    3    0    0  0.20156939636E+01 -0.81845264727E+00  0.58160559493E+01  0.62096210589E+01  0.00000000000E+00 0.  1.
</event>
<event>
 7    1  0.1322363E-009  0.4778727E+02  0.7816164E-02  0.1312668E+00
        -11   -1    0    0    0    0  0.00000000000E+00  0.00000000000E+00  0.45593999997E+02  0.45594000000E+02  0.51100000000E-03 0.  1.
         11   -1    0    0    0    0 -0.00000000000E+00 -0.00000000000E+00 -0.45593999997E+02  0.45594000000E+02  0.51100000000E-03 0. -1.
    9900012    2    1    2    0    0  0.10417448259E+02 -0.32938983958E+02 -0.26270202516E+02  0.47787269216E+02  0.19999991662E+02 0.  0.
        -12    1    1    2    0    0 -0.10417448259E+02  0.32938983958E+02  0.26270202516E+02  0.43400730784E+02  0.00000000000E+00 0.  1.
         11    1    3    3    0    0 -0.12686891413E+01 -0.51524396522E+01 -0.90676882699E+01  0.10506197092E+02  0.51100000000E-03 0.  1.
        -11    1    3    3    0    0  0.60708374902E+01 -0.16537981952E+02 -0.22729800599E+01  0.17763061490E+02  0.51100000000E-03 0. -1.
         12    1    3    3    0    0  0.56152999104E+01 -0.11248562353E+02 -0.14929534186E+02  0.19518010634E+02  0.00000000000E+00 0. -1.
</event>
<event>
 7    1  0.1322363E-009  0.4778727E+02  0.7816164E-02  0.1312668E+00
        -11   -1    0    0    0    0  0.00000000000E+00  0.00000000000E+00  0.45593999997E+02  0.45594000000E+02  0.51100000000E-03 0. -1.
         11   -1    0    0    0    0 -0.00000000000E+00 -0.00000000000E+00 -0.45593999997E+02  0.45594000000E+02  0.51100000000E-03 0.  1.
    9900012    2    1    2    0    0 -0.32184743552E+02  0.28428853029E+02  0.62901494065E+01  0.47787269803E+02  0.19999994339E+02 0.  0.
        -12    1    1    2    0    0  0.32184743552E+02 -0.28428853029E+02 -0.62901494065E+01  0.43400730197E+02  0.00000000000E+00 0.  1.
         11    1    3    3    0    0 -0.12669238036E+02  0.77417039731E+01  0.77459292561E+01  0.16746432251E+02  0.51100000000E-03 0. -1.
        -11    1    3    3    0    0  0.93671800515E+00  0.29253003013E+01 -0.24579411558E+01  0.39339925598E+01  0.51100000000E-03 0.  1.
         12    1    3    3    0    0 -0.20452223521E+02  0.17761848755E+02  0.10021613062E+01  0.27106844992E+02  0.00000000000E+00 0. -1.
</event>
<event>
 7    1  0.1322363E-009  0.4778727E+02  0.7816164E-02  0.1312668E+00
        -11   -1    0    0    0    0  0.00000000000E+00  0.00000000000E+00  0.45593999997E+02  0.45594000000E+02  0.51100000000E-03 0.  1.
         11   -1    0    0    0    0 -0.00000000000E+00 -0.00000000000E+00 -0.45593999997E+02  0.45594000000E+02  0.51100000000E-03 0. -1.
    9900012    2    1    2    0    0  0.17848561782E+02  0.64319844275E+01 -0.39034363318E+02  0.47787273036E+02  0.20000009079E+02 0.  0.
        -12    1    1    2    0    0 -0.17848561782E+02 -0.64319844275E+01  0.39034363318E+02  0.43400726964E+02  0.00000000000E+00 0.  1.
         11    1    3    3    0    0  0.16009063880E+01  0.64169812688E+01 -0.25100374415E+01  0.70739549112E+01  0.51100000000E-03 0.  1.
        -11    1    3    3    0    0  0.29722549485E+01 -0.19280260560E+01 -0.14479397594E+02  0.14906526721E+02  0.51100000000E-03 0. -1.
        -12    1    3    3    0    0  0.13275400445E+02  0.19430292148E+01 -0.22044928283E+02  0.25806791403E+02  0.00000000000E+00 0.  1.
</event>
<event>
 7    1  0.1322363E-009  0.4778727E+02  0.7816164E-02  0.1312668E+00
        -11   -1    0    0    0    0  0.00000000000E+00  0.00000000000E+00  0.45593999997E+02  0.45594000000E+02  0.51100000000E-03 0.  1.
         11   -1    0    0    0    0 -0.00000000000E+00 -0.00000000000E+00 -0.45593999997E+02  0.45594000000E+02  0.51100000000E-03 0. -1.
    9900012    2    1    2    0    0  0.11346699348E+02 -0.27341120212E+02 -0.31738598025E+02  0.47787273680E+02  0.20000012016E+02 0.  0.
        -12    1    1    2    0    0 -0.11346699348E+02  0.27341120212E+02  0.31738598025E+02  0.43400726320E+02  0.00000000000E+00 0.  1.
         11    1    3    3    0    0  0.10320588698E+02 -0.12577204375E+02 -0.12724683879E+02  0.20654737981E+02  0.51100000000E-03 0. -1.
        -11    1    3    3    0    0 -0.91573420414E+00 -0.14617041324E+02 -0.95821527226E+01  0.17501831826E+02  0.51100000000E-03 0.  1.
        -12    1    3    3    0    0  0.19418448535E+01 -0.14687451320E+00 -0.94317614233E+01  0.96307038738E+01  0.00000000000E+00 0.  1.
</event>
<event>
 7    1  0.1322363E-009  0.4778727E+02  0.7816164E-02  0.1312668E+00
        -11   -1    0    0    0    0  0.00000000000E+00  0.00000000000E+00  0.45593999997E+02  0.45594000000E+02  0.51100000000E-03 0. -1.
         11   -1    0    0    0    0 -0.00000000000E+00 -0.00000000000E+00 -0.45593999997E+02  0.45594000000E+02  0.51100000000E-03 0.  1.
    9900012    2    1    2    0    0  0.68077658377E+01  0.41012310541E+02 -0.12460673531E+02  0.47787266407E+02  0.19999978854E+02 0.  0.
        -12    1    1    2    0    0 -0.68077658377E+01 -0.41012310541E+02  0.12460673531E+02  0.43400733593E+02  0.00000000000E+00 0.  1.
         11    1    3    3    0    0 -0.25978044070E+01  0.81097315786E+01 -0.66068517242E+01  0.10778071441E+02  0.51100000000E-03 0. -1.
        -11    1    3    3    0    0  0.23960282544E+01  0.14840296424E+02  0.35903065908E+01  0.15455279066E+02  0.51100000000E-03 0.  1.
         12    1    3    3    0    0  0.70095419903E+01  0.18062282539E+02 -0.94441283975E+01  0.21553915900E+02  0.00000000000E+00 0. -1.
</event>
<event>
 7    1  0.1322363E-009  0.4778727E+02  0.7816164E-02  0.1312668E+00
        -11   -1    0    0    0    0  0.00000000000E+00  0.00000000000E+00  0.45593999997E+02  0.45594000000E+02  0.51100000000E-03 0.  1.
         11   -1    0    0    0    0 -0.00000000000E+00 -0.00000000000E+00 -0.45593999997E+02  0.45594000000E+02  0.51100000000E-03 0. -1.
    9900012    2    1    2    0    0  0.40092030803E+02 -0.15919553547E+02 -0.47770320450E+01  0.47787272423E+02  0.20000006287E+02 0.  0.
        -12    1    1    2    0    0 -0.40092030803E+02  0.15919553547E+02  0.47770320450E+01  0.43400727577E+02  0.00000000000E+00 0.  1.
         11    1    3    3    0    0  0.12349391018E+02 -0.12205883524E+02  0.36715604796E+01  0.17747433835E+02  0.51100000000E-03 0.  1.
        -11    1    3    3    0    0  0.69617861111E+01 -0.40885256274E+00  0.86795455750E+00  0.70275864740E+01  0.51100000000E-03 0. -1.
        -12    1    3    3    0    0  0.20780853673E+02 -0.33048174602E+01 -0.93165470821E+01  0.23012252114E+02  0.00000000000E+00 0.  1.
</event>
<event>
 7    1  0.1322363E-009  0.4778726E+02  0.7816164E-02  0.1312668E+00
        -11   -1    0    0    0    0  0.00000000000E+00  0.00000000000E+00  0.45593999997E+02  0.45594000000E+02  0.51100000000E-03 0.  1.
         11   -1    0    0    0    0 -0.00000000000E+00 -0.00000000000E+00 -0.45593999997E+02  0.45594000000E+02  0.51100000000E-03 0. -1.
    9900012    2    1    2    0    0 -0.64849606892E+01 -0.30496138950E+02 -0.30191971704E+02  0.47787258516E+02  0.19999942877E+02 0.  0.
        -12    1    1    2    0    0  0.64849606892E+01  0.30496138950E+02  0.30191971704E+02  0.43400741484E+02  0.00000000000E+00 0.  1.
         11    1    3    3    0    0 -0.45822624100E+01 -0.84186745137E+01 -0.12425094984E+02  0.15692488490E+02  0.51100000000E-03 0. -1.
        -11    1    3    3    0    0 -0.79414892509E+00 -0.20761178672E+02 -0.81379996131E+01  0.22313320020E+02  0.51100000000E-03 0.  1.
         12    1    3    3    0    0 -0.11085493541E+01 -0.13162857639E+01 -0.96288771068E+01  0.97814500061E+01  0.00000000000E+00 0. -1.
</event>
<event>
 7    1  0.1322363E-009  0.4778730E+02  0.7816164E-02  0.1312668E+00
        -11   -1    0    0    0    0  0.00000000000E+00  0.00000000000E+00  0.45593999997E+02  0.45594000000E+02  0.51100000000E-03 0. -1.
         11   -1    0    0    0    0 -0.00000000000E+00 -0.00000000000E+00 -0.45593999997E+02  0.45594000000E+02  0.51100000000E-03 0.  1.
    9900012    2    1    2    0    0 -0.31429439707E+02 -0.29460925107E+02 -0.52787209138E+01  0.47787300893E+02  0.20000136091E+02 0.  0.
        -12    1    1    2    0    0  0.31429439707E+02  0.29460925107E+02  0.52787209138E+01  0.43400699107E+02  0.00000000000E+00 0.  1.
         11    1    3    3    0    0 -0.29502835059E+01 -0.62997119916E+01 -0.62328068858E+01  0.93401512771E+01  0.51100000000E-03 0.  1.
        -11    1    3    3    0    0 -0.94478071125E+01 -0.13243958800E+02  0.40491443050E+01  0.16764816545E+02  0.51100000000E-03 0. -1.
        -12    1    3    3    0    0 -0.19031349089E+02 -0.99172543157E+01 -0.30950583330E+01  0.21682333071E+02  0.00000000000E+00 0.  1.
</event>
<event>
 7    1  0.1322363E-009  0.4778726E+02  0.7816164E-02  0.1312668E+00
        -11   -1    0    0    0    0  0.00000000000E+00  0.00000000000E+00  0.45593999997E+02  0.45594000000E+02  0.51100000000E-03 0.  1.
         11   -1    0    0    0    0 -0.00000000000E+00 -0.00000000000E+00 -0.45593999997E+02  0.45594000000E+02  0.51100000000E-03 0. -1.
    9900012    2    1    2    0    0 -0.21231524338E+02  0.97184262977E+01 -0.36584134622E+02  0.47787258745E+02  0.19999943923E+02 0.  0.
        -12    1    1    2    0    0  0.21231524338E+02 -0.97184262977E+01  0.36584134622E+02  0.43400741255E+02  0.00000000000E+00 0.  1.
         11    1    3    3    0    0 -0.10799366639E+02  0.99379440866E+01 -0.14102968847E+02  0.20353937777E+02  0.51100000000E-03 0. -1.
        -11    1    3    3    0    0  0.10369235991E+01 -0.30229208966E+01 -0.19337598295E+01  0.37353297896E+01  0.51100000000E-03 0.  1.
         12    1    3    3    0    0 -0.11469081298E+02  0.28034031078E+01 -0.20547405946E+02  0.23697991179E+02  0.00000000000E+00 0. -1.
</event>
<event>
 7    1  0.1322363E-009  0.4778728E+02  0.7816164E-02  0.1312668E+00
        -11   -1    0    0    0    0  0.00000000000E+00  0.00000000000E+00  0.45593999997E+02  0.45594000000E+02  0.51100000000E-03 0.  1.
         11   -1    0    0    0    0 -0.00000000000E+00 -0.00000000000E+00 -0.45593999997E+02  0.45594000000E+02  0.51100000000E-03 0. -1.
    9900012    2    1    2    0    0 -0.31356623652E+02 -0.22368617490E+02 -0.20000736428E+02  0.47787281655E+02  0.20000048376E+02 0.  0.
        -12    1    1    2    0    0  0.31356623652E+02  0.22368617490E+02  0.20000736428E+02  0.43400718345E+02  0.00000000000E+00 0.  1.
         11    1    3    3    0    0 -0.39847315122E+01 -0.24894054370E+01 -0.91397297929E+01  0.10276667047E+02  0.51100000000E-03 0. -1.
        -11    1    3    3    0    0 -0.45902462468E+01 -0.83285198877E+01  0.57020234852E+00  0.95267903885E+01  0.51100000000E-03 0.  1.
        -12    1    3    3    0    0 -0.22781645893E+02 -0.11550692165E+02 -0.11431208983E+02  0.27983824219E+02  0.00000000000E+00 0.  1.
</event>
<event>
 7    1  0.1322363E-009  0.4778727E+02  0.7816164E-02  0.1312668E+00
        -11   -1    0    0    0    0  0.00000000000E+00  0.00000000000E+00  0.45593999997E+02  0.45594000000E+02  0.51100000000E-03 0.  1.
         11   -1    0    0    0    0 -0.00000000000E+00 -0.00000000000E+00 -0.45593999997E+02  0.45594000000E+02  0.51100000000E-03 0. -1.
    9900012    2    1    2    0    0  0.34826214733E+02  0.23852766458E+02 -0.10089769322E+02  0.47787272526E+02  0.20000006753E+02 0.  0.
        -12    1    1    2    0    0 -0.34826214733E+02 -0.23852766458E+02  0.10089769322E+02  0.43400727474E+02  0.00000000000E+00 0.  1.
         11    1    3    3    0    0  0.16416948409E+02  0.21322812713E+02 -0.10429336846E+02  0.28860866313E+02  0.51100000000E-03 0. -1.
        -11    1    3    3    0    0  0.59507846595E+01  0.65484794657E+00  0.17795129174E+01  0.62455848710E+01  0.51100000000E-03 0.  1.
         12    1    3    3    0    0  0.12458481665E+02  0.18751057985E+01 -0.14399453929E+01  0.12680821341E+02  0.00000000000E+00 0. -1.
</event>
<event>
 7    1  0.1322363E-009  0.4778726E+02  0.7816164E-02  0.1312668E+00
        -11   -1    0    0    0    0  0.00000000000E+00  0.00000000000E+00  0.45593999997E+02  0.45594000000E+02  0.51100000000E-03 0.  1.
         11   -1    0    0    0    0 -0.00000000000E+00 -0.00000000000E+00 -0.45593999997E+02  0.45594000000E+02  0.51100000000E-03 0. -1.
    9900012    2    1    2    0    0 -0.19821931947E+02 -0.57416795922E+01 -0.38180469240E+02  0.47787261503E+02  0.19999956498E+02 0.  0.
        -12    1    1    2    0    0  0.19821931947E+02  0.57416795922E+01  0.38180469240E+02  0.43400738497E+02  0.00000000000E+00 0.  1.
         11    1    3    3    0    0 -0.19867732581E+00 -0.38268029619E+01 -0.19935737966E+02  0.20300678366E+02  0.51100000000E-03 0. -1.
        -11    1    3    3    0    0 -0.10786930232E+02 -0.18236739331E+01 -0.13753641919E+02  0.17574023920E+02  0.51100000000E-03 0.  1.
        -12    1    3    3    0    0 -0.88363243897E+01 -0.91202697088E-01 -0.44910893549E+01  0.99125592178E+01  0.00000000000E+00 0.  1.
</event>
<event>
 7    1  0.1322363E-009  0.4778728E+02  0.7816164E-02  0.1312668E+00
        -11   -1    0    0    0    0  0.00000000000E+00  0.00000000000E+00  0.45593999997E+02  0.45594000000E+02  0.51100000000E-03 0.  1.
         11   -1    0    0    0    0 -0.00000000000E+00 -0.00000000000E+00 -0.45593999997E+02  0.45594000000E+02  0.51100000000E-03 0. -1.
    9900012    2    1    2    0    0  0.32657377590E+02 -0.21009136888E+02 -0.19383873498E+02  0.47787277706E+02  0.20000030372E+02 0.  0.
        -12    1    1    2    0    0 -0.32657377590E+02  0.21009136888E+02  0.19383873498E+02  0.43400722294E+02  0.00000000000E+00 0.  1.
         11    1    3    3    0    0  0.20312673205E+02 -0.66405044050E+01 -0.72130061295E+01  0.22555009403E+02  0.51100000000E-03 0.  1.
        -11    1    3    3    0    0  0.90042814350E+01 -0.24809206050E+01 -0.28622317233E+01  0.97685424659E+01  0.51100000000E-03 0. -1.
        -12    1    3    3    0    0  0.33404229502E+01 -0.11887711878E+02 -0.93086356447E+01  0.15463725837E+02  0.00000000000E+00 0.  1.
</event>
<event>
 7    1  0.1322363E-009  0.4778727E+02  0.7816164E-02  0.1312668E+00
        -11   -1    0    0    0    0  0.00000000000E+00  0.00000000000E+00  0.45593999997E+02  0.45594000000E+02  0.51100000000E-03 0.  1.
         11   -1    0    0    0    0 -0.00000000000E+00 -0.00000000000E+00 -0.45593999997E+02  0.45594000000E+02  0.51100000000E-03 0. -1.
    9900012    2    1    2    0    0  0.43212461165E+02  0.39356367399E+01 -0.90402075253E+00  0.47787270859E+02  0.19999999153E+02 0.  0.
        -12    1    1    2    0    0 -0.43212461165E+02 -0.39356367399E+01  0.90402075253E+00  0.43400729141E+02  0.00000000000E+00 0.  1.
         11    1    3    3    0    0  0.10861259412E+02  0.94603548189E+01 -0.17281876613E+01  0.14506960473E+02  0.51100000000E-03 0. -1.
        -11    1    3    3    0    0  0.14017772093E+02 -0.64877528486E+00 -0.17275436902E+01  0.14138714626E+02  0.51100000000E-03 0.  1.
        -12    1    3    3    0    0  0.18333429660E+02 -0.48759427942E+01  0.25517105990E+01  0.19141595759E+02  0.00000000000E+00 0.  1.
</event>
<event>
 7    1  0.1322363E-009  0.4778727E+02  0.7816164E-02  0.1312668E+00
        -11   -1    0    0    0    0  0.00000000000E+00  0.00000000000E+00  0.45593999997E+02  0.45594000000E+02  0.51100000000E-03 0. -1.
         11   -1    0    0    0    0 -0.00000000000E+00 -0.00000000000E+00 -0.45593999997E+02  0.45594000000E+02  0.51100000000E-03 0.  1.
    9900012    2    1    2    0    0 -0.42022350748E+02 -0.78201920293E+01  0.75226325967E+01  0.47787269973E+02  0.19999995113E+02 0.  0.
        -12    1    1    2    0    0  0.42022350748E+02  0.78201920293E+01 -0.75226325967E+01  0.43400730027E+02  0.00000000000E+00 0.  1.
         11    1    3    3    0    0 -0.20740312046E+02  0.10927964353E+01 -0.33844042698E+01  0.21043025931E+02  0.51100000000E-03 0. -1.
        -11    1    3    3    0    0  0.25663400623E+00 -0.15566289705E+01  0.12804221520E+01  0.20318552886E+01  0.51100000000E-03 0.  1.
        -12    1    3    3    0    0 -0.21538672708E+02 -0.73563594940E+01  0.96266147145E+01  0.24712388753E+02  0.00000000000E+00 0.  1.
</event>
<event>
 7    1  0.1322363E-009  0.4778727E+02  0.7816164E-02  0.1312668E+00
        -11   -1    0    0    0    0  0.00000000000E+00  0.00000000000E+00  0.45593999997E+02  0.45594000000E+02  0.51100000000E-03 0.  1.
         11   -1    0    0    0    0 -0.00000000000E+00 -0.00000000000E+00 -0.45593999997E+02  0.45594000000E+02  0.51100000000E-03 0. -1.
    9900012    2    1    2    0    0 -0.91645377779E+01 -0.40177450715E+02  0.13616424792E+02  0.47787270482E+02  0.19999997435E+02 0.  0.
        -12    1    1    2    0    0  0.91645377779E+01  0.40177450715E+02 -0.13616424792E+02  0.43400729518E+02  0.00000000000E+00 0.  1.
         11    1    3    3    0    0  0.51786816345E+01 -0.99905281268E+01  0.54515647306E+01  0.12503957533E+02  0.51100000000E-03 0. -1.
        -11    1    3    3    0    0 -0.63106497638E+01 -0.98455139984E+01  0.64278044172E+01  0.13344478867E+02  0.51100000000E-03 0.  1.
         12    1    3    3    0    0 -0.80325696486E+01 -0.20341408589E+02  0.17370556438E+01  0.21938834082E+02  0.00000000000E+00 0. -1.
</event>
<event>
 7    1  0.1322363E-009  0.4778727E+02  0.7816164E-02  0.1312668E+00
        -11   -1    0    0    0    0  0.00000000000E+00  0.00000000000E+00  0.45593999997E+02  0.45594000000E+02  0.51100000000E-03 0.  1.
         11   -1    0    0    0    0 -0.00000000000E+00 -0.00000000000E+00 -0.45593999997E+02  0.45594000000E+02  0.51100000000E-03 0. -1.
    9900012    2    1    2    0    0  0.11901272601E+02  0.35144893145E+02 -0.22512650846E+02  0.47787271299E+02  0.20000001160E+02 0.  0.
        -12    1    1    2    0    0 -0.11901272601E+02 -0.35144893145E+02  0.22512650846E+02  0.43400728701E+02  0.00000000000E+00 0.  1.
         11    1    3    3    0    0  0.12646449445E+02  0.23219557114E+02 -0.16043981414E+02  0.30927170191E+02  0.51100000000E-03 0. -1.
        -11    1    3    3    0    0  0.20913911671E+01  0.14376362714E+01  0.18799998635E+01  0.31583405153E+01  0.51100000000E-03 0.  1.
        -12    1    3    3    0    0 -0.28365680116E+01  0.10487699759E+02 -0.83486692957E+01  0.13701760592E+02  0.00000000000E+00 0.  1.
</event>
<event>
 7    1  0.1322363E-009  0.4778727E+02  0.7816164E-02  0.1312668E+00
        -11   -1    0    0    0    0  0.00000000000E+00  0.00000000000E+00  0.45593999997E+02  0.45594000000E+02  0.51100000000E-03 0. -1.
         11   -1    0    0    0    0 -0.00000000000E+00 -0.00000000000E+00 -0.45593999997E+02  0.45594000000E+02  0.51100000000E-03 0.  1.
    9900012    2    1    2    0    0  0.16165805139E+02 -0.31872646155E+02  0.24625687345E+02  0.47787270675E+02  0.19999998317E+02 0.  0.
        -12    1    1    2    0    0 -0.16165805139E+02  0.31872646155E+02 -0.24625687345E+02  0.43400729325E+02  0.00000000000E+00 0.  1.
         11    1    3    3    0    0 -0.98700045212E+00 -0.12128580666E+02  0.59075807378E+01  0.13526867683E+02  0.51100000000E-03 0. -1.
        -11    1    3    3    0    0 -0.54187437985E+00 -0.19658012229E+01 -0.10779381078E+01  0.23065023556E+01  0.51100000000E-03 0.  1.
        -12    1    3    3    0    0  0.17694679970E+02 -0.17778264266E+02  0.19796044715E+02  0.31953900637E+02  0.00000000000E+00 0.  1.
</event>
<event>
 7    1  0.1322363E-009  0.4778727E+02  0.7816164E-02  0.1312668E+00
        -11   -1    0    0    0    0  0.00000000000E+00  0.00000000000E+00  0.45593999997E+02  0.45594000000E+02  0.51100000000E-03 0.  1.
         11   -1    0    0    0    0 -0.00000000000E+00 -0.00000000000E+00 -0.45593999997E+02  0.45594000000E+02  0.51100000000E-03 0. -1.
    9900012    2    1    2    0    0  0.15521661722E+02 -0.40529768714E+02  0.19793827729E+00  0.47787270580E+02  0.19999997882E+02 0.  0.
        -12    1    1    2    0    0 -0.15521661722E+02  0.40529768714E+02 -0.19793827729E+00  0.43400729420E+02  0.00000000000E+00 0.  1.
         11    1    3    3    0    0 -0.20202572053E+01 -0.10680500846E+02 -0.10039985307E+01  0.10916160076E+02  0.51100000000E-03 0. -1.
        -11    1    3    3    0    0  0.74343407576E+01 -0.10486715810E+02  0.64872261770E+01  0.14398775459E+02  0.51100000000E-03 0.  1.
        -12    1    3    3    0    0  0.10107578169E+02 -0.19362552059E+02 -0.52852893690E+01  0.22472335045E+02  0.00000000000E+00 0.  1.
</event>
<event>
 7    1  0.1322363E-009  0.4778727E+02  0.7816164E-02  0.1312668E+00
        -11   -1    0    0    0    0  0.00000000000E+00  0.00000000000E+00  0.45593999997E+02  0.45594000000E+02  0.51100000000E-03 0.  1.
         11   -1    0    0    0    0 -0.00000000000E+00 -0.00000000000E+00 -0.45593999997E+02  0.45594000000E+02  0.51100000000E-03 0. -1.
    9900012    2    1    2    0    0  0.22723615933E+02  0.36896148518E+02  0.24361479872E+01  0.47787270587E+02  0.19999997914E+02 0.  0.
        -12    1    1    2    0    0 -0.22723615933E+02 -0.36896148518E+02 -0.24361479872E+01  0.43400729413E+02  0.00000000000E+00 0.  1.
         11    1    3    3    0    0  0.16098618235E+02  0.24387251405E+02 -0.15152766847E+01  0.29260888637E+02  0.51100000000E-03 0. -1.
        -11    1    3    3    0    0  0.44411073389E+01  0.13659376931E+02  0.57508523647E+01  0.15471726333E+02  0.51100000000E-03 0.  1.
        -12    1    3    3    0    0  0.21838903594E+01 -0.11504798180E+01 -0.17994276928E+01  0.30546556164E+01  0.00000000000E+00 0.  1.
</event>
<event>
 7    1  0.1322363E-009  0.4778727E+02  0.7816164E-02  0.1312668E+00
        -11   -1    0    0    0    0  0.00000000000E+00  0.00000000000E+00  0.45593999997E+02  0.45594000000E+02  0.51100000000E-03 0.  1.
         11   -1    0    0    0    0 -0.00000000000E+00 -0.00000000000E+00 -0.45593999997E+02  0.45594000000E+02  0.51100000000E-03 0. -1.
    9900012    2    1    2    0    0 -0.21106575148E+02 -0.23397998436E+02 -0.29844085085E+02  0.47787271206E+02  0.20000000737E+02 0.  0.
        -12    1    1    2    0    0  0.21106575148E+02  0.23397998436E+02  0.29844085085E+02  0.43400728794E+02  0.00000000000E+00 0.  1.
         11    1    3    3    0    0  0.14611722414E+01 -0.26006139547E+01 -0.28079127855E+01  0.40966561648E+01  0.51100000000E-03 0. -1.
        -11    1    3    3    0    0 -0.23257480957E+02 -0.21234576793E+02 -0.28196810816E+02  0.42271477529E+02  0.51100000000E-03 0.  1.
        -12    1    3    3    0    0  0.68973356772E+00  0.43719231158E+00  0.11606385168E+01  0.14191375122E+01  0.00000000000E+00 0.  1.
</event>
<event>
 7    1  0.1322363E-009  0.4778729E+02  0.7816164E-02  0.1312668E+00
        -11   -1    0    0    0    0  0.00000000000E+00  0.00000000000E+00  0.45593999997E+02  0.45594000000E+02  0.51100000000E-03 0.  1.
         11   -1    0    0    0    0 -0.00000000000E+00 -0.00000000000E+00 -0.45593999997E+02  0.45594000000E+02  0.51100000000E-03 0. -1.
    9900012    2    1    2    0    0  0.24774741462E+02  0.26708833443E+02 -0.23589659853E+02  0.47787289748E+02  0.20000085277E+02 0.  0.
        -12    1    1    2    0    0 -0.24774741462E+02 -0.26708833443E+02  0.23589659853E+02  0.43400710252E+02  0.00000000000E+00 0.  1.
         11    1    3    3    0    0  0.14007279346E+02  0.13566258268E+02 -0.77590373948E+01  0.20986898285E+02  0.51100000000E-03 0.  1.
        -11    1    3    3    0    0 -0.14827335388E+01  0.82839397390E+01 -0.68758383608E+01  0.10867350633E+02  0.51100000000E-03 0. -1.
         12    1    3    3    0    0  0.12250195654E+02  0.48586354366E+01 -0.89547840973E+01  0.15933040830E+02  0.00000000000E+00 0. -1.
</event>
<event>
 7    1  0.1322363E-009  0.4778727E+02  0.7816164E-02  0.1312668E+00
        -11   -1    0    0    0    0  0.00000000000E+00  0.00000000000E+00  0.45593999997E+02  0.45594000000E+02  0.51100000000E-03 0.  1.
         11   -1    0    0    0    0 -0.00000000000E+00 -0.00000000000E+00 -0.45593999997E+02  0.45594000000E+02  0.51100000000E-03 0. -1.
    9900012    2    1    2    0    0 -0.28149990428E+02 -0.32879789013E+02 -0.31813224599E+01  0.47787270752E+02  0.19999998668E+02 0.  0.
        -12    1    1    2    0    0  0.28149990428E+02  0.32879789013E+02  0.31813224599E+01  0.43400729248E+02  0.00000000000E+00 0.  1.
         11    1    3    3    0    0 -0.28554276640E+01 -0.81718777494E+01 -0.45076391111E+01  0.97597061284E+01  0.51100000000E-03 0. -1.
        -11    1    3    3    0    0 -0.63641914528E+01 -0.75830363592E+00  0.37123587825E+01  0.74067243261E+01  0.51100000000E-03 0.  1.
         12    1    3    3    0    0 -0.18930371311E+02 -0.23949607628E+02 -0.23860421314E+01  0.30620840298E+02  0.00000000000E+00 0. -1.
</event>
<event>
 7    1  0.1322363E-009  0.4778727E+02  0.7816164E-02  0.1312668E+00
        -11   -1    0    0    0    0  0.00000000000E+00  0.00000000000E+00  0.45593999997E+02  0.45594000000E+02  0.51100000000E-03 0. -1.
         11   -1    0    0    0    0 -0.00000000000E+00 -0.00000000000E+00 -0.45593999997E+02  0.45594000000E+02  0.51100000000E-03 0.  1.
    9900012    2    1    2    0    0 -0.23905511614E+02 -0.20109263699E+02  0.30129176578E+02  0.47787271281E+02  0.20000001079E+02 0.  0.
        -12    1    1    2    0    0  0.23905511614E+02  0.20109263699E+02 -0.30129176578E+02  0.43400728719E+02  0.00000000000E+00 0.  1.
         11    1    3    3    0    0  0.76092728362E+00 -0.73818188688E+01  0.76643261330E+01  0.10668278000E+02  0.51100000000E-03 0. -1.
        -11    1    3    3    0    0 -0.59199477326E+01  0.13905598436E+01  0.46255489358E+01  0.76403626258E+01  0.51100000000E-03 0.  1.
         12    1    3    3    0    0 -0.18746491165E+02 -0.14118004674E+02  0.17839301509E+02  0.29478630656E+02  0.00000000000E+00 0. -1.
</event>
<event>
 7    1  0.1322363E-009  0.4778727E+02  0.7816164E-02  0.1312668E+00
        -11   -1    0    0    0    0  0.00000000000E+00  0.00000000000E+00  0.45593999997E+02  0.45594000000E+02  0.51100000000E-03 0.  1.
         11   -1    0    0    0    0 -0.00000000000E+00 -0.00000000000E+00 -0.45593999997E+02  0.45594000000E+02  0.51100000000E-03 0. -1.
    9900012    2    1    2    0    0 -0.18218775989E+02 -0.26182247653E+02 -0.29431099543E+02  0.47787268312E+02  0.19999987542E+02 0.  0.
        -12    1    1    2    0    0  0.18218775989E+02  0.26182247653E+02  0.29431099543E+02  0.43400731688E+02  0.00000000000E+00 0.  1.
         11    1    3    3    0    0 -0.60619580380E+01 -0.95666941696E+01 -0.38905791173E+01  0.11975206834E+02  0.51100000000E-03 0. -1.
        -11    1    3    3    0    0  0.19859611035E+01 -0.16229609957E+01  0.48869767118E+00  0.26109135514E+01  0.51100000000E-03 0.  1.
         12    1    3    3    0    0 -0.14142779054E+02 -0.14992592488E+02 -0.26029218097E+02  0.33201147927E+02  0.00000000000E+00 0. -1.
</event>
<event>
 7    1  0.1322363E-009  0.4778726E+02  0.7816164E-02  0.1312668E+00
        -11   -1    0    0    0    0  0.00000000000E+00  0.00000000000E+00  0.45593999997E+02  0.45594000000E+02  0.51100000000E-03 0.  1.
         11   -1    0    0    0    0 -0.00000000000E+00 -0.00000000000E+00 -0.45593999997E+02  0.45594000000E+02  0.51100000000E-03 0. -1.
    9900012    2    1    2    0    0  0.24426264360E+02 -0.28319848681E+02 -0.22021992271E+02  0.47787258492E+02  0.19999942768E+02 0.  0.
        -12    1    1    2    0    0 -0.24426264360E+02  0.28319848681E+02  0.22021992271E+02  0.43400741508E+02  0.00000000000E+00 0.  1.
         11    1    3    3    0    0  0.27073690631E+01 -0.82017518892E+01 -0.38812883482E+01  0.94690538492E+01  0.51100000000E-03 0. -1.
        -11    1    3    3    0    0  0.89148896904E+01 -0.17619595883E+02 -0.15266590096E+02  0.24959851576E+02  0.51100000000E-03 0.  1.
         12    1    3    3    0    0  0.12804005607E+02 -0.24985009086E+01 -0.28741138262E+01  0.13358353067E+02  0.00000000000E+00 0. -1.
</event>
<event>
 7    1  0.1322363E-009  0.4778730E+02  0.7816164E-02  0.1312668E+00
        -11   -1    0    0    0    0  0.00000000000E+00  0.00000000000E+00  0.45593999997E+02  0.45594000000E+02  0.51100000000E-03 0.  1.
         11   -1    0    0    0    0 -0.00000000000E+00 -0.00000000000E+00 -0.45593999997E+02  0.45594000000E+02  0.51100000000E-03 0. -1.
    9900012    2    1    2    0    0 -0.15626309301E+02  0.19343614552E+02 -0.35570541933E+02  0.47787303926E+02  0.20000149920E+02 0.  0.
        -12    1    1    2    0    0  0.15626309301E+02 -0.19343614552E+02  0.35570541933E+02  0.43400696074E+02  0.00000000000E+00 0.  1.
         11    1    3    3    0    0  0.17996290270E+01  0.82632825347E+01 -0.11856924560E+02  0.14563899312E+02  0.51100000000E-03 0. -1.
        -11    1    3    3    0    0 -0.11235135121E+02  0.12378780575E+02 -0.19169643974E+02  0.25434970416E+02  0.51100000000E-03 0.  1.
         12    1    3    3    0    0 -0.61908032073E+01 -0.12984485582E+01 -0.45439733988E+01  0.77884341982E+01  0.00000000000E+00 0. -1.
</event>
<event>
 7    1  0.1322363E-009  0.4778727E+02  0.7816164E-02  0.1312668E+00
        -11   -1    0    0    0    0  0.00000000000E+00  0.00000000000E+00  0.45593999997E+02  0.45594000000E+02  0.51100000000E-03 0. -1.
         11   -1    0    0    0    0 -0.00000000000E+00 -0.00000000000E+00 -0.45593999997E+02  0.45594000000E+02  0.51100000000E-03 0.  1.
    9900012    2    1    2    0    0  0.13440962967E+02 -0.26404798524E+02  0.31713564145E+02  0.47787273954E+02  0.20000013264E+02 0.  0.
        -12    1    1    2    0    0 -0.13440962967E+02  0.26404798524E+02 -0.31713564145E+02  0.43400726046E+02  0.00000000000E+00 0.  1.
         11    1    3    3    0    0  0.83705532061E+01 -0.98147493360E+01  0.12453588282E+02  0.17930067676E+02  0.51100000000E-03 0. -1.
        -11    1    3    3    0    0  0.79073094777E+01 -0.14786751785E+02  0.20308024481E+02  0.26336086082E+02  0.51100000000E-03 0.  1.
        -12    1    3    3    0    0 -0.28368997167E+01 -0.18032974036E+01 -0.10480486182E+01  0.35211201960E+01  0.00000000000E+00 0.  1.
</event>
<event>
 7    1  0.1322363E-009  0.4778727E+02  0.7816164E-02  0.1312668E+00
        -11   -1    0    0    0    0  0.00000000000E+00  0.00000000000E+00  0.45593999997E+02  0.45594000000E+02  0.51100000000E-03 0.  1.
         11   -1    0    0    0    0 -0.00000000000E+00 -0.00000000000E+00 -0.45593999997E+02  0.45594000000E+02  0.51100000000E-03 0. -1.
    9900012    2    1    2    0    0  0.14938744271E+02  0.77950786540E+01 -0.39996174401E+02  0.47787270763E+02  0.19999998716E+02 0.  0.
        -12    1    1    2    0    0 -0.14938744271E+02 -0.77950786540E+01  0.39996174401E+02  0.43400729237E+02  0.00000000000E+00 0.  1.
         11    1    3    3    0    0  0.11273170934E+02  0.36214621429E+01 -0.25417869312E+02  0.28040460973E+02  0.51100000000E-03 0. -1.
        -11    1    3    3    0    0 -0.21001274352E+01 -0.27374224272E+01 -0.76387981932E+01  0.83818407815E+01  0.51100000000E-03 0.  1.
         12    1    3    3    0    0  0.57657007721E+01  0.69110389383E+01 -0.69395068954E+01  0.11364969008E+02  0.00000000000E+00 0. -1.
</event>
<event>
 7    1  0.1322363E-009  0.4778727E+02  0.7816164E-02  0.1312668E+00
        -11   -1    0    0    0    0  0.00000000000E+00  0.00000000000E+00  0.45593999997E+02  0.45594000000E+02  0.51100000000E-03 0.  1.
         11   -1    0    0    0    0 -0.00000000000E+00 -0.00000000000E+00 -0.45593999997E+02  0.45594000000E+02  0.51100000000E-03 0. -1.
    9900012    2    1    2    0    0  0.27531663753E+02  0.58466338577E+01 -0.33037065975E+02  0.47787269999E+02  0.19999995231E+02 0.  0.
        -12    1    1    2    0    0 -0.27531663753E+02 -0.58466338577E+01  0.33037065975E+02  0.43400730001E+02  0.00000000000E+00 0.  1.
         11    1    3    3    0    0  0.15222559949E+01 -0.35271653447E+01 -0.57653873806E+01  0.69280481084E+01  0.51100000000E-03 0. -1.
        -11    1    3    3    0    0  0.20420106694E+01  0.40001956259E+01 -0.48734798903E+00  0.45176189462E+01  0.51100000000E-03 0.  1.
         12    1    3    3    0    0  0.23967397088E+02  0.53736035765E+01 -0.26784330605E+02  0.36341602944E+02  0.00000000000E+00 0. -1.
</event>
<event>
 7    1  0.1322363E-009  0.4778727E+02  0.7816164E-02  0.1312668E+00
        -11   -1    0    0    0    0  0.00000000000E+00  0.00000000000E+00  0.45593999997E+02  0.45594000000E+02  0.51100000000E-03 0.  1.
         11   -1    0    0    0    0 -0.00000000000E+00 -0.00000000000E+00 -0.45593999997E+02  0.45594000000E+02  0.51100000000E-03 0. -1.
    9900012    2    1    2    0    0 -0.77710224986E+01  0.26444454162E+01 -0.42617384077E+02  0.47787270653E+02  0.19999998217E+02 0.  0.
        -12    1    1    2    0    0  0.77710224986E+01 -0.26444454162E+01  0.42617384077E+02  0.43400729347E+02  0.00000000000E+00 0.  1.
         11    1    3    3    0    0 -0.59381661250E+01 -0.57351174857E+01 -0.15219518940E+02  0.17314362435E+02  0.51100000000E-03 0. -1.
        -11    1    3    3    0    0  0.38877030566E+01  0.13380594611E+01 -0.65068106813E+01  0.76969619774E+01  0.51100000000E-03 0.  1.
         12    1    3    3    0    0 -0.57205594302E+01  0.70415034408E+01 -0.20891054456E+02  0.22775946242E+02  0.00000000000E+00 0. -1.
</event>
<event>
 7    1  0.1322363E-009  0.4778727E+02  0.7816164E-02  0.1312668E+00
        -11   -1    0    0    0    0  0.00000000000E+00  0.00000000000E+00  0.45593999997E+02  0.45594000000E+02  0.51100000000E-03 0.  1.
         11   -1    0    0    0    0 -0.00000000000E+00 -0.00000000000E+00 -0.45593999997E+02  0.45594000000E+02  0.51100000000E-03 0. -1.
    9900012    2    1    2    0    0  0.11140036577E+02 -0.31534187277E+02 -0.27660760463E+02  0.47787273606E+02  0.20000011677E+02 0.  0.
        -12    1    1    2    0    0 -0.11140036577E+02  0.31534187277E+02  0.27660760463E+02  0.43400726394E+02  0.00000000000E+00 0.  1.
         11    1    3    3    0    0  0.11305454185E+00 -0.12925817094E+02 -0.17249791990E+02  0.21555622302E+02  0.51100000000E-03 0. -1.
        -11    1    3    3    0    0 -0.10612535929E+01  0.71782969818E+00 -0.59686295555E+00  0.14134299816E+01  0.51100000000E-03 0.  1.
         12    1    3    3    0    0  0.12088235628E+02 -0.19326199882E+02 -0.98141055174E+01  0.24818221322E+02  0.00000000000E+00 0. -1.
</event>
<event>
 7    1  0.1322363E-009  0.4778727E+02  0.7816164E-02  0.1312668E+00
        -11   -1    0    0    0    0  0.00000000000E+00  0.00000000000E+00  0.45593999997E+02  0.45594000000E+02  0.51100000000E-03 0.  1.
         11   -1    0    0    0    0 -0.00000000000E+00 -0.00000000000E+00 -0.45593999997E+02  0.45594000000E+02  0.51100000000E-03 0. -1.
    9900012    2    1    2    0    0  0.33414345012E+02  0.23869289053E+02 -0.14048549500E+02  0.47787272408E+02  0.20000006215E+02 0.  0.
        -12    1    1    2    0    0 -0.33414345012E+02 -0.23869289053E+02  0.14048549500E+02  0.43400727592E+02  0.00000000000E+00 0.  1.
         11    1    3    3    0    0  0.15262422803E+02  0.81342170257E+01 -0.12748386757E+02  0.21485539360E+02  0.51100000000E-03 0. -1.
        -11    1    3    3    0    0  0.88468908531E+00 -0.36989379519E-01  0.24605878744E+01  0.26150594526E+01  0.51100000000E-03 0.  1.
         12    1    3    3    0    0  0.17267233124E+02  0.15772061407E+02 -0.37607506176E+01  0.23686673595E+02  0.00000000000E+00 0. -1.
</event>
<event>
 7    1  0.1322363E-009  0.4778727E+02  0.7816164E-02  0.1312668E+00
        -11   -1    0    0    0    0  0.00000000000E+00  0.00000000000E+00  0.45593999997E+02  0.45594000000E+02  0.51100000000E-03 0.  1.
         11   -1    0    0    0    0 -0.00000000000E+00 -0.00000000000E+00 -0.45593999997E+02  0.45594000000E+02  0.51100000000E-03 0. -1.
    9900012    2    1    2    0    0  0.85630714748E+01  0.39508777040E+02 -0.15790935162E+02  0.47787270864E+02  0.19999999178E+02 0.  0.
        -12    1    1    2    0    0 -0.85630714748E+01 -0.39508777040E+02  0.15790935162E+02  0.43400729136E+02  0.00000000000E+00 0.  1.
         11    1    3    3    0    0  0.45416938244E+00  0.11778641707E+02 -0.57239532472E+01  0.13103675489E+02  0.51100000000E-03 0. -1.
        -11    1    3    3    0    0  0.10656458000E+02  0.88946004259E+01 -0.19542946131E+01  0.14017606127E+02  0.51100000000E-03 0.  1.
        -12    1    3    3    0    0 -0.25475559078E+01  0.18835534907E+02 -0.81126873016E+01  0.20665989248E+02  0.00000000000E+00 0.  1.
</event>
<event>
 7    1  0.1322363E-009  0.4778727E+02  0.7816164E-02  0.1312668E+00
        -11   -1    0    0    0    0  0.00000000000E+00  0.00000000000E+00  0.45593999997E+02  0.45594000000E+02  0.51100000000E-03 0.  1.
         11   -1    0    0    0    0 -0.00000000000E+00 -0.00000000000E+00 -0.45593999997E+02  0.45594000000E+02  0.51100000000E-03 0. -1.
    9900012    2    1    2    0    0 -0.22874459971E+01 -0.17040099977E+02 -0.39850039253E+02  0.47787273683E+02  0.20000012028E+02 0.  0.
        -12    1    1    2    0    0  0.22874459971E+01  0.17040099977E+02  0.39850039253E+02  0.43400726317E+02  0.00000000000E+00 0.  1.
         11    1    3    3    0    0 -0.31371036485E+01 -0.14412120442E+01 -0.18431212625E+02  0.18751749533E+02  0.51100000000E-03 0. -1.
        -11    1    3    3    0    0 -0.89485612605E+00 -0.13223033293E+01 -0.11390357361E+02  0.11501717030E+02  0.51100000000E-03 0.  1.
        -12    1    3    3    0    0  0.17445137775E+01 -0.14276584603E+02 -0.10028469267E+02  0.17533807119E+02  0.00000000000E+00 0.  1.
</event>
<event>
 7    1  0.1322363E-009  0.4778726E+02  0.7816164E-02  0.1312668E+00
        -11   -1    0    0    0    0  0.00000000000E+00  0.00000000000E+00  0.45593999997E+02  0.45594000000E+02  0.51100000000E-03 0.  1.
         11   -1    0    0    0    0 -0.00000000000E+00 -0.00000000000E+00 -0.45593999997E+02  0.45594000000E+02  0.51100000000E-03 0. -1.
    9900012    2    1    2    0    0 -0.32432243365E+02 -0.35427407429E+01 -0.28622062865E+02  0.47787263781E+02  0.19999966884E+02 0.  0.
        -12    1    1    2    0    0  0.32432243365E+02  0.35427407429E+01  0.28622062865E+02  0.43400736219E+02  0.00000000000E+00 0.  1.
         11    1    3    3    0    0 -0.63329448669E+01 -0.10061744712E+01 -0.11526724578E+01  0.65151540128E+01  0.51100000000E-03 0. -1.
        -11    1    3    3    0    0 -0.81308857011E+01 -0.69703222003E+01 -0.41135457137E+01  0.11472486760E+02  0.51100000000E-03 0.  1.
         12    1    3    3    0    0 -0.17968412797E+02  0.44337559285E+01 -0.23355844694E+02  0.29799623008E+02  0.00000000000E+00 0. -1.
</event>
<event>
 7    1  0.1322363E-009  0.4778727E+02  0.7816164E-02  0.1312668E+00
        -11   -1    0    0    0    0  0.00000000000E+00  0.00000000000E+00  0.45593999997E+02  0.45594000000E+02  0.51100000000E-03 0. -1.
         11   -1    0    0    0    0 -0.00000000000E+00 -0.00000000000E+00 -0.45593999997E+02  0.45594000000E+02  0.51100000000E-03 0.  1.
    9900012    2    1    2    0    0  0.33481042550E+02  0.11240474853E+02  0.25224885541E+02  0.47787270332E+02  0.19999996753E+02 0.  0.
        -12    1    1    2    0    0 -0.33481042550E+02 -0.11240474853E+02 -0.25224885541E+02  0.43400729668E+02  0.00000000000E+00 0.  1.
         11    1    3    3    0    0  0.50621669361E+01  0.98827813213E+00  0.32979611243E+01  0.61219911461E+01  0.51100000000E-03 0. -1.
        -11    1    3    3    0    0 -0.19771272724E+01  0.23450217555E+01  0.53112334827E+01  0.61332993286E+01  0.51100000000E-03 0.  1.
        -12    1    3    3    0    0  0.30396002886E+02  0.79071749656E+01  0.16615690934E+02  0.35531979858E+02  0.00000000000E+00 0.  1.
</event>
<event>
 7    1  0.1322363E-009  0.4778729E+02  0.7816164E-02  0.1312668E+00
        -11   -1    0    0    0    0  0.00000000000E+00  0.00000000000E+00  0.45593999997E+02  0.45594000000E+02  0.51100000000E-03 0.  1.
         11   -1    0    0    0    0 -0.00000000000E+00 -0.00000000000E+00 -0.45593999997E+02  0.45594000000E+02  0.51100000000E-03 0. -1.
    9900012    2    1    2    0    0  0.10429911959E+02 -0.29566212323E+02 -0.30011294617E+02  0.47787288264E+02  0.20000078510E+02 0.  0.
        -12    1    1    2    0    0 -0.10429911959E+02  0.29566212323E+02  0.30011294617E+02  0.43400711736E+02  0.00000000000E+00 0.  1.
         11    1    3    3    0    0  0.57863280789E+01 -0.19722095152E+02 -0.16682718927E+02  0.26471791418E+02  0.51100000000E-03 0. -1.
        -11    1    3    3    0    0  0.21784367829E+01 -0.40446359170E+01  0.17944931361E+01  0.49320251819E+01  0.51100000000E-03 0.  1.
        -12    1    3    3    0    0  0.24651470975E+01 -0.57994812538E+01 -0.15123068826E+02  0.16383471664E+02  0.00000000000E+00 0.  1.
</event>
<event>
 7    1  0.1322363E-009  0.4778727E+02  0.7816164E-02  0.1312668E+00
        -11   -1    0    0    0    0  0.00000000000E+00  0.00000000000E+00  0.45593999997E+02  0.45594000000E+02  0.51100000000E-03 0.  1.
         11   -1    0    0    0    0 -0.00000000000E+00 -0.00000000000E+00 -0.45593999997E+02  0.45594000000E+02  0.51100000000E-03 0. -1.
    9900012    2    1    2    0    0 -0.37399542400E+02 -0.10200763175E+02 -0.19515169570E+02  0.47787272075E+02  0.20000004696E+02 0.  0.
        -12    1    1    2    0    0  0.37399542400E+02  0.10200763175E+02  0.19515169570E+02  0.43400727925E+02  0.00000000000E+00 0.  1.
         11    1    3    3    0    0 -0.19662755083E+02 -0.87233480080E+01 -0.19276516602E+02  0.28884335382E+02  0.51100000000E-03 0. -1.
        -11    1    3    3    0    0 -0.74344206397E+01 -0.37781159469E+01  0.13005150780E+00  0.83403647409E+01  0.51100000000E-03 0.  1.
        -12    1    3    3    0    0 -0.10302366677E+02  0.23007007796E+01 -0.36870447649E+00  0.10562571951E+02  0.00000000000E+00 0.  1.
</event>
<event>
 7    1  0.1322363E-009  0.4778727E+02  0.7816164E-02  0.1312668E+00
        -11   -1    0    0    0    0  0.00000000000E+00  0.00000000000E+00  0.45593999997E+02  0.45594000000E+02  0.51100000000E-03 0.  1.
         11   -1    0    0    0    0 -0.00000000000E+00 -0.00000000000E+00 -0.45593999997E+02  0.45594000000E+02  0.51100000000E-03 0. -1.
    9900012    2    1    2    0    0  0.19259095228E+02 -0.14560359120E+02 -0.36065306002E+02  0.47787273005E+02  0.20000008940E+02 0.  0.
        -12    1    1    2    0    0 -0.19259095228E+02  0.14560359120E+02  0.36065306002E+02  0.43400726995E+02  0.00000000000E+00 0.  1.
         11    1    3    3    0    0 -0.20374450392E+01 -0.13524186448E+01 -0.55379772427E+01  0.60538756744E+01  0.51100000000E-03 0. -1.
        -11    1    3    3    0    0  0.19298777512E+02 -0.11844569809E+02 -0.31770380797E+02  0.39014019835E+02  0.51100000000E-03 0.  1.
        -12    1    3    3    0    0  0.19977627549E+01 -0.13633706657E+01  0.12430520381E+01  0.27193774961E+01  0.00000000000E+00 0.  1.
</event>
<event>
 7    1  0.1322363E-009  0.4778727E+02  0.7816164E-02  0.1312668E+00
        -11   -1    0    0    0    0  0.00000000000E+00  0.00000000000E+00  0.45593999997E+02  0.45594000000E+02  0.51100000000E-03 0. -1.
         11   -1    0    0    0    0 -0.00000000000E+00 -0.00000000000E+00 -0.45593999997E+02  0.45594000000E+02  0.51100000000E-03 0.  1.
    9900012    2    1    2    0    0 -0.32585115213E+02  0.28257067510E+02  0.48344192237E+01  0.47787271816E+02  0.20000003516E+02 0.  0.
        -12    1    1    2    0    0  0.32585115213E+02 -0.28257067510E+02 -0.48344192237E+01  0.43400728184E+02  0.00000000000E+00 0.  1.
         11    1    3    3    0    0 -0.10810898753E+02  0.10531497759E+02 -0.15849455885E+01  0.15175639350E+02  0.51100000000E-03 0. -1.
        -11    1    3    3    0    0 -0.17890743121E+02  0.96590892314E+01  0.10372971994E+02  0.22824882091E+02  0.51100000000E-03 0.  1.
        -12    1    3    3    0    0 -0.38834733387E+01  0.80664805200E+01 -0.39536071821E+01  0.97867503750E+01  0.00000000000E+00 0.  1.
</event>
<event>
 7    1  0.1322363E-009  0.4778727E+02  0.7816164E-02  0.1312668E+00
        -11   -1    0    0    0    0  0.00000000000E+00  0.00000000000E+00  0.45593999997E+02  0.45594000000E+02  0.51100000000E-03 0. -1.
         11   -1    0    0    0    0 -0.00000000000E+00 -0.00000000000E+00 -0.45593999997E+02  0.45594000000E+02  0.51100000000E-03 0.  1.
    9900012    2    1    2    0    0  0.13834204480E+01 -0.42835249550E+02 -0.68447684716E+01  0.47787270610E+02  0.19999998020E+02 0.  0.
        -12    1    1    2    0    0 -0.13834204480E+01  0.42835249550E+02  0.68447684716E+01  0.43400729390E+02  0.00000000000E+00 0.  1.
         11    1    3    3    0    0 -0.11739535854E+01 -0.59566200497E+01  0.44154104329E+01  0.75070193145E+01  0.51100000000E-03 0. -1.
        -11    1    3    3    0    0  0.23726023397E+01 -0.44468870258E+01 -0.52832578447E+01  0.73018394804E+01  0.51100000000E-03 0.  1.
         12    1    3    3    0    0  0.18477169366E+00 -0.32431742474E+02 -0.59769210598E+01  0.32978411815E+02  0.00000000000E+00 0. -1.
</event>
<event>
 7    1  0.1322363E-009  0.4778727E+02  0.7816164E-02  0.1312668E+00
        -11   -1    0    0    0    0  0.00000000000E+00  0.00000000000E+00  0.45593999997E+02  0.45594000000E+02  0.51100000000E-03 0.  1.
         11   -1    0    0    0    0 -0.00000000000E+00 -0.00000000000E+00 -0.45593999997E+02  0.45594000000E+02  0.51100000000E-03 0. -1.
    9900012    2    1    2    0    0 -0.34452896464E+02 -0.12934020551E+02 -0.23007222326E+02  0.47787271417E+02  0.20000001698E+02 0.  0.
        -12    1    1    2    0    0  0.34452896464E+02  0.12934020551E+02  0.23007222326E+02  0.43400728583E+02  0.00000000000E+00 0.  1.
         11    1    3    3    0    0 -0.63360171148E+01 -0.63829584576E+01  0.17249231413E+01  0.91576542660E+01  0.51100000000E-03 0.  1.
        -11    1    3    3    0    0 -0.14205016104E+02 -0.75244884633E+00 -0.89478466044E+01  0.16805136741E+02  0.51100000000E-03 0. -1.
        -12    1    3    3    0    0 -0.13911863246E+02 -0.57986132472E+01 -0.15784298863E+02  0.21824480410E+02  0.00000000000E+00 0.  1.
</event>
<event>
 7    1  0.1322363E-009  0.4778727E+02  0.7816164E-02  0.1312668E+00
        -11   -1    0    0    0    0  0.00000000000E+00  0.00000000000E+00  0.45593999997E+02  0.45594000000E+02  0.51100000000E-03 0. -1.
         11   -1    0    0    0    0 -0.00000000000E+00 -0.00000000000E+00 -0.45593999997E+02  0.45594000000E+02  0.51100000000E-03 0.  1.
    9900012    2    1    2    0    0  0.30737458146E+02  0.20504425446E+02  0.22768414969E+02  0.47787268251E+02  0.19999987263E+02 0.  0.
        -12    1    1    2    0    0 -0.30737458146E+02 -0.20504425446E+02 -0.22768414969E+02  0.43400731749E+02  0.00000000000E+00 0.  1.
         11    1    3    3    0    0  0.16443101467E+02  0.72926119734E+01  0.66194288006E+01  0.19167018891E+02  0.51100000000E-03 0. -1.
        -11    1    3    3    0    0  0.10622811926E+02  0.14310888616E+01  0.44155168351E+01  0.11592624281E+02  0.51100000000E-03 0.  1.
         12    1    3    3    0    0  0.36715447531E+01  0.11780724611E+02  0.11733469333E+02  0.17027625079E+02  0.00000000000E+00 0. -1.
</event>
<event>
 7    1  0.1322363E-009  0.4778728E+02  0.7816164E-02  0.1312668E+00
        -11   -1    0    0    0    0  0.00000000000E+00  0.00000000000E+00  0.45593999997E+02  0.45594000000E+02  0.51100000000E-03 0. -1.
         11   -1    0    0    0    0 -0.00000000000E+00 -0.00000000000E+00 -0.45593999997E+02  0.45594000000E+02  0.51100000000E-03 0.  1.
    9900012    2    1    2    0    0  0.17217151504E+02  0.36851488995E+02  0.15138024524E+02  0.47787281878E+02  0.20000049392E+02 0.  0.
        -12    1    1    2    0    0 -0.17217151504E+02 -0.36851488995E+02 -0.15138024524E+02  0.43400718122E+02  0.00000000000E+00 0.  1.
         11    1    3    3    0    0  0.39629051908E+01  0.12363805893E+02 -0.27997330377E+00  0.12986404392E+02  0.51100000000E-03 0. -1.
        -11    1    3    3    0    0  0.31427146126E+01  0.64386874394E+01  0.11790742297E+02  0.13796918325E+02  0.51100000000E-03 0.  1.
         12    1    3    3    0    0  0.10111531701E+02  0.18048995662E+02  0.36272555306E+01  0.21003959161E+02  0.00000000000E+00 0. -1.
</event>
<event>
 7    1  0.1322363E-009  0.4778728E+02  0.7816164E-02  0.1312668E+00
        -11   -1    0    0    0    0  0.00000000000E+00  0.00000000000E+00  0.45593999997E+02  0.45594000000E+02  0.51100000000E-03 0.  1.
         11   -1    0    0    0    0 -0.00000000000E+00 -0.00000000000E+00 -0.45593999997E+02  0.45594000000E+02  0.51100000000E-03 0. -1.
    9900012    2    1    2    0    0 -0.24118843601E+02 -0.35325694935E+02 -0.73484350146E+01  0.47787276084E+02  0.20000022977E+02 0.  0.
        -12    1    1    2    0    0  0.24118843601E+02  0.35325694935E+02  0.73484350146E+01  0.43400723916E+02  0.00000000000E+00 0.  1.
         11    1    3    3    0    0  0.13157449187E+01 -0.57326603011E+01  0.14516984942E+01  0.60582181868E+01  0.51100000000E-03 0.  1.
        -11    1    3    3    0    0 -0.93004865822E+00 -0.81251370482E+01 -0.10863900063E+01  0.82500355191E+01  0.51100000000E-03 0. -1.
        -12    1    3    3    0    0 -0.24504539862E+02 -0.21467897585E+02 -0.77137435025E+01  0.33479022378E+02  0.00000000000E+00 0.  1.
</event>
<event>
 7    1  0.1322363E-009  0.4778726E+02  0.7816164E-02  0.1312668E+00
        -11   -1    0    0    0    0  0.00000000000E+00  0.00000000000E+00  0.45593999997E+02  0.45594000000E+02  0.51100000000E-03 0. -1.
         11   -1    0    0    0    0 -0.00000000000E+00 -0.00000000000E+00 -0.45593999997E+02  0.45594000000E+02  0.51100000000E-03 0.  1.
    9900012    2    1    2    0    0  0.19441334290E+02 -0.20999753849E+02  0.32629266042E+02  0.47787261030E+02  0.19999954339E+02 0.  0.
        -12    1    1    2    0    0 -0.19441334290E+02  0.20999753849E+02 -0.32629266042E+02  0.43400738970E+02  0.00000000000E+00 0.  1.
         11    1    3    3    0    0  0.86722104218E+00 -0.97287052749E+01  0.91638161416E+01  0.13393106630E+02  0.51100000000E-03 0. -1.
        -11    1    3    3    0    0  0.14527628636E+02 -0.82818106254E+01  0.88141093787E+01  0.18903145384E+02  0.51100000000E-03 0.  1.
         12    1    3    3    0    0  0.40464846121E+01 -0.29892379489E+01  0.14651340522E+02  0.15491009016E+02  0.00000000000E+00 0. -1.
</event>
<event>
 7    1  0.1322363E-009  0.4778727E+02  0.7816164E-02  0.1312668E+00
        -11   -1    0    0    0    0  0.00000000000E+00  0.00000000000E+00  0.45593999997E+02  0.45594000000E+02  0.51100000000E-03 0. -1.
         11   -1    0    0    0    0 -0.00000000000E+00 -0.00000000000E+00 -0.45593999997E+02  0.45594000000E+02  0.51100000000E-03 0.  1.
    9900012    2    1    2    0    0  0.34818507313E+02 -0.21756092384E+02  0.14070071914E+02  0.47787274994E+02  0.20000018010E+02 0.  0.
        -12    1    1    2    0    0 -0.34818507313E+02  0.21756092384E+02 -0.14070071914E+02  0.43400725006E+02  0.00000000000E+00 0.  1.
         11    1    3    3    0    0  0.19910492599E+02 -0.19037242054E+02  0.50157929625E+01  0.28000044283E+02  0.51100000000E-03 0. -1.
        -11    1    3    3    0    0  0.47802064866E+01  0.66014666778E+00 -0.12120798814E+01  0.49754703876E+01  0.51100000000E-03 0.  1.
         12    1    3    3    0    0  0.10127808228E+02 -0.33789969982E+01  0.10266358833E+02  0.14811760324E+02  0.00000000000E+00 0. -1.
</event>
<event>
 7    1  0.1322363E-009  0.4778727E+02  0.7816164E-02  0.1312668E+00
        -11   -1    0    0    0    0  0.00000000000E+00  0.00000000000E+00  0.45593999997E+02  0.45594000000E+02  0.51100000000E-03 0.  1.
         11   -1    0    0    0    0 -0.00000000000E+00 -0.00000000000E+00 -0.45593999997E+02  0.45594000000E+02  0.51100000000E-03 0. -1.
    9900012    2    1    2    0    0  0.26199043557E+02  0.13810965272E+02 -0.31725243628E+02  0.47787265810E+02  0.19999976133E+02 0.  0.
        -12    1    1    2    0    0 -0.26199043557E+02 -0.13810965272E+02  0.31725243628E+02  0.43400734190E+02  0.00000000000E+00 0.  1.
         11    1    3    3    0    0 -0.10548265787E+01  0.36397109163E+01 -0.98700403792E+01  0.10572504529E+02  0.51100000000E-03 0. -1.
        -11    1    3    3    0    0  0.72072103317E+01  0.17465898024E+01 -0.17948311348E+01  0.76299328809E+01  0.51100000000E-03 0.  1.
         12    1    3    3    0    0  0.20046659804E+02  0.84246645530E+01 -0.20060372114E+02  0.29584828400E+02  0.00000000000E+00 0. -1.
</event>
<event>
 7    1  0.1322363E-009  0.4778727E+02  0.7816164E-02  0.1312668E+00
        -11   -1    0    0    0    0  0.00000000000E+00  0.00000000000E+00  0.45593999997E+02  0.45594000000E+02  0.51100000000E-03 0.  1.
         11   -1    0    0    0    0 -0.00000000000E+00 -0.00000000000E+00 -0.45593999997E+02  0.45594000000E+02  0.51100000000E-03 0. -1.
    9900012    2    1    2    0    0 -0.30083438140E+02  0.93430074609E+01 -0.29854953963E+02  0.47787270572E+02  0.19999997846E+02 0.  0.
        -12    1    1    2    0    0  0.30083438140E+02 -0.93430074609E+01  0.29854953963E+02  0.43400729428E+02  0.00000000000E+00 0.  1.
         11    1    3    3    0    0 -0.34624962629E+01 -0.35980788473E+01 -0.11415487742E+01  0.51223222885E+01  0.51100000000E-03 0. -1.
        -11    1    3    3    0    0 -0.48910093450E+01  0.73434280726E+01 -0.55971838245E+01  0.10448749939E+02  0.51100000000E-03 0.  1.
         12    1    3    3    0    0 -0.21729932532E+02  0.55976582357E+01 -0.23116221365E+02  0.32216198344E+02  0.00000000000E+00 0. -1.
</event>
<event>
 7    1  0.1322363E-009  0.4778727E+02  0.7816164E-02  0.1312668E+00
        -11   -1    0    0    0    0  0.00000000000E+00  0.00000000000E+00  0.45593999997E+02  0.45594000000E+02  0.51100000000E-03 0.  1.
         11   -1    0    0    0    0 -0.00000000000E+00 -0.00000000000E+00 -0.45593999997E+02  0.45594000000E+02  0.51100000000E-03 0. -1.
    9900012    2    1    2    0    0 -0.29322847845E+02 -0.16693408406E+02 -0.27296960903E+02  0.47787270001E+02  0.19999995241E+02 0.  0.
        -12    1    1    2    0    0  0.29322847845E+02  0.16693408406E+02  0.27296960903E+02  0.43400729999E+02  0.00000000000E+00 0.  1.
         11    1    3    3    0    0 -0.12242783623E+02 -0.70170895376E+01 -0.19898510483E+02  0.24394179964E+02  0.51100000000E-03 0. -1.
        -11    1    3    3    0    0 -0.50764688942E+01 -0.87900471816E+01 -0.36426346377E+01  0.10784444967E+02  0.51100000000E-03 0.  1.
         12    1    3    3    0    0 -0.12003595328E+02 -0.88627168719E+00 -0.37558157819E+01  0.12608645069E+02  0.00000000000E+00 0. -1.
</event>
<event>
 7    1  0.1322363E-009  0.4778727E+02  0.7816164E-02  0.1312668E+00
        -11   -1    0    0    0    0  0.00000000000E+00  0.00000000000E+00  0.45593999997E+02  0.45594000000E+02  0.51100000000E-03 0.  1.
         11   -1    0    0    0    0 -0.00000000000E+00 -0.00000000000E+00 -0.45593999997E+02  0.45594000000E+02  0.51100000000E-03 0. -1.
    9900012    2    1    2    0    0 -0.19309879978E+02 -0.21842792326E+02 -0.32150335297E+02  0.47787273036E+02  0.20000009078E+02 0.  0.
        -12    1    1    2    0    0  0.19309879978E+02  0.21842792326E+02  0.32150335297E+02  0.43400726964E+02  0.00000000000E+00 0.  1.
         11    1    3    3    0    0 -0.11522002590E+02 -0.23339255949E+02 -0.23587477754E+02  0.35126151497E+02  0.51100000000E-03 0. -1.
        -11    1    3    3    0    0 -0.82484535646E+00  0.21775026810E+01 -0.22415356714E+01  0.32320845000E+01  0.51100000000E-03 0.  1.
        -12    1    3    3    0    0 -0.69630320315E+01 -0.68103905755E+00 -0.63213218714E+01  0.94290370384E+01  0.00000000000E+00 0.  1.
</event>
<event>
 7    1  0.1322363E-009  0.4778726E+02  0.7816164E-02  0.1312668E+00
        -11   -1    0    0    0    0  0.00000000000E+00  0.00000000000E+00  0.45593999997E+02  0.45594000000E+02  0.51100000000E-03 0. -1.
         11   -1    0    0    0    0 -0.00000000000E+00 -0.00000000000E+00 -0.45593999997E+02  0.45594000000E+02  0.51100000000E-03 0.  1.
    9900012    2    1    2    0    0  0.12941365670E+02  0.41389773099E+02  0.17412407541E+01  0.47787260583E+02  0.19999952302E+02 0.  0.
        -12    1    1    2    0    0 -0.12941365670E+02 -0.41389773099E+02 -0.17412407541E+01  0.43400739417E+02  0.00000000000E+00 0.  1.
         11    1    3    3    0    0  0.12355312192E+02  0.36658293635E+02  0.76783833460E+01  0.39439089779E+02  0.51100000000E-03 0. -1.
        -11    1    3    3    0    0  0.19269585397E+01  0.37057325926E+01 -0.43609668504E+01  0.60385143365E+01  0.51100000000E-03 0.  1.
         12    1    3    3    0    0 -0.13409050613E+01  0.10257468717E+01 -0.15761757415E+01  0.23096564672E+01  0.00000000000E+00 0. -1.
</event>
<event>
 7    1  0.1322363E-009  0.4778727E+02  0.7816164E-02  0.1312668E+00
        -11   -1    0    0    0    0  0.00000000000E+00  0.00000000000E+00  0.45593999997E+02  0.45594000000E+02  0.51100000000E-03 0. -1.
         11   -1    0    0    0    0 -0.00000000000E+00 -0.00000000000E+00 -0.45593999997E+02  0.45594000000E+02  0.51100000000E-03 0.  1.
    9900012    2    1    2    0    0 -0.40640925719E+02  0.10945255119E+02  0.10589612275E+02  0.47787270271E+02  0.19999996471E+02 0.  0.
        -12    1    1    2    0    0  0.40640925719E+02 -0.10945255119E+02 -0.10589612275E+02  0.43400729729E+02  0.00000000000E+00 0.  1.
         11    1    3    3    0    0 -0.15831861508E+02  0.80768935940E+01  0.87196659983E+01  0.19796884207E+02  0.51100000000E-03 0. -1.
        -11    1    3    3    0    0 -0.19583407638E+02  0.74448375236E+01  0.19711535548E+01  0.21043310269E+02  0.51100000000E-03 0.  1.
        -12    1    3    3    0    0 -0.52256565727E+01 -0.45764759983E+01 -0.10120727772E+00  0.69470757944E+01  0.00000000000E+00 0.  1.
</event>
<event>
 7    1  0.1322363E-009  0.4778727E+02  0.7816164E-02  0.1312668E+00
        -11   -1    0    0    0    0  0.00000000000E+00  0.00000000000E+00  0.45593999997E+02  0.45594000000E+02  0.51100000000E-03 0.  1.
         11   -1    0    0    0    0 -0.00000000000E+00 -0.00000000000E+00 -0.45593999997E+02  0.45594000000E+02  0.51100000000E-03 0. -1.
    9900012    2    1    2    0    0 -0.91921308515E+01 -0.22825231682E+01 -0.42354671117E+02  0.47787270202E+02  0.19999996158E+02 0.  0.
        -12    1    1    2    0    0  0.91921308515E+01  0.22825231682E+01  0.42354671117E+02  0.43400729798E+02  0.00000000000E+00 0.  1.
         11    1    3    3    0    0 -0.74203613080E+01 -0.98479124462E+01 -0.28199795205E+02  0.30777777557E+02  0.51100000000E-03 0. -1.
        -11    1    3    3    0    0  0.16599965466E+01  0.13703538034E+01 -0.19803118661E+01  0.29249091318E+01  0.51100000000E-03 0.  1.
         12    1    3    3    0    0 -0.34317660901E+01  0.61950354747E+01 -0.12174564046E+02  0.14084583513E+02  0.00000000000E+00 0. -1.
</event>
<event>
 7    1  0.1322363E-009  0.4778726E+02  0.7816164E-02  0.1312668E+00
        -11   -1    0    0    0    0  0.00000000000E+00  0.00000000000E+00  0.45593999997E+02  0.45594000000E+02  0.51100000000E-03 0.  1.
         11   -1    0    0    0    0 -0.00000000000E+00 -0.00000000000E+00 -0.45593999997E+02  0.45594000000E+02  0.51100000000E-03 0. -1.
    9900012    2    1    2    0    0  0.18279992160E+02 -0.17517764266E+01 -0.39324262332E+02  0.47787257588E+02  0.19999938645E+02 0.  0.
        -12    1    1    2    0    0 -0.18279992160E+02  0.17517764266E+01  0.39324262332E+02  0.43400742412E+02  0.00000000000E+00 0.  1.
         11    1    3    3    0    0  0.12985527396E+02 -0.38167327480E+01 -0.26238060645E+02  0.29523333099E+02  0.51100000000E-03 0. -1.
        -11    1    3    3    0    0  0.87938070939E+01  0.24852281043E+01 -0.10313343154E+02  0.13779421222E+02  0.51100000000E-03 0.  1.
         12    1    3    3    0    0 -0.34993423290E+01 -0.42027178291E+00 -0.27728585323E+01  0.44845032665E+01  0.00000000000E+00 0. -1.
</event>
<event>
 7    1  0.1322363E-009  0.4778726E+02  0.7816164E-02  0.1312668E+00
        -11   -1    0    0    0    0  0.00000000000E+00  0.00000000000E+00  0.45593999997E+02  0.45594000000E+02  0.51100000000E-03 0. -1.
         11   -1    0    0    0    0 -0.00000000000E+00 -0.00000000000E+00 -0.45593999997E+02  0.45594000000E+02  0.51100000000E-03 0.  1.
    9900012    2    1    2    0    0  0.12269128995E+01  0.42995459550E+02  0.57887621930E+01  0.47787255480E+02  0.19999929034E+02 0.  0.
        -12    1    1    2    0    0 -0.12269128995E+01 -0.42995459550E+02 -0.57887621930E+01  0.43400744520E+02  0.00000000000E+00 0.  1.
         11    1    3    3    0    0  0.12014685063E+01  0.42445285873E+01 -0.83709719831E+00  0.44900202093E+01  0.51100000000E-03 0. -1.
        -11    1    3    3    0    0  0.84943303020E+01  0.13639675773E+02  0.46256079428E+01  0.16720964433E+02  0.51100000000E-03 0.  1.
         12    1    3    3    0    0 -0.84688859088E+01  0.25111255190E+02  0.20002514485E+01  0.26576270837E+02  0.00000000000E+00 0. -1.
</event>
<event>
 7    1  0.1322363E-009  0.4778728E+02  0.7816164E-02  0.1312668E+00
        -11   -1    0    0    0    0  0.00000000000E+00  0.00000000000E+00  0.45593999997E+02  0.45594000000E+02  0.51100000000E-03 0. -1.
         11   -1    0    0    0    0 -0.00000000000E+00 -0.00000000000E+00 -0.45593999997E+02  0.45594000000E+02  0.51100000000E-03 0.  1.
    9900012    2    1    2    0    0  0.19134649533E+02 -0.35267035269E+02  0.16544611059E+02  0.47787277143E+02  0.20000027805E+02 0.  0.
        -12    1    1    2    0    0 -0.19134649533E+02  0.35267035269E+02 -0.16544611059E+02  0.43400722857E+02  0.00000000000E+00 0.  1.
         11    1    3    3    0    0  0.60363571108E+01 -0.20034030703E+01  0.80590210794E+01  0.10266404047E+02  0.51100000000E-03 0. -1.
        -11    1    3    3    0    0  0.39922742530E+01 -0.97797536179E+01 -0.99091541911E+00  0.10609606410E+02  0.51100000000E-03 0.  1.
         12    1    3    3    0    0  0.91060181692E+01 -0.23483878581E+02  0.94765053989E+01  0.26911266686E+02  0.00000000000E+00 0. -1.
</event>
<event>
 7    1  0.1322363E-009  0.4778727E+02  0.7816164E-02  0.1312668E+00
        -11   -1    0    0    0    0  0.00000000000E+00  0.00000000000E+00  0.45593999997E+02  0.45594000000E+02  0.51100000000E-03 0.  1.
         11   -1    0    0    0    0 -0.00000000000E+00 -0.00000000000E+00 -0.45593999997E+02  0.45594000000E+02  0.51100000000E-03 0. -1.
    9900012    2    1    2    0    0 -0.21413688842E+02 -0.22215222551E+02 -0.30521485210E+02  0.47787271409E+02  0.20000001662E+02 0.  0.
        -12    1    1    2    0    0  0.21413688842E+02  0.22215222551E+02  0.30521485210E+02  0.43400728591E+02  0.00000000000E+00 0.  1.
         11    1    3    3    0    0 -0.12620806639E+02 -0.12627041249E+02 -0.84535871254E+01  0.19753229267E+02  0.51100000000E-03 0. -1.
        -11    1    3    3    0    0  0.10303709508E+01 -0.62939417802E+01 -0.51581436293E+01  0.82025492007E+01  0.51100000000E-03 0.  1.
        -12    1    3    3    0    0 -0.98232531536E+01 -0.32942395221E+01 -0.16909754455E+02  0.19831492941E+02  0.00000000000E+00 0.  1.
</event>
<event>
 7    1  0.1322363E-009  0.4778728E+02  0.7816164E-02  0.1312668E+00
        -11   -1    0    0    0    0  0.00000000000E+00  0.00000000000E+00  0.45593999997E+02  0.45594000000E+02  0.51100000000E-03 0.  1.
         11   -1    0    0    0    0 -0.00000000000E+00 -0.00000000000E+00 -0.45593999997E+02  0.45594000000E+02  0.51100000000E-03 0. -1.
    9900012    2    1    2    0    0 -0.12228920915E+02  0.15494199536E+02 -0.38652372651E+02  0.47787278375E+02  0.20000033424E+02 0.  0.
        -12    1    1    2    0    0  0.12228920915E+02 -0.15494199536E+02  0.38652372651E+02  0.43400721625E+02  0.00000000000E+00 0.  1.
         11    1    3    3    0    0 -0.31599829838E+01  0.80866422476E+01 -0.98478425330E+01  0.13128567253E+02  0.51100000000E-03 0. -1.
        -11    1    3    3    0    0  0.25385163963E+01 -0.21729112127E+01 -0.10172646393E+02  0.10707396674E+02  0.51100000000E-03 0.  1.
         12    1    3    3    0    0 -0.11607454328E+02  0.95804685008E+01 -0.18631883725E+02  0.23951314448E+02  0.00000000000E+00 0. -1.
</event>
<event>
 7    1  0.1322363E-009  0.4778731E+02  0.7816164E-02  0.1312668E+00
        -11   -1    0    0    0    0  0.00000000000E+00  0.00000000000E+00  0.45593999997E+02  0.45594000000E+02  0.51100000000E-03 0. -1.
         11   -1    0    0    0    0 -0.00000000000E+00 -0.00000000000E+00 -0.45593999997E+02  0.45594000000E+02  0.51100000000E-03 0.  1.
    9900012    2    1    2    0    0 -0.26151264454E+02  0.54708637480E+01  0.34202349480E+02  0.47787312302E+02  0.20000188109E+02 0.  0.
        -12    1    1    2    0    0  0.26151264454E+02 -0.54708637480E+01 -0.34202349480E+02  0.43400687698E+02  0.00000000000E+00 0.  1.
         11    1    3    3    0    0 -0.59248263569E+01 -0.67941987355E+01  0.12371848668E+02  0.15307754360E+02  0.51100000000E-03 0.  1.
        -11    1    3    3    0    0 -0.42494132396E+01  0.47375999840E+01  0.51617376868E+01  0.81942603508E+01  0.51100000000E-03 0. -1.
        -12    1    3    3    0    0 -0.15977024858E+02  0.75274624996E+01  0.16668763126E+02  0.24285297592E+02  0.00000000000E+00 0.  1.
</event>
<event>
 7    1  0.1322363E-009  0.4778727E+02  0.7816164E-02  0.1312668E+00
        -11   -1    0    0    0    0  0.00000000000E+00  0.00000000000E+00  0.45593999997E+02  0.45594000000E+02  0.51100000000E-03 0.  1.
         11   -1    0    0    0    0 -0.00000000000E+00 -0.00000000000E+00 -0.45593999997E+02  0.45594000000E+02  0.51100000000E-03 0. -1.
    9900012    2    1    2    0    0  0.96985027509E+00 -0.30439377164E+02 -0.30921299288E+02  0.47787273723E+02  0.20000012212E+02 0.  0.
        -12    1    1    2    0    0 -0.96985027509E+00  0.30439377164E+02  0.30921299288E+02  0.43400726277E+02  0.00000000000E+00 0.  1.
         11    1    3    3    0    0  0.11099064924E+01 -0.79340204856E+01 -0.13510247438E+02  0.15706920754E+02  0.51100000000E-03 0. -1.
        -11    1    3    3    0    0  0.39997011216E+01 -0.13915246752E+02 -0.29779525845E+01  0.14781742221E+02  0.51100000000E-03 0.  1.
        -12    1    3    3    0    0 -0.41397573389E+01 -0.85901099265E+01 -0.14433099266E+02  0.17298610747E+02  0.00000000000E+00 0.  1.
</event>
<event>
 7    1  0.1322363E-009  0.4778727E+02  0.7816164E-02  0.1312668E+00
        -11   -1    0    0    0    0  0.00000000000E+00  0.00000000000E+00  0.45593999997E+02  0.45594000000E+02  0.51100000000E-03 0.  1.
         11   -1    0    0    0    0 -0.00000000000E+00 -0.00000000000E+00 -0.45593999997E+02  0.45594000000E+02  0.51100000000E-03 0. -1.
    9900012    2    1    2    0    0  0.17383722942E+02 -0.27935584474E+02 -0.28302516008E+02  0.47787272868E+02  0.20000008313E+02 0.  0.
        -12    1    1    2    0    0 -0.17383722942E+02  0.27935584474E+02  0.28302516008E+02  0.43400727132E+02  0.00000000000E+00 0.  1.
         11    1    3    3    0    0  0.82876892030E+01 -0.54054850224E+01 -0.48241736347E+01  0.11008074862E+02  0.51100000000E-03 0.  1.
        -11    1    3    3    0    0 -0.16926989324E+01 -0.14363683608E+02 -0.14861204087E+02  0.20737309943E+02  0.51100000000E-03 0. -1.
         12    1    3    3    0    0  0.10788732671E+02 -0.81664158434E+01 -0.86171382863E+01  0.16041888063E+02  0.00000000000E+00 0. -1.
</event>
<event>
 7    1  0.1322363E-009  0.4778727E+02  0.7816164E-02  0.1312668E+00
        -11   -1    0    0    0    0  0.00000000000E+00  0.00000000000E+00  0.45593999997E+02  0.45594000000E+02  0.51100000000E-03 0. -1.
         11   -1    0    0    0    0 -0.00000000000E+00 -0.00000000000E+00 -0.45593999997E+02  0.45594000000E+02  0.51100000000E-03 0.  1.
    9900012    2    1    2    0    0  0.29970974211E+02 -0.31365255377E+02  0.12588209137E+01  0.47787272239E+02  0.20000005448E+02 0.  0.
        -12    1    1    2    0    0 -0.29970974211E+02  0.31365255377E+02 -0.12588209137E+01  0.43400727761E+02  0.00000000000E+00 0.  1.
         11    1    3    3    0    0  0.16984802250E+02 -0.18985272158E+02  0.23776019612E+00  0.25475097576E+02  0.51100000000E-03 0. -1.
        -11    1    3    3    0    0  0.26462216033E+01 -0.83674696425E+01  0.54931133501E+01  0.10353324661E+02  0.51100000000E-03 0.  1.
        -12    1    3    3    0    0  0.10339950359E+02 -0.40125135772E+01 -0.44720526325E+01  0.11958850002E+02  0.00000000000E+00 0.  1.
</event>
<event>
 7    1  0.1322363E-009  0.4778727E+02  0.7816164E-02  0.1312668E+00
        -11   -1    0    0    0    0  0.00000000000E+00  0.00000000000E+00  0.45593999997E+02  0.45594000000E+02  0.51100000000E-03 0.  1.
         11   -1    0    0    0    0 -0.00000000000E+00 -0.00000000000E+00 -0.45593999997E+02  0.45594000000E+02  0.51100000000E-03 0. -1.
    9900012    2    1    2    0    0  0.64755692435E+01  0.19416827917E+02 -0.38271102295E+02  0.47787268736E+02  0.19999989474E+02 0.  0.
        -12    1    1    2    0    0 -0.64755692435E+01 -0.19416827917E+02  0.38271102295E+02  0.43400731264E+02  0.00000000000E+00 0.  1.
         11    1    3    3    0    0 -0.89178450545E+00  0.31437990961E+01 -0.16893754368E+02  0.17206908185E+02  0.51100000000E-03 0. -1.
        -11    1    3    3    0    0 -0.15617858867E+01  0.94823181619E+01 -0.52955828587E+01  0.10972544416E+02  0.51100000000E-03 0.  1.
         12    1    3    3    0    0  0.89291396356E+01  0.67907106591E+01 -0.16081765068E+02  0.19607816135E+02  0.00000000000E+00 0. -1.
</event>
<event>
 7    1  0.1322363E-009  0.4778727E+02  0.7816164E-02  0.1312668E+00
        -11   -1    0    0    0    0  0.00000000000E+00  0.00000000000E+00  0.45593999997E+02  0.45594000000E+02  0.51100000000E-03 0.  1.
         11   -1    0    0    0    0 -0.00000000000E+00 -0.00000000000E+00 -0.45593999997E+02  0.45594000000E+02  0.51100000000E-03 0. -1.
    9900012    2    1    2    0    0 -0.19249385952E+02  0.35300397738E+02 -0.16339104344E+02  0.47787271080E+02  0.20000000164E+02 0.  0.
        -12    1    1    2    0    0  0.19249385952E+02 -0.35300397738E+02  0.16339104344E+02  0.43400728920E+02  0.00000000000E+00 0.  1.
         11    1    3    3    0    0  0.79170285161E+00  0.21283909807E+01  0.13254057029E+01  0.26293615405E+01  0.51100000000E-03 0. -1.
        -11    1    3    3    0    0 -0.28118092029E+01  0.42010968850E+01  0.27460404970E+01  0.57529318354E+01  0.51100000000E-03 0.  1.
         12    1    3    3    0    0 -0.17229279600E+02  0.28970909872E+02 -0.20410550544E+02  0.39404977705E+02  0.00000000000E+00 0. -1.
</event>
<event>
 7    1  0.1322363E-009  0.4778727E+02  0.7816164E-02  0.1312668E+00
        -11   -1    0    0    0    0  0.00000000000E+00  0.00000000000E+00  0.45593999997E+02  0.45594000000E+02  0.51100000000E-03 0. -1.
         11   -1    0    0    0    0 -0.00000000000E+00 -0.00000000000E+00 -0.45593999997E+02  0.45594000000E+02  0.51100000000E-03 0.  1.
    9900012    2    1    2    0    0 -0.37270917152E+02 -0.20765653100E+02 -0.79554732816E+01  0.47787272251E+02  0.20000005501E+02 0.  0.
        -12    1    1    2    0    0  0.37270917152E+02  0.20765653100E+02  0.79554732816E+01  0.43400727749E+02  0.00000000000E+00 0.  1.
         11    1    3    3    0    0 -0.23686553322E+02 -0.49306040211E+01 -0.29983892082E+01  0.24379376579E+02  0.51100000000E-03 0.  1.
        -11    1    3    3    0    0 -0.14535533389E+02 -0.12395468771E+02 -0.29982991818E+01  0.19336989817E+02  0.51100000000E-03 0. -1.
         12    1    3    3    0    0  0.95116955893E+00 -0.34395803079E+01 -0.19587848915E+01  0.40709058544E+01  0.00000000000E+00 0. -1.
</event>
<event>
 7    1  0.1322363E-009  0.4778727E+02  0.7816164E-02  0.1312668E+00
        -11   -1    0    0    0    0  0.00000000000E+00  0.00000000000E+00  0.45593999997E+02  0.45594000000E+02  0.51100000000E-03 0.  1.
         11   -1    0    0    0    0 -0.00000000000E+00 -0.00000000000E+00 -0.45593999997E+02  0.45594000000E+02  0.51100000000E-03 0. -1.
    9900012    2    1    2    0    0  0.74052691951E+01  0.30096511597E+02 -0.30380676413E+02  0.47787268192E+02  0.19999986994E+02 0.  0.
        -12    1    1    2    0    0 -0.74052691951E+01 -0.30096511597E+02  0.30380676413E+02  0.43400731808E+02  0.00000000000E+00 0.  1.
         11    1    3    3    0    0  0.13523384612E+02  0.16364679585E+02 -0.19826865258E+02  0.29048050804E+02  0.51100000000E-03 0.  1.
        -11    1    3    3    0    0 -0.18871981324E+01  0.24558924584E+01 -0.69312944853E+00  0.31738546361E+01  0.51100000000E-03 0. -1.
        -12    1    3    3    0    0 -0.42309172843E+01  0.11275939553E+02 -0.98606817064E+01  0.15565362752E+02  0.00000000000E+00 0.  1.
</event>
<event>
 7    1  0.1322363E-009  0.4778727E+02  0.7816164E-02  0.1312668E+00
        -11   -1    0    0    0    0  0.00000000000E+00  0.00000000000E+00  0.45593999997E+02  0.45594000000E+02  0.51100000000E-03 0.  1.
         11   -1    0    0    0    0 -0.00000000000E+00 -0.00000000000E+00 -0.45593999997E+02  0.45594000000E+02  0.51100000000E-03 0. -1.
    9900012    2    1    2    0    0 -0.39529876934E+02 -0.16718599257E+02 -0.64420939027E+01  0.47787270682E+02  0.19999998345E+02 0.  0.
        -12    1    1    2    0    0  0.39529876934E+02  0.16718599257E+02  0.64420939027E+01  0.43400729318E+02  0.00000000000E+00 0.  1.
         11    1    3    3    0    0 -0.12242258081E+02 -0.34353270416E+01  0.17489850467E+01  0.12834847243E+02  0.51100000000E-03 0. -1.
        -11    1    3    3    0    0 -0.21031593626E+02 -0.55274643844E+01  0.46863055870E+00  0.21750871427E+02  0.51100000000E-03 0.  1.
         12    1    3    3    0    0 -0.62560252276E+01 -0.77558078307E+01 -0.86597095081E+01  0.13201552012E+02  0.00000000000E+00 0. -1.
</event>
<event>
 7    1  0.1322363E-009  0.4778727E+02  0.7816164E-02  0.1312668E+00
        -11   -1    0    0    0    0  0.00000000000E+00  0.00000000000E+00  0.45593999997E+02  0.45594000000E+02  0.51100000000E-03 0. -1.
         11   -1    0    0    0    0 -0.00000000000E+00 -0.00000000000E+00 -0.45593999997E+02  0.45594000000E+02  0.51100000000E-03 0.  1.
    9900012    2    1    2    0    0  0.16553428872E+02 -0.27136132464E+02  0.29550597384E+02  0.47787268459E+02  0.19999988212E+02 0.  0.
        -12    1    1    2    0    0 -0.16553428872E+02  0.27136132464E+02 -0.29550597384E+02  0.43400731541E+02  0.00000000000E+00 0.  1.
         11    1    3    3    0    0  0.17069431874E+01  0.44006786792E+00  0.67333279137E+01  0.69602456729E+01  0.51100000000E-03 0. -1.
        -11    1    3    3    0    0  0.66503039291E+01 -0.45521228263E+01  0.11118030655E+02  0.13731677628E+02  0.51100000000E-03 0.  1.
        -12    1    3    3    0    0  0.81961817559E+01 -0.23024077506E+02  0.11699238816E+02  0.27095345158E+02  0.00000000000E+00 0.  1.
</event>
<event>
 7    1  0.1322363E-009  0.4778727E+02  0.7816164E-02  0.1312668E+00
        -11   -1    0    0    0    0  0.00000000000E+00  0.00000000000E+00  0.45593999997E+02  0.45594000000E+02  0.51100000000E-03 0. -1.
         11   -1    0    0    0    0 -0.00000000000E+00 -0.00000000000E+00 -0.45593999997E+02  0.45594000000E+02  0.51100000000E-03 0.  1.
    9900012    2    1    2    0    0  0.11991569527E+02  0.38294160797E+02 -0.16534295418E+02  0.47787269409E+02  0.19999992544E+02 0.  0.
        -12    1    1    2    0    0 -0.11991569527E+02 -0.38294160797E+02  0.16534295418E+02  0.43400730591E+02  0.00000000000E+00 0.  1.
         11    1    3    3    0    0 -0.38518321399E+01  0.14534585121E+02 -0.46935048925E+01  0.15751817797E+02  0.51100000000E-03 0. -1.
        -11    1    3    3    0    0  0.64117732213E+01  0.13963562896E+02 -0.99514964890E+01  0.18306397986E+02  0.51100000000E-03 0.  1.
        -12    1    3    3    0    0  0.94316284452E+01  0.97960127806E+01 -0.18892940364E+01  0.13729053627E+02  0.00000000000E+00 0.  1.
</event>
<event>
 7    1  0.1322363E-009  0.4778727E+02  0.7816164E-02  0.1312668E+00
        -11   -1    0    0    0    0  0.00000000000E+00  0.00000000000E+00  0.45593999997E+02  0.45594000000E+02  0.51100000000E-03 0.  1.
         11   -1    0    0    0    0 -0.00000000000E+00 -0.00000000000E+00 -0.45593999997E+02  0.45594000000E+02  0.51100000000E-03 0. -1.
    9900012    2    1    2    0    0 -0.39554529135E+00 -0.16786940016E+02 -0.40020815067E+02  0.47787269017E+02  0.19999990756E+02 0.  0.
        -12    1    1    2    0    0  0.39554529135E+00  0.16786940016E+02  0.40020815067E+02  0.43400730983E+02  0.00000000000E+00 0.  1.
         11    1    3    3    0    0  0.11124919971E+01 -0.12740776138E+02 -0.27221369637E+02  0.30076036644E+02  0.51100000000E-03 0. -1.
        -11    1    3    3    0    0  0.28905083825E+00 -0.57667760522E+01 -0.12642842649E+01  0.59108097065E+01  0.51100000000E-03 0.  1.
        -12    1    3    3    0    0 -0.17970881267E+01  0.17206121740E+01 -0.11535161166E+02  0.11800422667E+02  0.00000000000E+00 0.  1.
</event>
<event>
 7    1  0.1322363E-009  0.4778727E+02  0.7816164E-02  0.1312668E+00
        -11   -1    0    0    0    0  0.00000000000E+00  0.00000000000E+00  0.45593999997E+02  0.45594000000E+02  0.51100000000E-03 0.  1.
         11   -1    0    0    0    0 -0.00000000000E+00 -0.00000000000E+00 -0.45593999997E+02  0.45594000000E+02  0.51100000000E-03 0. -1.
    9900012    2    1    2    0    0 -0.36510154131E+02  0.16983417299E+02 -0.16192442133E+02  0.47787274199E+02  0.20000014383E+02 0.  0.
        -12    1    1    2    0    0  0.36510154131E+02 -0.16983417299E+02  0.16192442133E+02  0.43400725801E+02  0.00000000000E+00 0.  1.
         11    1    3    3    0    0 -0.26873925016E+02  0.11358040870E+02 -0.15459007317E+02  0.33018083616E+02  0.51100000000E-03 0. -1.
        -11    1    3    3    0    0 -0.53160729374E+01  0.62674596191E+01 -0.41661644388E+01  0.92140440603E+01  0.51100000000E-03 0.  1.
        -12    1    3    3    0    0 -0.43201561777E+01 -0.64208318999E+00  0.34327296236E+01  0.55551465229E+01  0.00000000000E+00 0.  1.
</event>
<event>
 7    1  0.1322363E-009  0.4778727E+02  0.7816164E-02  0.1312668E+00
        -11   -1    0    0    0    0  0.00000000000E+00  0.00000000000E+00  0.45593999997E+02  0.45594000000E+02  0.51100000000E-03 0.  1.
         11   -1    0    0    0    0 -0.00000000000E+00 -0.00000000000E+00 -0.45593999997E+02  0.45594000000E+02  0.51100000000E-03 0. -1.
    9900012    2    1    2    0    0 -0.35863452513E+02 -0.78332535129E+01 -0.23153313769E+02  0.47787273909E+02  0.20000013059E+02 0.  0.
        -12    1    1    2    0    0  0.35863452513E+02  0.78332535129E+01  0.23153313769E+02  0.43400726091E+02  0.00000000000E+00 0.  1.
         11    1    3    3    0    0 -0.18569050588E+02 -0.11623792809E+02 -0.94804788657E+01  0.23870519031E+02  0.51100000000E-03 0. -1.
        -11    1    3    3    0    0 -0.54815417442E-01  0.24075101756E-02 -0.35872206533E+01  0.35876402833E+01  0.51100000000E-03 0.  1.
         12    1    3    3    0    0 -0.17239586508E+02  0.37881317863E+01 -0.10085614250E+02  0.20329114594E+02  0.00000000000E+00 0. -1.
</event>
<event>
 7    1  0.1322363E-009  0.4778727E+02  0.7816164E-02  0.1312668E+00
        -11   -1    0    0    0    0  0.00000000000E+00  0.00000000000E+00  0.45593999997E+02  0.45594000000E+02  0.51100000000E-03 0.  1.
         11   -1    0    0    0    0 -0.00000000000E+00 -0.00000000000E+00 -0.45593999997E+02  0.45594000000E+02  0.51100000000E-03 0. -1.
    9900012    2    1    2    0    0  0.10534807653E+02 -0.26743977252E+02 -0.32517698786E+02  0.47787271597E+02  0.20000002521E+02 0.  0.
        -12    1    1    2    0    0 -0.10534807653E+02  0.26743977252E+02  0.32517698786E+02  0.43400728403E+02  0.00000000000E+00 0.  1.
         11    1    3    3    0    0  0.57140037103E+01 -0.49099277902E+01 -0.13171432089E+02  0.15173788349E+02  0.51100000000E-03 0. -1.
        -11    1    3    3    0    0  0.58239914612E+01 -0.72896407463E+01 -0.13102575094E+01  0.94220228058E+01  0.51100000000E-03 0.  1.
         12    1    3    3    0    0 -0.10031875184E+01 -0.14544408715E+02 -0.18036009188E+02  0.23191460443E+02  0.00000000000E+00 0. -1.
</event>
<event>
 7    1  0.1322363E-009  0.4778727E+02  0.7816164E-02  0.1312668E+00
        -11   -1    0    0    0    0  0.00000000000E+00  0.00000000000E+00  0.45593999997E+02  0.45594000000E+02  0.51100000000E-03 0.  1.
         11   -1    0    0    0    0 -0.00000000000E+00 -0.00000000000E+00 -0.45593999997E+02  0.45594000000E+02  0.51100000000E-03 0. -1.
    9900012    2    1    2    0    0  0.18193736931E+02 -0.19184272438E+02 -0.34417652580E+02  0.47787272107E+02  0.20000004846E+02 0.  0.
        -12    1    1    2    0    0 -0.18193736931E+02  0.19184272438E+02  0.34417652580E+02  0.43400727893E+02  0.00000000000E+00 0.  1.
         11    1    3    3    0    0  0.94786845566E+01 -0.64769963016E+01 -0.81367804237E+01  0.14071394314E+02  0.51100000000E-03 0. -1.
        -11    1    3    3    0    0 -0.35942430794E+01 -0.12755524382E+01 -0.23580644100E+01  0.44839809722E+01  0.51100000000E-03 0.  1.
        -12    1    3    3    0    0  0.12309295454E+02 -0.11431723698E+02 -0.23922807746E+02  0.29231896821E+02  0.00000000000E+00 0.  1.
</event>
<event>
 7    1  0.1322363E-009  0.4778727E+02  0.7816164E-02  0.1312668E+00
        -11   -1    0    0    0    0  0.00000000000E+00  0.00000000000E+00  0.45593999997E+02  0.45594000000E+02  0.51100000000E-03 0.  1.
         11   -1    0    0    0    0 -0.00000000000E+00 -0.00000000000E+00 -0.45593999997E+02  0.45594000000E+02  0.51100000000E-03 0. -1.
    9900012    2    1    2    0    0 -0.29115679719E+02 -0.10087067591E+02 -0.30563893032E+02  0.47787270797E+02  0.19999998872E+02 0.  0.
        -12    1    1    2    0    0  0.29115679719E+02  0.10087067591E+02  0.30563893032E+02  0.43400729203E+02  0.00000000000E+00 0.  1.
         11    1    3    3    0    0 -0.14524473887E+02 -0.26004164943E+01 -0.73691285491E+01  0.16493227806E+02  0.51100000000E-03 0. -1.
        -11    1    3    3    0    0 -0.35834160496E+01  0.28430075145E+00 -0.15215359237E+02  0.15634220623E+02  0.51100000000E-03 0.  1.
         12    1    3    3    0    0 -0.11007789783E+02 -0.77709518481E+01 -0.79794052454E+01  0.15659822368E+02  0.00000000000E+00 0. -1.
</event>
<event>
 7    1  0.1322363E-009  0.4778727E+02  0.7816164E-02  0.1312668E+00
        -11   -1    0    0    0    0  0.00000000000E+00  0.00000000000E+00  0.45593999997E+02  0.45594000000E+02  0.51100000000E-03 0.  1.
         11   -1    0    0    0    0 -0.00000000000E+00 -0.00000000000E+00 -0.45593999997E+02  0.45594000000E+02  0.51100000000E-03 0. -1.
    9900012    2    1    2    0    0  0.11969995613E+02 -0.41413901794E+02  0.50230551687E+01  0.47787272586E+02  0.20000007030E+02 0.  0.
        -12    1    1    2    0    0 -0.11969995613E+02  0.41413901794E+02 -0.50230551687E+01  0.43400727414E+02  0.00000000000E+00 0.  1.
         11    1    3    3    0    0  0.22109878406E+01 -0.16281039234E+02  0.33319906111E+01  0.16764929689E+02  0.51100000000E-03 0. -1.
        -11    1    3    3    0    0  0.99174201475E+01 -0.20101284135E+02  0.72163593393E+01  0.23547668433E+02  0.51100000000E-03 0.  1.
         12    1    3    3    0    0 -0.15841237471E+00 -0.50315784252E+01 -0.55252947817E+01  0.74746744648E+01  0.00000000000E+00 0. -1.
</event>
<event>
 7    1  0.1322363E-009  0.4778727E+02  0.7816164E-02  0.1312668E+00
        -11   -1    0    0    0    0  0.00000000000E+00  0.00000000000E+00  0.45593999997E+02  0.45594000000E+02  0.51100000000E-03 0. -1.
         11   -1    0    0    0    0 -0.00000000000E+00 -0.00000000000E+00 -0.45593999997E+02  0.45594000000E+02  0.51100000000E-03 0.  1.
    9900012    2    1    2    0    0 -0.23845145658E+02  0.25725560941E+02  0.25558325205E+02  0.47787269079E+02  0.19999991040E+02 0.  0.
        -12    1    1    2    0    0  0.23845145658E+02 -0.25725560941E+02 -0.25558325205E+02  0.43400730921E+02  0.00000000000E+00 0.  1.
         11    1    3    3    0    0 -0.43615767601E+01  0.21451533745E+01  0.80222123733E+01  0.93798148413E+01  0.51100000000E-03 0. -1.
        -11    1    3    3    0    0 -0.19298539028E+02  0.15374401462E+02  0.82568854061E+01  0.26018877490E+02  0.51100000000E-03 0.  1.
        -12    1    3    3    0    0 -0.18502986969E+00  0.82060061041E+01  0.92792274255E+01  0.12388576748E+02  0.00000000000E+00 0.  1.
</event>
<event>
 7    1  0.1322363E-009  0.4778727E+02  0.7816164E-02  0.1312668E+00
        -11   -1    0    0    0    0  0.00000000000E+00  0.00000000000E+00  0.45593999997E+02  0.45594000000E+02  0.51100000000E-03 0. -1.
         11   -1    0    0    0    0 -0.00000000000E+00 -0.00000000000E+00 -0.45593999997E+02  0.45594000000E+02  0.51100000000E-03 0.  1.
    9900012    2    1    2    0    0 -0.16553998448E+02 -0.27582400883E+02  0.29134163482E+02  0.47787272070E+02  0.20000004677E+02 0.  0.
        -12    1    1    2    0    0  0.16553998448E+02  0.27582400883E+02 -0.29134163482E+02  0.43400727930E+02  0.00000000000E+00 0.  1.
         11    1    3    3    0    0 -0.10938164427E+02 -0.13371725377E+02  0.17339123286E+02  0.24476349343E+02  0.51100000000E-03 0. -1.
        -11    1    3    3    0    0  0.24035622355E+01 -0.85348686959E+01  0.99266086681E+01  0.13310095980E+02  0.51100000000E-03 0.  1.
         12    1    3    3    0    0 -0.80193962559E+01 -0.56758068101E+01  0.18684315274E+01  0.10000826747E+02  0.00000000000E+00 0. -1.
</event>
<event>
 7    1  0.1322363E-009  0.4778727E+02  0.7816164E-02  0.1312668E+00
        -11   -1    0    0    0    0  0.00000000000E+00  0.00000000000E+00  0.45593999997E+02  0.45594000000E+02  0.51100000000E-03 0.  1.
         11   -1    0    0    0    0 -0.00000000000E+00 -0.00000000000E+00 -0.45593999997E+02  0.45594000000E+02  0.51100000000E-03 0. -1.
    9900012    2    1    2    0    0 -0.26242421250E+02  0.17930465625E+02 -0.29554312702E+02  0.47787266482E+02  0.19999979199E+02 0.  0.
        -12    1    1    2    0    0  0.26242421250E+02 -0.17930465625E+02  0.29554312702E+02  0.43400733518E+02  0.00000000000E+00 0.  1.
         11    1    3    3    0    0 -0.12812232662E+02  0.14962002522E+02 -0.20280008349E+02  0.28271780350E+02  0.51100000000E-03 0. -1.
        -11    1    3    3    0    0 -0.29163833986E+01 -0.15235762167E+01 -0.71717611978E+01  0.78905472279E+01  0.51100000000E-03 0.  1.
        -12    1    3    3    0    0 -0.10513805190E+02  0.44920393189E+01 -0.21025431549E+01  0.11624938904E+02  0.00000000000E+00 0.  1.
</event>
<event>
 7    1  0.1322363E-009  0.4778727E+02  0.7816164E-02  0.1312668E+00
        -11   -1    0    0    0    0  0.00000000000E+00  0.00000000000E+00  0.45593999997E+02  0.45594000000E+02  0.51100000000E-03 0. -1.
         11   -1    0    0    0    0 -0.00000000000E+00 -0.00000000000E+00 -0.45593999997E+02  0.45594000000E+02  0.51100000000E-03 0.  1.
    9900012    2    1    2    0    0 -0.88375102214E+01  0.41813806803E+02  0.75582819618E+01  0.47787266683E+02  0.19999980114E+02 0.  0.
        -12    1    1    2    0    0  0.88375102214E+01 -0.41813806803E+02 -0.75582819618E+01  0.43400733317E+02  0.00000000000E+00 0.  1.
         11    1    3    3    0    0 -0.10301708793E+02  0.13283458911E+02  0.53896796553E+01  0.17652878852E+02  0.51100000000E-03 0.  1.
        -11    1    3    3    0    0 -0.39836907506E+01  0.11273252487E+02  0.10792618639E+01  0.12005033114E+02  0.51100000000E-03 0. -1.
        -12    1    3    3    0    0  0.54478893225E+01  0.17257095404E+02  0.10893404426E+01  0.18129354717E+02  0.00000000000E+00 0.  1.
</event>
<event>
 7    1  0.1322363E-009  0.4778727E+02  0.7816164E-02  0.1312668E+00
        -11   -1    0    0    0    0  0.00000000000E+00  0.00000000000E+00  0.45593999997E+02  0.45594000000E+02  0.51100000000E-03 0.  1.
         11   -1    0    0    0    0 -0.00000000000E+00 -0.00000000000E+00 -0.45593999997E+02  0.45594000000E+02  0.51100000000E-03 0. -1.
    9900012    2    1    2    0    0 -0.41994783787E+02  0.89986899383E+01  0.62518247785E+01  0.47787267299E+02  0.19999982924E+02 0.  0.
        -12    1    1    2    0    0  0.41994783787E+02 -0.89986899383E+01 -0.62518247785E+01  0.43400732701E+02  0.00000000000E+00 0.  1.
         11    1    3    3    0    0 -0.24654819690E+02  0.19344347162E+01  0.42862388715E+01  0.25099283168E+02  0.51100000000E-03 0. -1.
        -11    1    3    3    0    0 -0.23398507854E+01 -0.22736426998E+01  0.37010636483E+01  0.49337840664E+01  0.51100000000E-03 0.  1.
         12    1    3    3    0    0 -0.15000113311E+02  0.93378979219E+01 -0.17354777413E+01  0.17754200065E+02  0.00000000000E+00 0. -1.
</event>
<event>
 7    1  0.1322363E-009  0.4778727E+02  0.7816164E-02  0.1312668E+00
        -11   -1    0    0    0    0  0.00000000000E+00  0.00000000000E+00  0.45593999997E+02  0.45594000000E+02  0.51100000000E-03 0. -1.
         11   -1    0    0    0    0 -0.00000000000E+00 -0.00000000000E+00 -0.45593999997E+02  0.45594000000E+02  0.51100000000E-03 0.  1.
    9900012    2    1    2    0    0 -0.82034671337E+01  0.95845924490E+01  0.41526644964E+02  0.47787268124E+02  0.19999986683E+02 0.  0.
        -12    1    1    2    0    0  0.82034671337E+01 -0.95845924490E+01 -0.41526644964E+02  0.43400731876E+02  0.00000000000E+00 0.  1.
         11    1    3    3    0    0 -0.18524930110E+00  0.62048982511E+01  0.11577383333E+02  0.13136623794E+02  0.51100000000E-03 0. -1.
        -11    1    3    3    0    0  0.33998214839E+00 -0.53120662703E+01  0.10360737486E+02  0.11648112183E+02  0.51100000000E-03 0.  1.
        -12    1    3    3    0    0 -0.83581999810E+01  0.86917604682E+01  0.19588524146E+02  0.23002532147E+02  0.00000000000E+00 0.  1.
</event>
<event>
 7    1  0.1322363E-009  0.4778727E+02  0.7816164E-02  0.1312668E+00
        -11   -1    0    0    0    0  0.00000000000E+00  0.00000000000E+00  0.45593999997E+02  0.45594000000E+02  0.51100000000E-03 0.  1.
         11   -1    0    0    0    0 -0.00000000000E+00 -0.00000000000E+00 -0.45593999997E+02  0.45594000000E+02  0.51100000000E-03 0. -1.
    9900012    2    1    2    0    0  0.41712514687E+02  0.80693861889E+01 -0.88642248039E+01  0.47787270094E+02  0.19999995667E+02 0.  0.
        -12    1    1    2    0    0 -0.41712514687E+02 -0.80693861889E+01  0.88642248039E+01  0.43400729906E+02  0.00000000000E+00 0.  1.
         11    1    3    3    0    0  0.11109422418E+02  0.69721814103E+01 -0.67484799792E+01  0.14750341093E+02  0.51100000000E-03 0. -1.
        -11    1    3    3    0    0  0.81558639449E+01  0.28903359431E+01  0.42436395683E+01  0.96374600180E+01  0.51100000000E-03 0.  1.
         12    1    3    3    0    0  0.22447228325E+02 -0.17931311646E+01 -0.63593843931E+01  0.23399468983E+02  0.00000000000E+00 0. -1.
</event>
<event>
 7    1  0.1322363E-009  0.4778728E+02  0.7816164E-02  0.1312668E+00
        -11   -1    0    0    0    0  0.00000000000E+00  0.00000000000E+00  0.45593999997E+02  0.45594000000E+02  0.51100000000E-03 0. -1.
         11   -1    0    0    0    0 -0.00000000000E+00 -0.00000000000E+00 -0.45593999997E+02  0.45594000000E+02  0.51100000000E-03 0.  1.
    9900012    2    1    2    0    0  0.38116412667E+02  0.20737843580E+02  0.83868270987E+00  0.47787280425E+02  0.20000042769E+02 0.  0.
        -12    1    1    2    0    0 -0.38116412667E+02 -0.20737843580E+02 -0.83868270987E+00  0.43400719575E+02  0.00000000000E+00 0.  1.
         11    1    3    3    0    0  0.79417551474E+01  0.78496280464E+01  0.49047725067E+01  0.12196103021E+02  0.51100000000E-03 0. -1.
        -11    1    3    3    0    0  0.29493528634E+02  0.83183663981E+01 -0.44017793456E+01  0.30958667809E+02  0.51100000000E-03 0.  1.
         12    1    3    3    0    0  0.68112888572E+00  0.45698491352E+01  0.33568954872E+00  0.46325095953E+01  0.00000000000E+00 0. -1.
</event>
<event>
 7    1  0.1322363E-009  0.4778727E+02  0.7816164E-02  0.1312668E+00
        -11   -1    0    0    0    0  0.00000000000E+00  0.00000000000E+00  0.45593999997E+02  0.45594000000E+02  0.51100000000E-03 0.  1.
         11   -1    0    0    0    0 -0.00000000000E+00 -0.00000000000E+00 -0.45593999997E+02  0.45594000000E+02  0.51100000000E-03 0. -1.
    9900012    2    1    2    0    0 -0.76104293756E+01 -0.29847990832E+02 -0.30574533132E+02  0.47787271109E+02  0.20000000295E+02 0.  0.
        -12    1    1    2    0    0  0.76104293756E+01  0.29847990832E+02  0.30574533132E+02  0.43400728891E+02  0.00000000000E+00 0.  1.
         11    1    3    3    0    0  0.18586926710E+01 -0.17680082368E+02 -0.13229991827E+02  0.22160160987E+02  0.51100000000E-03 0. -1.
        -11    1    3    3    0    0 -0.18160369723E+00  0.19068927148E+01 -0.25841585116E+01  0.32166901005E+01  0.51100000000E-03 0.  1.
         12    1    3    3    0    0 -0.92875183494E+01 -0.14074801180E+02 -0.14760382794E+02  0.22410420022E+02  0.00000000000E+00 0. -1.
</event>
<event>
 7    1  0.1322363E-009  0.4778728E+02  0.7816164E-02  0.1312668E+00
        -11   -1    0    0    0    0  0.00000000000E+00  0.00000000000E+00  0.45593999997E+02  0.45594000000E+02  0.51100000000E-03 0.  1.
         11   -1    0    0    0    0 -0.00000000000E+00 -0.00000000000E+00 -0.45593999997E+02  0.45594000000E+02  0.51100000000E-03 0. -1.
    9900012    2    1    2    0    0  0.32009327984E+01 -0.42923091603E+02  0.55663790259E+01  0.47787281815E+02  0.20000049106E+02 0.  0.
        -12    1    1    2    0    0 -0.32009327984E+01  0.42923091603E+02 -0.55663790259E+01  0.43400718185E+02  0.00000000000E+00 0.  1.
         11    1    3    3    0    0 -0.28139305219E+01 -0.41977104953E+01 -0.45149815310E+01  0.67767275931E+01  0.51100000000E-03 0. -1.
        -11    1    3    3    0    0  0.63229254684E+01 -0.21396939578E+02  0.41627158674E+01  0.22696621190E+02  0.51100000000E-03 0.  1.
         12    1    3    3    0    0 -0.30806214804E+00 -0.17328441529E+02  0.59186446895E+01  0.18313933032E+02  0.00000000000E+00 0. -1.
</event>
<event>
 7    1  0.1322363E-009  0.4778727E+02  0.7816164E-02  0.1312668E+00
        -11   -1    0    0    0    0  0.00000000000E+00  0.00000000000E+00  0.45593999997E+02  0.45594000000E+02  0.51100000000E-03 0. -1.
         11   -1    0    0    0    0 -0.00000000000E+00 -0.00000000000E+00 -0.45593999997E+02  0.45594000000E+02  0.51100000000E-03 0.  1.
    9900012    2    1    2    0    0 -0.14563724572E+02 -0.36666337696E+02  0.18085928894E+02  0.47787271695E+02  0.20000002966E+02 0.  0.
        -12    1    1    2    0    0  0.14563724572E+02  0.36666337696E+02 -0.18085928894E+02  0.43400728305E+02  0.00000000000E+00 0.  1.
         11    1    3    3    0    0 -0.39767228995E+01 -0.94730672006E+01  0.11488432833E+02  0.15412248909E+02  0.51100000000E-03 0. -1.
        -11    1    3    3    0    0 -0.68513063624E+01 -0.25818590840E+02  0.84049749490E+01  0.28003279022E+02  0.51100000000E-03 0.  1.
         12    1    3    3    0    0 -0.37356953103E+01 -0.13746796552E+01 -0.18074788880E+01  0.43717437638E+01  0.00000000000E+00 0. -1.
</event>
<event>
 7    1  0.1322363E-009  0.4778727E+02  0.7816164E-02  0.1312668E+00
        -11   -1    0    0    0    0  0.00000000000E+00  0.00000000000E+00  0.45593999997E+02  0.45594000000E+02  0.51100000000E-03 0.  1.
         11   -1    0    0    0    0 -0.00000000000E+00 -0.00000000000E+00 -0.45593999997E+02  0.45594000000E+02  0.51100000000E-03 0. -1.
    9900012    2    1    2    0    0  0.83066641217E+01  0.37373410801E+02 -0.20441399132E+02  0.47787270718E+02  0.19999998512E+02 0.  0.
        -12    1    1    2    0    0 -0.83066641217E+01 -0.37373410801E+02  0.20441399132E+02  0.43400729282E+02  0.00000000000E+00 0.  1.
         11    1    3    3    0    0  0.91485046838E+00  0.30633324831E+01 -0.80816802688E+01  0.86910594009E+01  0.51100000000E-03 0. -1.
        -11    1    3    3    0    0  0.45000936223E+00  0.92609480088E-01 -0.28816889055E+01  0.29180843290E+01  0.51100000000E-03 0.  1.
        -12    1    3    3    0    0  0.69418042911E+01  0.34217468838E+02 -0.94780299573E+01  0.36178126988E+02  0.00000000000E+00 0.  1.
</event>
<event>
 7    1  0.1322363E-009  0.4778727E+02  0.7816164E-02  0.1312668E+00
        -11   -1    0    0    0    0  0.00000000000E+00  0.00000000000E+00  0.45593999997E+02  0.45594000000E+02  0.51100000000E-03 0.  1.
         11   -1    0    0    0    0 -0.00000000000E+00 -0.00000000000E+00 -0.45593999997E+02  0.45594000000E+02  0.51100000000E-03 0. -1.
    9900012    2    1    2    0    0  0.16078482120E+02 -0.38664233494E+02 -0.11409768092E+02  0.47787270203E+02  0.19999996164E+02 0.  0.
        -12    1    1    2    0    0 -0.16078482120E+02  0.38664233494E+02  0.11409768092E+02  0.43400729797E+02  0.00000000000E+00 0.  1.
         11    1    3    3    0    0 -0.74925831833E-01 -0.58401947476E+00 -0.55149847941E+01  0.55463276289E+01  0.51100000000E-03 0. -1.
        -11    1    3    3    0    0  0.94185394097E+01 -0.14941976679E+02 -0.36701888576E+01  0.18040006602E+02  0.51100000000E-03 0.  1.
         12    1    3    3    0    0  0.67348685418E+01 -0.23138237341E+02 -0.22245944402E+01  0.24200935972E+02  0.00000000000E+00 0. -1.
</event>
<event>
 7    1  0.1322363E-009  0.4778727E+02  0.7816164E-02  0.1312668E+00
        -11   -1    0    0    0    0  0.00000000000E+00  0.00000000000E+00  0.45593999997E+02  0.45594000000E+02  0.51100000000E-03 0. -1.
         11   -1    0    0    0    0 -0.00000000000E+00 -0.00000000000E+00 -0.45593999997E+02  0.45594000000E+02  0.51100000000E-03 0.  1.
    9900012    2    1    2    0    0  0.34079530719E+02  0.30348447103E+01 -0.26702029709E+02  0.47787273197E+02  0.20000009816E+02 0.  0.
        -12    1    1    2    0    0 -0.34079530719E+02 -0.30348447103E+01  0.26702029709E+02  0.43400726803E+02  0.00000000000E+00 0.  1.
         11    1    3    3    0    0  0.95497408507E+01 -0.57055965656E+01 -0.47122233567E+01  0.12081242970E+02  0.51100000000E-03 0. -1.
        -11    1    3    3    0    0  0.94137051214E+01  0.17751946812E+01 -0.21653642791E+01  0.98213014918E+01  0.51100000000E-03 0.  1.
        -12    1    3    3    0    0  0.15116084747E+02  0.69652465946E+01 -0.19824442073E+02  0.25884728735E+02  0.00000000000E+00 0.  1.
</event>
<event>
 7    1  0.1322363E-009  0.4778727E+02  0.7816164E-02  0.1312668E+00
        -11   -1    0    0    0    0  0.00000000000E+00  0.00000000000E+00  0.45593999997E+02  0.45594000000E+02  0.51100000000E-03 0.  1.
         11   -1    0    0    0    0 -0.00000000000E+00 -0.00000000000E+00 -0.45593999997E+02  0.45594000000E+02  0.51100000000E-03 0. -1.
    9900012    2    1    2    0    0 -0.36460810610E+02  0.18881872333E+02  0.14060853987E+02  0.47787269269E+02  0.19999991905E+02 0.  0.
        -12    1    1    2    0    0  0.36460810610E+02 -0.18881872333E+02 -0.14060853987E+02  0.43400730731E+02  0.00000000000E+00 0.  1.
         11    1    3    3    0    0 -0.29527397538E+02  0.96332824373E+01  0.33496330730E+01  0.31239196178E+02  0.51100000000E-03 0. -1.
        -11    1    3    3    0    0 -0.38105568869E+00  0.41373218822E+01  0.24155572650E+01  0.48059913605E+01  0.51100000000E-03 0.  1.
         12    1    3    3    0    0 -0.65523573834E+01  0.51112680133E+01  0.82956636492E+01  0.11742081730E+02  0.00000000000E+00 0. -1.
</event>
<event>
 7    1  0.1322363E-009  0.4778728E+02  0.7816164E-02  0.1312668E+00
        -11   -1    0    0    0    0  0.00000000000E+00  0.00000000000E+00  0.45593999997E+02  0.45594000000E+02  0.51100000000E-03 0.  1.
         11   -1    0    0    0    0 -0.00000000000E+00 -0.00000000000E+00 -0.45593999997E+02  0.45594000000E+02  0.51100000000E-03 0. -1.
    9900012    2    1    2    0    0  0.17509251507E+02  0.28505054080E+02 -0.27649785768E+02  0.47787278238E+02  0.20000032798E+02 0.  0.
        -12    1    1    2    0    0 -0.17509251507E+02 -0.28505054080E+02  0.27649785768E+02  0.43400721762E+02  0.00000000000E+00 0.  1.
         11    1    3    3    0    0  0.51287803513E+00 -0.23031472627E+00 -0.38670908401E+01  0.39077462275E+01  0.51100000000E-03 0. -1.
        -11    1    3    3    0    0  0.21220526373E+01  0.86295040143E+01 -0.14881483672E+02  0.17332916762E+02  0.51100000000E-03 0.  1.
         12    1    3    3    0    0  0.14874320834E+02  0.20105864792E+02 -0.89012112559E+01  0.26546615248E+02  0.00000000000E+00 0. -1.
</event>
<event>
 7    1  0.1322363E-009  0.4778727E+02  0.7816164E-02  0.1312668E+00
        -11   -1    0    0    0    0  0.00000000000E+00  0.00000000000E+00  0.45593999997E+02  0.45594000000E+02  0.51100000000E-03 0. -1.
         11   -1    0    0    0    0 -0.00000000000E+00 -0.00000000000E+00 -0.45593999997E+02  0.45594000000E+02  0.51100000000E-03 0.  1.
    9900012    2    1    2    0    0  0.26565740783E+00  0.42405569967E+02  0.92369028117E+01  0.47787270610E+02  0.19999998018E+02 0.  0.
        -12    1    1    2    0    0 -0.26565740783E+00 -0.42405569967E+02 -0.92369028117E+01  0.43400729390E+02  0.00000000000E+00 0.  1.
         11    1    3    3    0    0  0.32029509756E+00  0.21040827607E+01 -0.17843831603E+01  0.27773686715E+01  0.51100000000E-03 0. -1.
        -11    1    3    3    0    0 -0.79247263641E+00 -0.63021743731E+00 -0.18388313529E+01  0.20991636199E+01  0.51100000000E-03 0.  1.
         12    1    3    3    0    0  0.73783494668E+00  0.40931704643E+02  0.12860117325E+02  0.42910738318E+02  0.00000000000E+00 0. -1.
</event>
<event>
 7    1  0.1322363E-009  0.4778727E+02  0.7816164E-02  0.1312668E+00
        -11   -1    0    0    0    0  0.00000000000E+00  0.00000000000E+00  0.45593999997E+02  0.45594000000E+02  0.51100000000E-03 0. -1.
         11   -1    0    0    0    0 -0.00000000000E+00 -0.00000000000E+00 -0.45593999997E+02  0.45594000000E+02  0.51100000000E-03 0.  1.
    9900012    2    1    2    0    0 -0.32182508555E+02 -0.27901581108E+02  0.83313388947E+01  0.47787270824E+02  0.19999998994E+02 0.  0.
        -12    1    1    2    0    0  0.32182508555E+02  0.27901581108E+02 -0.83313388947E+01  0.43400729176E+02  0.00000000000E+00 0.  1.
         11    1    3    3    0    0  0.48071181396E+00 -0.53293555365E+01 -0.16707725872E+01  0.56057644957E+01  0.51100000000E-03 0.  1.
        -11    1    3    3    0    0 -0.50639618649E+01 -0.52439268558E+01  0.58157758653E+01  0.93255416902E+01  0.51100000000E-03 0. -1.
        -12    1    3    3    0    0 -0.27599258504E+02 -0.17328298716E+02  0.41863356166E+01  0.32855964638E+02  0.00000000000E+00 0.  1.
</event>
<event>
 7    1  0.1322363E-009  0.4778727E+02  0.7816164E-02  0.1312668E+00
        -11   -1    0    0    0    0  0.00000000000E+00  0.00000000000E+00  0.45593999997E+02  0.45594000000E+02  0.51100000000E-03 0.  1.
         11   -1    0    0    0    0 -0.00000000000E+00 -0.00000000000E+00 -0.45593999997E+02  0.45594000000E+02  0.51100000000E-03 0. -1.
    9900012    2    1    2    0    0  0.40958124912E+02  0.20279334906E+01 -0.14210660583E+02  0.47787269767E+02  0.19999994177E+02 0.  0.
        -12    1    1    2    0    0 -0.40958124912E+02 -0.20279334906E+01  0.14210660583E+02  0.43400730233E+02  0.00000000000E+00 0.  1.
         11    1    3    3    0    0  0.31986968902E+02 -0.37436409611E+01 -0.12347689581E+02  0.34491252013E+02  0.51100000000E-03 0. -1.
        -11    1    3    3    0    0  0.69289547315E+01  0.11370021770E+01 -0.36648012274E+01  0.79204770008E+01  0.51100000000E-03 0.  1.
        -12    1    3    3    0    0  0.20422012778E+01  0.46345722747E+01  0.18018302254E+01  0.53755407532E+01  0.00000000000E+00 0.  1.
</event>
<event>
 7    1  0.1322363E-009  0.4778727E+02  0.7816164E-02  0.1312668E+00
        -11   -1    0    0    0    0  0.00000000000E+00  0.00000000000E+00  0.45593999997E+02  0.45594000000E+02  0.51100000000E-03 0. -1.
         11   -1    0    0    0    0 -0.00000000000E+00 -0.00000000000E+00 -0.45593999997E+02  0.45594000000E+02  0.51100000000E-03 0.  1.
    9900012    2    1    2    0    0  0.33327606690E+02 -0.58642719147E+01  0.27175435533E+02  0.47787270177E+02  0.19999996046E+02 0.  0.
        -12    1    1    2    0    0 -0.33327606690E+02  0.58642719147E+01 -0.27175435533E+02  0.43400729823E+02  0.00000000000E+00 0.  1.
         11    1    3    3    0    0  0.17909504772E+02 -0.17324293921E+01  0.83315575121E+01  0.19828427159E+02  0.51100000000E-03 0. -1.
        -11    1    3    3    0    0  0.45144193886E+01 -0.75102063636E+01  0.52783687111E+01  0.10229582521E+02  0.51100000000E-03 0.  1.
         12    1    3    3    0    0  0.10903682529E+02  0.33783638410E+01  0.13565509310E+02  0.17729260497E+02  0.00000000000E+00 0. -1.
</event>
<event>
 7    1  0.1322363E-009  0.4778727E+02  0.7816164E-02  0.1312668E+00
        -11   -1    0    0    0    0  0.00000000000E+00  0.00000000000E+00  0.45593999997E+02  0.45594000000E+02  0.51100000000E-03 0. -1.
         11   -1    0    0    0    0 -0.00000000000E+00 -0.00000000000E+00 -0.45593999997E+02  0.45594000000E+02  0.51100000000E-03 0.  1.
    9900012    2    1    2    0    0  0.24988731480E+02 -0.19338725386E+01  0.35432282012E+02  0.47787272212E+02  0.20000005321E+02 0.  0.
        -12    1    1    2    0    0 -0.24988731480E+02  0.19338725386E+01 -0.35432282012E+02  0.43400727788E+02  0.00000000000E+00 0.  1.
         11    1    3    3    0    0  0.44136632031E+01 -0.67950497308E+01  0.12025756273E+02  0.14500756460E+02  0.51100000000E-03 0. -1.
        -11    1    3    3    0    0  0.24233574852E+01 -0.22762083806E+01  0.71887013222E+01  0.79203038486E+01  0.51100000000E-03 0.  1.
        -12    1    3    3    0    0  0.18151710792E+02  0.71373855728E+01  0.16217824417E+02  0.25366211903E+02  0.00000000000E+00 0.  1.
</event>
<event>
 7    1  0.1322363E-009  0.4778727E+02  0.7816164E-02  0.1312668E+00
        -11   -1    0    0    0    0  0.00000000000E+00  0.00000000000E+00  0.45593999997E+02  0.45594000000E+02  0.51100000000E-03 0.  1.
         11   -1    0    0    0    0 -0.00000000000E+00 -0.00000000000E+00 -0.45593999997E+02  0.45594000000E+02  0.51100000000E-03 0. -1.
    9900012    2    1    2    0    0 -0.31373827452E+02  0.29039031072E+02 -0.74860522785E+01  0.47787270129E+02  0.19999995828E+02 0.  0.
        -12    1    1    2    0    0  0.31373827452E+02 -0.29039031072E+02  0.74860522785E+01  0.43400729871E+02  0.00000000000E+00 0.  1.
         11    1    3    3    0    0 -0.19360325168E+02  0.13759835435E+02 -0.39893223866E+01  0.24084641479E+02  0.51100000000E-03 0. -1.
        -11    1    3    3    0    0 -0.31602691741E+01  0.20711760977E+00 -0.52538915738E+01  0.61346210875E+01  0.51100000000E-03 0.  1.
         12    1    3    3    0    0 -0.88532331102E+01  0.15072078027E+02  0.17571616819E+01  0.17568007563E+02  0.00000000000E+00 0. -1.
</event>
<event>
 7    1  0.1322363E-009  0.4778727E+02  0.7816164E-02  0.1312668E+00
        -11   -1    0    0    0    0  0.00000000000E+00  0.00000000000E+00  0.45593999997E+02  0.45594000000E+02  0.51100000000E-03 0.  1.
         11   -1    0    0    0    0 -0.00000000000E+00 -0.00000000000E+00 -0.45593999997E+02  0.45594000000E+02  0.51100000000E-03 0. -1.
    9900012    2    1    2    0    0 -0.27822762587E+02  0.62588133898E+01 -0.32716123713E+02  0.47787267128E+02  0.19999982143E+02 0.  0.
        -12    1    1    2    0    0  0.27822762587E+02 -0.62588133898E+01  0.32716123713E+02  0.43400732872E+02  0.00000000000E+00 0.  1.
         11    1    3    3    0    0 -0.85338179452E+01  0.12673380976E+01 -0.22374221071E+02  0.23979949195E+02  0.51100000000E-03 0. -1.
        -11    1    3    3    0    0 -0.71467176114E+00 -0.59070723733E+00 -0.28814838332E+01  0.30269853169E+01  0.51100000000E-03 0.  1.
        -12    1    3    3    0    0 -0.18574272881E+02  0.55821825295E+01 -0.74604188087E+01  0.20780332616E+02  0.00000000000E+00 0.  1.
</event>
<event>
 7    1  0.1322363E-009  0.4778727E+02  0.7816164E-02  0.1312668E+00
        -11   -1    0    0    0    0  0.00000000000E+00  0.00000000000E+00  0.45593999997E+02  0.45594000000E+02  0.51100000000E-03 0.  1.
         11   -1    0    0    0    0 -0.00000000000E+00 -0.00000000000E+00 -0.45593999997E+02  0.45594000000E+02  0.51100000000E-03 0. -1.
    9900012    2    1    2    0    0 -0.18495731054E+02  0.38335327635E+02 -0.84814102337E+01  0.47787265770E+02  0.19999975953E+02 0.  0.
        -12    1    1    2    0    0  0.18495731054E+02 -0.38335327635E+02  0.84814102337E+01  0.43400734230E+02  0.00000000000E+00 0.  1.
         11    1    3    3    0    0 -0.23769059324E+01  0.99194932985E+01  0.10193941412E+01  0.10251106954E+02  0.51100000000E-03 0. -1.
        -11    1    3    3    0    0 -0.17535259021E+02  0.16217835405E+02 -0.78700856338E+01  0.25148394428E+02  0.51100000000E-03 0.  1.
        -12    1    3    3    0    0  0.14164338990E+01  0.12197998932E+02 -0.16307187411E+01  0.12387764389E+02  0.00000000000E+00 0.  1.
</event>
<event>
 7    1  0.1322363E-009  0.4778727E+02  0.7816164E-02  0.1312668E+00
        -11   -1    0    0    0    0  0.00000000000E+00  0.00000000000E+00  0.45593999997E+02  0.45594000000E+02  0.51100000000E-03 0. -1.
         11   -1    0    0    0    0 -0.00000000000E+00 -0.00000000000E+00 -0.45593999997E+02  0.45594000000E+02  0.51100000000E-03 0.  1.
    9900012    2    1    2    0    0 -0.89559734614E+01 -0.78466731262E+00  0.42459368897E+02  0.47787272235E+02  0.20000005427E+02 0.  0.
        -12    1    1    2    0    0  0.89559734614E+01  0.78466731262E+00 -0.42459368897E+02  0.43400727765E+02  0.00000000000E+00 0.  1.
         11    1    3    3    0    0 -0.28974332654E+01  0.40328131254E+01  0.13487554647E+02  0.14372641784E+02  0.51100000000E-03 0. -1.
        -11    1    3    3    0    0  0.44291250865E+01 -0.37158716421E+01  0.72891020055E+01  0.93035401542E+01  0.51100000000E-03 0.  1.
        -12    1    3    3    0    0 -0.10487665282E+02 -0.11016087959E+01  0.21682712245E+02  0.24111090297E+02  0.00000000000E+00 0.  1.
</event>
<event>
 7    1  0.1322363E-009  0.4778727E+02  0.7816164E-02  0.1312668E+00
        -11   -1    0    0    0    0  0.00000000000E+00  0.00000000000E+00  0.45593999997E+02  0.45594000000E+02  0.51100000000E-03 0. -1.
         11   -1    0    0    0    0 -0.00000000000E+00 -0.00000000000E+00 -0.45593999997E+02  0.45594000000E+02  0.51100000000E-03 0.  1.
    9900012    2    1    2    0    0 -0.36188632196E+02 -0.23795947547E+02 -0.27855113616E+01  0.47787270819E+02  0.19999998973E+02 0.  0.
        -12    1    1    2    0    0  0.36188632196E+02  0.23795947547E+02  0.27855113616E+01  0.43400729181E+02  0.00000000000E+00 0.  1.
         11    1    3    3    0    0 -0.15719555116E+01  0.58245811280E+00  0.12308883701E+01  0.20797567224E+01  0.51100000000E-03 0. -1.
        -11    1    3    3    0    0 -0.24248632314E+02 -0.22643244057E+02 -0.85474515402E+01  0.34260350241E+02  0.51100000000E-03 0.  1.
        -12    1    3    3    0    0 -0.10368044370E+02 -0.17351616028E+01  0.45310518085E+01  0.11447163856E+02  0.00000000000E+00 0.  1.
</event>
<event>
 7    1  0.1322363E-009  0.4778723E+02  0.7816164E-02  0.1312668E+00
        -11   -1    0    0    0    0  0.00000000000E+00  0.00000000000E+00  0.45593999997E+02  0.45594000000E+02  0.51100000000E-03 0.  1.
         11   -1    0    0    0    0 -0.00000000000E+00 -0.00000000000E+00 -0.45593999997E+02  0.45594000000E+02  0.51100000000E-03 0. -1.
    9900012    2    1    2    0    0 -0.65584447427E+01  0.23991443186E+02 -0.35567181425E+02  0.47787228831E+02  0.19999807530E+02 0.  0.
        -12    1    1    2    0    0  0.65584447427E+01 -0.23991443186E+02  0.35567181425E+02  0.43400771169E+02  0.00000000000E+00 0.  1.
         11    1    3    3    0    0  0.65850306780E+01  0.79257834628E+01 -0.82393685660E+01  0.13193478205E+02  0.51100000000E-03 0.  1.
        -11    1    3    3    0    0 -0.50145389397E+01  0.57269082852E+01 -0.67591912221E+01  0.10179869622E+02  0.51100000000E-03 0. -1.
         12    1    3    3    0    0 -0.81289364811E+01  0.10338751438E+02 -0.20568621636E+02  0.24413881003E+02  0.00000000000E+00 0. -1.
</event>
<event>
 7    1  0.1322363E-009  0.4778727E+02  0.7816164E-02  0.1312668E+00
        -11   -1    0    0    0    0  0.00000000000E+00  0.00000000000E+00  0.45593999997E+02  0.45594000000E+02  0.51100000000E-03 0.  1.
         11   -1    0    0    0    0 -0.00000000000E+00 -0.00000000000E+00 -0.45593999997E+02  0.45594000000E+02  0.51100000000E-03 0. -1.
    9900012    2    1    2    0    0  0.24724486018E+02  0.30302003168E+02 -0.18817855177E+02  0.47787270993E+02  0.19999999765E+02 0.  0.
        -12    1    1    2    0    0 -0.24724486018E+02 -0.30302003168E+02  0.18817855177E+02  0.43400729007E+02  0.00000000000E+00 0.  1.
         11    1    3    3    0    0  0.14010603894E+02  0.16916877794E+02 -0.14817489718E+02  0.26495957759E+02  0.51100000000E-03 0. -1.
        -11    1    3    3    0    0  0.63086237625E+01  0.14232797187E+02 -0.45757142543E+00  0.15574999885E+02  0.51100000000E-03 0.  1.
         12    1    3    3    0    0  0.44052583614E+01 -0.84767181288E+00 -0.35427940339E+01  0.57163133486E+01  0.00000000000E+00 0. -1.
</event>
<event>
 7    1  0.1322363E-009  0.4778727E+02  0.7816164E-02  0.1312668E+00
        -11   -1    0    0    0    0  0.00000000000E+00  0.00000000000E+00  0.45593999997E+02  0.45594000000E+02  0.51100000000E-03 0.  1.
         11   -1    0    0    0    0 -0.00000000000E+00 -0.00000000000E+00 -0.45593999997E+02  0.45594000000E+02  0.51100000000E-03 0. -1.
    9900012    2    1    2    0    0  0.20436144041E+02 -0.37677079742E+02  0.68135994401E+01  0.47787268917E+02  0.19999990301E+02 0.  0.
        -12    1    1    2    0    0 -0.20436144041E+02  0.37677079742E+02 -0.68135994401E+01  0.43400731083E+02  0.00000000000E+00 0.  1.
         11    1    3    3    0    0  0.86109614059E+01 -0.93848686976E+01 -0.38256089372E+01  0.13298860884E+02  0.51100000000E-03 0. -1.
        -11    1    3    3    0    0  0.10244186294E+02 -0.25813382628E+02  0.51269804120E+01  0.28241104864E+02  0.51100000000E-03 0.  1.
        -12    1    3    3    0    0  0.15809963415E+01 -0.24788284168E+01  0.55122279653E+01  0.62473031696E+01  0.00000000000E+00 0.  1.
</event>
<event>
 7    1  0.1322363E-009  0.4778726E+02  0.7816164E-02  0.1312668E+00
        -11   -1    0    0    0    0  0.00000000000E+00  0.00000000000E+00  0.45593999997E+02  0.45594000000E+02  0.51100000000E-03 0.  1.
         11   -1    0    0    0    0 -0.00000000000E+00 -0.00000000000E+00 -0.45593999997E+02  0.45594000000E+02  0.51100000000E-03 0. -1.
    9900012    2    1    2    0    0 -0.39218644077E+02 -0.11273262437E+02 -0.14779578356E+02  0.47787257776E+02  0.19999939505E+02 0.  0.
        -12    1    1    2    0    0  0.39218644077E+02  0.11273262437E+02  0.14779578356E+02  0.43400742224E+02  0.00000000000E+00 0.  1.
         11    1    3    3    0    0 -0.20296277953E+02 -0.33872670963E+01 -0.80960120231E+01  0.22112392184E+02  0.51100000000E-03 0. -1.
        -11    1    3    3    0    0 -0.41601514816E+01 -0.89637324777E+01 -0.38443812261E+01  0.10603519583E+02  0.51100000000E-03 0.  1.
         12    1    3    3    0    0 -0.14762214642E+02  0.10777371370E+01 -0.28391851068E+01  0.15071346009E+02  0.00000000000E+00 0. -1.
</event>
<event>
 7    1  0.1322363E-009  0.4778727E+02  0.7816164E-02  0.1312668E+00
        -11   -1    0    0    0    0  0.00000000000E+00  0.00000000000E+00  0.45593999997E+02  0.45594000000E+02  0.51100000000E-03 0.  1.
         11   -1    0    0    0    0 -0.00000000000E+00 -0.00000000000E+00 -0.45593999997E+02  0.45594000000E+02  0.51100000000E-03 0. -1.
    9900012    2    1    2    0    0 -0.24366003638E+02 -0.31028618616E+02 -0.18087175251E+02  0.47787271722E+02  0.20000003090E+02 0.  0.
        -12    1    1    2    0    0  0.24366003638E+02  0.31028618616E+02  0.18087175251E+02  0.43400728278E+02  0.00000000000E+00 0.  1.
         11    1    3    3    0    0 -0.24999534087E+01 -0.10867595008E+02 -0.13170669259E+01  0.11228938234E+02  0.51100000000E-03 0. -1.
        -11    1    3    3    0    0 -0.75707942911E+01 -0.41637962855E+01 -0.11645884636E+02  0.14501060476E+02  0.51100000000E-03 0.  1.
         12    1    3    3    0    0 -0.14295255938E+02 -0.15997227322E+02 -0.51242236888E+01  0.22057273012E+02  0.00000000000E+00 0. -1.
</event>
<event>
 7    1  0.1322363E-009  0.4778728E+02  0.7816164E-02  0.1312668E+00
        -11   -1    0    0    0    0  0.00000000000E+00  0.00000000000E+00  0.45593999997E+02  0.45594000000E+02  0.51100000000E-03 0. -1.
         11   -1    0    0    0    0 -0.00000000000E+00 -0.00000000000E+00 -0.45593999997E+02  0.45594000000E+02  0.51100000000E-03 0.  1.
    9900012    2    1    2    0    0  0.29144070480E+02 -0.32128231600E+02 -0.14222587771E+01  0.47787275007E+02  0.20000018068E+02 0.  0.
        -12    1    1    2    0    0 -0.29144070480E+02  0.32128231600E+02  0.14222587771E+01  0.43400724993E+02  0.00000000000E+00 0.  1.
         11    1    3    3    0    0  0.14998991721E+02 -0.14049734033E+02  0.45940281299E+01  0.21058724410E+02  0.51100000000E-03 0. -1.
        -11    1    3    3    0    0  0.15963480611E+02 -0.16883698663E+02 -0.36612589580E+01  0.23522262033E+02  0.51100000000E-03 0.  1.
        -12    1    3    3    0    0 -0.18184018517E+01 -0.11947989037E+01 -0.23550279490E+01  0.32062885639E+01  0.00000000000E+00 0.  1.
</event>
<event>
 7    1  0.1322363E-009  0.4778730E+02  0.7816164E-02  0.1312668E+00
        -11   -1    0    0    0    0  0.00000000000E+00  0.00000000000E+00  0.45593999997E+02  0.45594000000E+02  0.51100000000E-03 0.  1.
         11   -1    0    0    0    0 -0.00000000000E+00 -0.00000000000E+00 -0.45593999997E+02  0.45594000000E+02  0.51100000000E-03 0. -1.
    9900012    2    1    2    0    0 -0.17833686554E+02 -0.36085905366E+02 -0.16229221922E+02  0.47787302006E+02  0.20000141167E+02 0.  0.
        -12    1    1    2    0    0  0.17833686554E+02  0.36085905366E+02  0.16229221922E+02  0.43400697994E+02  0.00000000000E+00 0.  1.
         11    1    3    3    0    0 -0.38389514085E+01 -0.28823500020E+01  0.11304487780E+01  0.49318763317E+01  0.51100000000E-03 0. -1.
        -11    1    3    3    0    0 -0.12530754936E+02 -0.28268737556E+02 -0.20240229140E+02  0.36956842644E+02  0.51100000000E-03 0.  1.
         12    1    3    3    0    0 -0.14639802092E+01 -0.49348178073E+01  0.28805584402E+01  0.58985830308E+01  0.00000000000E+00 0. -1.
</event>
<event>
 7    1  0.1322363E-009  0.4778728E+02  0.7816164E-02  0.1312668E+00
        -11   -1    0    0    0    0  0.00000000000E+00  0.00000000000E+00  0.45593999997E+02  0.45594000000E+02  0.51100000000E-03 0.  1.
         11   -1    0    0    0    0 -0.00000000000E+00 -0.00000000000E+00 -0.45593999997E+02  0.45594000000E+02  0.51100000000E-03 0. -1.
    9900012    2    1    2    0    0 -0.20070991649E+02 -0.74049144797E+01 -0.37761688328E+02  0.47787279158E+02  0.20000036994E+02 0.  0.
        -12    1    1    2    0    0  0.20070991649E+02  0.74049144797E+01  0.37761688328E+02  0.43400720842E+02  0.00000000000E+00 0.  1.
         11    1    3    3    0    0 -0.12707338322E+02 -0.40386332380E+01 -0.19225953081E+02  0.23397099773E+02  0.51100000000E-03 0. -1.
        -11    1    3    3    0    0 -0.16910421380E+01 -0.81918299975E+01 -0.89310066302E+01  0.12236363100E+02  0.51100000000E-03 0.  1.
        -12    1    3    3    0    0 -0.56726111892E+01  0.48255487558E+01 -0.96047286166E+01  0.12153816285E+02  0.00000000000E+00 0.  1.
</event>
<event>
 7    1  0.1322363E-009  0.4778728E+02  0.7816164E-02  0.1312668E+00
        -11   -1    0    0    0    0  0.00000000000E+00  0.00000000000E+00  0.45593999997E+02  0.45594000000E+02  0.51100000000E-03 0. -1.
         11   -1    0    0    0    0 -0.00000000000E+00 -0.00000000000E+00 -0.45593999997E+02  0.45594000000E+02  0.51100000000E-03 0.  1.
    9900012    2    1    2    0    0  0.14921739456E+01 -0.28140123534E+01  0.43283684754E+02  0.47787278641E+02  0.20000034634E+02 0.  0.
        -12    1    1    2    0    0 -0.14921739456E+01  0.28140123534E+01 -0.43283684754E+02  0.43400721359E+02  0.00000000000E+00 0.  1.
         11    1    3    3    0    0  0.77385394685E+01 -0.56133231607E+01  0.27929271265E+02  0.29520138612E+02  0.51100000000E-03 0. -1.
        -11    1    3    3    0    0 -0.46289834632E+00  0.39679169318E+01  0.63131190688E+01  0.74708843047E+01  0.51100000000E-03 0.  1.
         12    1    3    3    0    0 -0.57834671766E+01 -0.11686061245E+01  0.90412944208E+01  0.10796255724E+02  0.00000000000E+00 0. -1.
</event>
<event>
 7    1  0.1322363E-009  0.4778727E+02  0.7816164E-02  0.1312668E+00
        -11   -1    0    0    0    0  0.00000000000E+00  0.00000000000E+00  0.45593999997E+02  0.45594000000E+02  0.51100000000E-03 0.  1.
         11   -1    0    0    0    0 -0.00000000000E+00 -0.00000000000E+00 -0.45593999997E+02  0.45594000000E+02  0.51100000000E-03 0. -1.
    9900012    2    1    2    0    0  0.17318792317E+02  0.25112802453E+02 -0.30871183951E+02  0.47787269443E+02  0.19999992700E+02 0.  0.
        -12    1    1    2    0    0 -0.17318792317E+02 -0.25112802453E+02  0.30871183951E+02  0.43400730557E+02  0.00000000000E+00 0.  1.
         11    1    3    3    0    0  0.81774165799E+01  0.86060614081E+01 -0.13232085503E+02  0.17777022301E+02  0.51100000000E-03 0. -1.
        -11    1    3    3    0    0 -0.40029486872E+01  0.30703584314E+01 -0.62518953881E+01  0.80334858745E+01  0.51100000000E-03 0.  1.
         12    1    3    3    0    0  0.13144324424E+02  0.13436382613E+02 -0.11387203060E+02  0.21976761267E+02  0.00000000000E+00 0. -1.
</event>
<event>
 7    1  0.1322363E-009  0.4778727E+02  0.7816164E-02  0.1312668E+00
        -11   -1    0    0    0    0  0.00000000000E+00  0.00000000000E+00  0.45593999997E+02  0.45594000000E+02  0.51100000000E-03 0.  1.
         11   -1    0    0    0    0 -0.00000000000E+00 -0.00000000000E+00 -0.45593999997E+02  0.45594000000E+02  0.51100000000E-03 0. -1.
    9900012    2    1    2    0    0  0.13540843874E+02  0.10084505903E+02 -0.39982145056E+02  0.47787266879E+02  0.19999981009E+02 0.  0.
        -12    1    1    2    0    0 -0.13540843874E+02 -0.10084505903E+02  0.39982145056E+02  0.43400733121E+02  0.00000000000E+00 0.  1.
         11    1    3    3    0    0  0.38423492194E+00  0.42687448598E+01 -0.12530391665E+02  0.13243131605E+02  0.51100000000E-03 0. -1.
        -11    1    3    3    0    0  0.15595735000E+02  0.11066805517E+01 -0.21292647653E+02  0.26416444431E+02  0.51100000000E-03 0.  1.
        -12    1    3    3    0    0 -0.24391260481E+01  0.47090804916E+01 -0.61591057375E+01  0.81276908431E+01  0.00000000000E+00 0.  1.
</event>
<event>
 7    1  0.1322363E-009  0.4778727E+02  0.7816164E-02  0.1312668E+00
        -11   -1    0    0    0    0  0.00000000000E+00  0.00000000000E+00  0.45593999997E+02  0.45594000000E+02  0.51100000000E-03 0.  1.
         11   -1    0    0    0    0 -0.00000000000E+00 -0.00000000000E+00 -0.45593999997E+02  0.45594000000E+02  0.51100000000E-03 0. -1.
    9900012    2    1    2    0    0  0.24159146422E+02 -0.22175275963E+02 -0.28429144149E+02  0.47787268936E+02  0.19999990385E+02 0.  0.
        -12    1    1    2    0    0 -0.24159146422E+02  0.22175275963E+02  0.28429144149E+02  0.43400731064E+02  0.00000000000E+00 0.  1.
         11    1    3    3    0    0 -0.13836581755E+01  0.45283258470E+00 -0.23625926005E+00  0.14749189793E+01  0.51100000000E-03 0.  1.
        -11    1    3    3    0    0  0.12829205473E+02 -0.97266174547E+01 -0.21807898986E+02  0.27106826790E+02  0.51100000000E-03 0. -1.
         12    1    3    3    0    0  0.12713599124E+02 -0.12901491093E+02 -0.63849859030E+01  0.19205523166E+02  0.00000000000E+00 0. -1.
</event>
<event>
 7    1  0.1322363E-009  0.4778725E+02  0.7816164E-02  0.1312668E+00
        -11   -1    0    0    0    0  0.00000000000E+00  0.00000000000E+00  0.45593999997E+02  0.45594000000E+02  0.51100000000E-03 0.  1.
         11   -1    0    0    0    0 -0.00000000000E+00 -0.00000000000E+00 -0.45593999997E+02  0.45594000000E+02  0.51100000000E-03 0. -1.
    9900012    2    1    2    0    0  0.21759039785E+02 -0.37215456706E+02 -0.50179023397E+01  0.47787246849E+02  0.19999889683E+02 0.  0.
        -12    1    1    2    0    0 -0.21759039785E+02  0.37215456706E+02  0.50179023397E+01  0.43400753151E+02  0.00000000000E+00 0.  1.
         11    1    3    3    0    0  0.88844716849E+01 -0.10514306388E+02 -0.42413721512E+01  0.14403947859E+02  0.51100000000E-03 0. -1.
        -11    1    3    3    0    0 -0.34046652971E+01 -0.71419895921E+01 -0.60705386911E+00  0.79352552435E+01  0.51100000000E-03 0.  1.
        -12    1    3    3    0    0  0.16279233397E+02 -0.19559160726E+02 -0.16947631941E+00  0.25448043747E+02  0.00000000000E+00 0.  1.
</event>
<event>
 7    1  0.1322363E-009  0.4778727E+02  0.7816164E-02  0.1312668E+00
        -11   -1    0    0    0    0  0.00000000000E+00  0.00000000000E+00  0.45593999997E+02  0.45594000000E+02  0.51100000000E-03 0. -1.
         11   -1    0    0    0    0 -0.00000000000E+00 -0.00000000000E+00 -0.45593999997E+02  0.45594000000E+02  0.51100000000E-03 0.  1.
    9900012    2    1    2    0    0  0.28898873313E+02 -0.25014277434E+02  0.20561239281E+02  0.47787268266E+02  0.19999987332E+02 0.  0.
        -12    1    1    2    0    0 -0.28898873313E+02  0.25014277434E+02 -0.20561239281E+02  0.43400731734E+02  0.00000000000E+00 0.  1.
         11    1    3    3    0    0  0.91382559819E+01 -0.40525783884E+01  0.11154113576E+02  0.14978162902E+02  0.51100000000E-03 0. -1.
        -11    1    3    3    0    0  0.18994625218E+01 -0.38097594548E+00 -0.24223955573E+01  0.31017899735E+01  0.51100000000E-03 0.  1.
        -12    1    3    3    0    0  0.17861154809E+02 -0.20580723100E+02  0.11829521262E+02  0.29707315391E+02  0.00000000000E+00 0.  1.
</event>
<event>
 7    1  0.1322363E-009  0.4778727E+02  0.7816164E-02  0.1312668E+00
        -11   -1    0    0    0    0  0.00000000000E+00  0.00000000000E+00  0.45593999997E+02  0.45594000000E+02  0.51100000000E-03 0.  1.
         11   -1    0    0    0    0 -0.00000000000E+00 -0.00000000000E+00 -0.45593999997E+02  0.45594000000E+02  0.51100000000E-03 0. -1.
    9900012    2    1    2    0    0 -0.16182952249E+02  0.24001942601E+02 -0.32336389179E+02  0.47787271236E+02  0.20000000873E+02 0.  0.
        -12    1    1    2    0    0  0.16182952249E+02 -0.24001942601E+02  0.32336389179E+02  0.43400728764E+02  0.00000000000E+00 0.  1.
         11    1    3    3    0    0 -0.34633986969E+01  0.43320477892E+01  0.27776936670E+00  0.55532805317E+01  0.51100000000E-03 0. -1.
        -11    1    3    3    0    0 -0.93910325696E+01  0.41977400914E+01 -0.17787385758E+02  0.20547593702E+02  0.51100000000E-03 0.  1.
         12    1    3    3    0    0 -0.33285209824E+01  0.15472154720E+02 -0.14826772788E+02  0.21686397002E+02  0.00000000000E+00 0. -1.
</event>
<event>
 7    1  0.1456431E-009  0.4778726E+02  0.7816164E-02  0.1312668E+00
        -11   -1    0    0    0    0  0.00000000000E+00  0.00000000000E+00  0.45593999997E+02  0.45594000000E+02  0.51100000000E-03 0.  1.
         11   -1    0    0    0    0 -0.00000000000E+00 -0.00000000000E+00 -0.45593999997E+02  0.45594000000E+02  0.51100000000E-03 0. -1.
    9900012    2    1    2    0    0 -0.39629548176E+02 -0.14607410522E+02  0.99873154182E+01  0.47787262678E+02  0.19999961856E+02 0.  0.
        -12    1    1    2    0    0  0.39629548176E+02  0.14607410522E+02 -0.99873154182E+01  0.43400737322E+02  0.00000000000E+00 0.  1.
         11    1    3    3    0    0 -0.25923819943E+02 -0.40509086126E+01  0.69138058514E+01  0.27134019471E+02  0.51100000000E-03 0. -1.
        -11    1    3    3    0    0  0.44394687782E+00  0.16192930235E+01 -0.23414153143E+00  0.16952938519E+01  0.51100000000E-03 0.  1.
         12    1    3    3    0    0 -0.14149675111E+02 -0.12175794933E+02  0.33076510982E+01  0.18957949355E+02  0.00000000000E+00 0. -1.
</event>
<event>
 7    1  0.1322363E-009  0.4778727E+02  0.7816164E-02  0.1312668E+00
        -11   -1    0    0    0    0  0.00000000000E+00  0.00000000000E+00  0.45593999997E+02  0.45594000000E+02  0.51100000000E-03 0. -1.
         11   -1    0    0    0    0 -0.00000000000E+00 -0.00000000000E+00 -0.45593999997E+02  0.45594000000E+02  0.51100000000E-03 0.  1.
    9900012    2    1    2    0    0 -0.42733178793E+02  0.72258581846E+01 -0.22990416103E+01  0.47787272027E+02  0.20000004480E+02 0.  0.
        -12    1    1    2    0    0  0.42733178793E+02 -0.72258581846E+01  0.22990416103E+01  0.43400727973E+02  0.00000000000E+00 0.  1.
         11    1    3    3    0    0 -0.10564933481E+02  0.51036461755E+01  0.59630626560E+01  0.13161426224E+02  0.51100000000E-03 0. -1.
        -11    1    3    3    0    0 -0.22766392544E+02  0.19504303972E+01 -0.12282301634E+01  0.22882774259E+02  0.51100000000E-03 0.  1.
        -12    1    3    3    0    0 -0.94018527682E+01  0.17178161195E+00 -0.70338741029E+01  0.11743071544E+02  0.00000000000E+00 0.  1.
</event>
<event>
 7    1  0.1322363E-009  0.4778727E+02  0.7816164E-02  0.1312668E+00
        -11   -1    0    0    0    0  0.00000000000E+00  0.00000000000E+00  0.45593999997E+02  0.45594000000E+02  0.51100000000E-03 0.  1.
         11   -1    0    0    0    0 -0.00000000000E+00 -0.00000000000E+00 -0.45593999997E+02  0.45594000000E+02  0.51100000000E-03 0. -1.
    9900012    2    1    2    0    0  0.31197862475E+02  0.29459848146E+02 -0.65141344328E+01  0.47787271628E+02  0.20000002660E+02 0.  0.
        -12    1    1    2    0    0 -0.31197862475E+02 -0.29459848146E+02  0.65141344328E+01  0.43400728372E+02  0.00000000000E+00 0.  1.
         11    1    3    3    0    0  0.22340385523E+02  0.22356178369E+02 -0.53506520508E+01  0.32054968635E+02  0.51100000000E-03 0. -1.
        -11    1    3    3    0    0 -0.52087941895E+00  0.39930378893E+01 -0.37671330949E+01  0.55142505357E+01  0.51100000000E-03 0.  1.
        -12    1    3    3    0    0  0.93783563716E+01  0.31106318876E+01  0.26036507130E+01  0.10218052457E+02  0.00000000000E+00 0.  1.
</event>
<event>
 7    1  0.1322363E-009  0.4778728E+02  0.7816164E-02  0.1312668E+00
        -11   -1    0    0    0    0  0.00000000000E+00  0.00000000000E+00  0.45593999997E+02  0.45594000000E+02  0.51100000000E-03 0.  1.
         11   -1    0    0    0    0 -0.00000000000E+00 -0.00000000000E+00 -0.45593999997E+02  0.45594000000E+02  0.51100000000E-03 0. -1.
    9900012    2    1    2    0    0  0.41282398636E+02 -0.13084379864E+02  0.28609241320E+01  0.47787282028E+02  0.20000050079E+02 0.  0.
        -12    1    1    2    0    0 -0.41282398636E+02  0.13084379864E+02 -0.28609241320E+01  0.43400717972E+02  0.00000000000E+00 0.  1.
         11    1    3    3    0    0  0.68011603109E+01 -0.13757548308E+00  0.12917521390E+01  0.69241123935E+01  0.51100000000E-03 0. -1.
        -11    1    3    3    0    0  0.22661136718E+02 -0.50667822484E+01 -0.70247850754E+01  0.24259987744E+02  0.51100000000E-03 0.  1.
         12    1    3    3    0    0  0.11820101607E+02 -0.78800221325E+01  0.85939570683E+01  0.16603181891E+02  0.00000000000E+00 0. -1.
</event>
<event>
 7    1  0.1322363E-009  0.4778727E+02  0.7816164E-02  0.1312668E+00
        -11   -1    0    0    0    0  0.00000000000E+00  0.00000000000E+00  0.45593999997E+02  0.45594000000E+02  0.51100000000E-03 0.  1.
         11   -1    0    0    0    0 -0.00000000000E+00 -0.00000000000E+00 -0.45593999997E+02  0.45594000000E+02  0.51100000000E-03 0. -1.
    9900012    2    1    2    0    0  0.21421827025E+02 -0.34898745381E+01 -0.37583896350E+02  0.47787272330E+02  0.20000005863E+02 0.  0.
        -12    1    1    2    0    0 -0.21421827025E+02  0.34898745381E+01  0.37583896350E+02  0.43400727670E+02  0.00000000000E+00 0.  1.
         11    1    3    3    0    0  0.49694709651E+01 -0.48696057946E+01 -0.19989787688E+02  0.21166017914E+02  0.51100000000E-03 0. -1.
        -11    1    3    3    0    0  0.17025093106E+01  0.44678040067E+01 -0.55832791861E+01  0.73507018255E+01  0.51100000000E-03 0.  1.
        -12    1    3    3    0    0  0.14749846749E+02 -0.30880727502E+01 -0.12010829476E+02  0.19270552590E+02  0.00000000000E+00 0.  1.
</event>
<event>
 7    1  0.1322363E-009  0.4778727E+02  0.7816164E-02  0.1312668E+00
        -11   -1    0    0    0    0  0.00000000000E+00  0.00000000000E+00  0.45593999997E+02  0.45594000000E+02  0.51100000000E-03 0. -1.
         11   -1    0    0    0    0 -0.00000000000E+00 -0.00000000000E+00 -0.45593999997E+02  0.45594000000E+02  0.51100000000E-03 0.  1.
    9900012    2    1    2    0    0  0.25173734192E+02 -0.11453745986E+01  0.35335454137E+02  0.47787273103E+02  0.20000009384E+02 0.  0.
        -12    1    1    2    0    0 -0.25173734192E+02  0.11453745986E+01 -0.35335454137E+02  0.43400726897E+02  0.00000000000E+00 0.  1.
         11    1    3    3    0    0  0.16162738488E+02 -0.64439655602E+01  0.18446389105E+02  0.25357998321E+02  0.51100000000E-03 0.  1.
        -11    1    3    3    0    0  0.90486824931E+01  0.42110518345E+01  0.63395161078E+01  0.11823750554E+02  0.51100000000E-03 0. -1.
        -12    1    3    3    0    0 -0.37686788434E-01  0.10875391271E+01  0.10549548924E+02  0.10605524228E+02  0.00000000000E+00 0.  1.
</event>
<event>
 7    1  0.1322363E-009  0.4778727E+02  0.7816164E-02  0.1312668E+00
        -11   -1    0    0    0    0  0.00000000000E+00  0.00000000000E+00  0.45593999997E+02  0.45594000000E+02  0.51100000000E-03 0.  1.
         11   -1    0    0    0    0 -0.00000000000E+00 -0.00000000000E+00 -0.45593999997E+02  0.45594000000E+02  0.51100000000E-03 0. -1.
    9900012    2    1    2    0    0 -0.35101692790E+02 -0.25018112571E+02  0.50585120885E+01  0.47787270307E+02  0.19999996639E+02 0.  0.
        -12    1    1    2    0    0  0.35101692790E+02  0.25018112571E+02 -0.50585120885E+01  0.43400729693E+02  0.00000000000E+00 0.  1.
         11    1    3    3    0    0  0.20454375246E+00  0.99165075759E+00  0.24038872769E+01  0.26084255161E+01  0.51100000000E-03 0. -1.
        -11    1    3    3    0    0 -0.33994207925E+01 -0.14300481763E+00  0.22921732307E+01  0.41025078285E+01  0.51100000000E-03 0.  1.
         12    1    3    3    0    0 -0.31906815750E+02 -0.25866758511E+02  0.36245158087E+00  0.41076336963E+02  0.00000000000E+00 0. -1.
</event>
<event>
 7    1  0.1322363E-009  0.4778727E+02  0.7816164E-02  0.1312668E+00
        -11   -1    0    0    0    0  0.00000000000E+00  0.00000000000E+00  0.45593999997E+02  0.45594000000E+02  0.51100000000E-03 0.  1.
         11   -1    0    0    0    0 -0.00000000000E+00 -0.00000000000E+00 -0.45593999997E+02  0.45594000000E+02  0.51100000000E-03 0. -1.
    9900012    2    1    2    0    0 -0.37393085080E+02  0.10285882114E+02 -0.19482849399E+02  0.47787267248E+02  0.19999982692E+02 0.  0.
        -12    1    1    2    0    0  0.37393085080E+02 -0.10285882114E+02  0.19482849399E+02  0.43400732752E+02  0.00000000000E+00 0.  1.
         11    1    3    3    0    0 -0.14065474282E+02  0.95680233436E+01 -0.58530773174E+01  0.17990084820E+02  0.51100000000E-03 0. -1.
        -11    1    3    3    0    0  0.13230150771E+01 -0.91513056936E+00 -0.17747712862E+01  0.23953384380E+01  0.51100000000E-03 0.  1.
        -12    1    3    3    0    0 -0.24650625875E+02  0.16329893394E+01 -0.11855000796E+02  0.27401843990E+02  0.00000000000E+00 0.  1.
</event>
<event>
 7    1  0.1322363E-009  0.4778727E+02  0.7816164E-02  0.1312668E+00
        -11   -1    0    0    0    0  0.00000000000E+00  0.00000000000E+00  0.45593999997E+02  0.45594000000E+02  0.51100000000E-03 0. -1.
         11   -1    0    0    0    0 -0.00000000000E+00 -0.00000000000E+00 -0.45593999997E+02  0.45594000000E+02  0.51100000000E-03 0.  1.
    9900012    2    1    2    0    0 -0.42981698016E+02  0.56117893224E+01  0.21690235214E+01  0.47787271818E+02  0.20000003527E+02 0.  0.
        -12    1    1    2    0    0  0.42981698016E+02 -0.56117893224E+01 -0.21690235214E+01  0.43400728182E+02  0.00000000000E+00 0.  1.
         11    1    3    3    0    0 -0.18299513048E+02  0.42418896215E+01 -0.10418087967E+01  0.18813590067E+02  0.51100000000E-03 0. -1.
        -11    1    3    3    0    0 -0.47916184174E+01  0.45924119579E+01  0.55983362048E+01  0.86828119392E+01  0.51100000000E-03 0.  1.
        -12    1    3    3    0    0 -0.19890566550E+02 -0.32225122571E+01 -0.23875038867E+01  0.20290869812E+02  0.00000000000E+00 0.  1.
</event>
<event>
 7    1  0.1322363E-009  0.4778728E+02  0.7816164E-02  0.1312668E+00
        -11   -1    0    0    0    0  0.00000000000E+00  0.00000000000E+00  0.45593999997E+02  0.45594000000E+02  0.51100000000E-03 0. -1.
         11   -1    0    0    0    0 -0.00000000000E+00 -0.00000000000E+00 -0.45593999997E+02  0.45594000000E+02  0.51100000000E-03 0.  1.
    9900012    2    1    2    0    0 -0.81616106785E+00 -0.26925408751E+02  0.34029091017E+02  0.47787276611E+02  0.20000025378E+02 0.  0.
        -12    1    1    2    0    0  0.81616106785E+00  0.26925408751E+02 -0.34029091017E+02  0.43400723389E+02  0.00000000000E+00 0.  1.
         11    1    3    3    0    0  0.54039899568E+01 -0.15896630401E+02  0.20452401800E+02  0.26461419184E+02  0.51100000000E-03 0. -1.
        -11    1    3    3    0    0  0.36973229496E+00  0.29178421643E+00 -0.13717195309E+01  0.14503291804E+01  0.51100000000E-03 0.  1.
         12    1    3    3    0    0 -0.65898833196E+01 -0.11320562566E+02  0.14948408748E+02  0.19875528246E+02  0.00000000000E+00 0. -1.
</event>
<event>
 7    1  0.1322363E-009  0.4778727E+02  0.7816164E-02  0.1312668E+00
        -11   -1    0    0    0    0  0.00000000000E+00  0.00000000000E+00  0.45593999997E+02  0.45594000000E+02  0.51100000000E-03 0.  1.
         11   -1    0    0    0    0 -0.00000000000E+00 -0.00000000000E+00 -0.45593999997E+02  0.45594000000E+02  0.51100000000E-03 0. -1.
    9900012    2    1    2    0    0 -0.64342229001E+01 -0.82103011351E+01 -0.42128554262E+02  0.47787270130E+02  0.19999995830E+02 0.  0.
        -12    1    1    2    0    0  0.64342229001E+01  0.82103011351E+01  0.42128554262E+02  0.43400729870E+02  0.00000000000E+00 0.  1.
         11    1    3    3    0    0 -0.88676387343E+01 -0.14462833417E+01 -0.35645026850E+02  0.36759960441E+02  0.51100000000E-03 0. -1.
        -11    1    3    3    0    0 -0.63146739809E+00  0.64407280091E+00 -0.60911167804E+00  0.10883924592E+01  0.51100000000E-03 0.  1.
        -12    1    3    3    0    0  0.30648832323E+01 -0.74080905943E+01 -0.58744157340E+01  0.99389172296E+01  0.00000000000E+00 0.  1.
</event>
<event>
 7    1  0.1322363E-009  0.4778727E+02  0.7816164E-02  0.1312668E+00
        -11   -1    0    0    0    0  0.00000000000E+00  0.00000000000E+00  0.45593999997E+02  0.45594000000E+02  0.51100000000E-03 0.  1.
         11   -1    0    0    0    0 -0.00000000000E+00 -0.00000000000E+00 -0.45593999997E+02  0.45594000000E+02  0.51100000000E-03 0. -1.
    9900012    2    1    2    0    0  0.95211001815E+01 -0.37069481404E+02 -0.20465226390E+02  0.47787270843E+02  0.19999999080E+02 0.  0.
        -12    1    1    2    0    0 -0.95211001815E+01  0.37069481404E+02  0.20465226390E+02  0.43400729157E+02  0.00000000000E+00 0.  1.
         11    1    3    3    0    0  0.14413879620E+01  0.19096138668E+00  0.23798248361E+01  0.27888406229E+01  0.51100000000E-03 0. -1.
        -11    1    3    3    0    0  0.58723874498E+00 -0.90842510813E+01 -0.87035945748E+01  0.12594483945E+02  0.51100000000E-03 0.  1.
         12    1    3    3    0    0  0.74924734745E+01 -0.28176191709E+02 -0.14141456651E+02  0.32403946275E+02  0.00000000000E+00 0. -1.
</event>
<event>
 7    1  0.1322363E-009  0.4778724E+02  0.7816164E-02  0.1312668E+00
        -11   -1    0    0    0    0  0.00000000000E+00  0.00000000000E+00  0.45593999997E+02  0.45594000000E+02  0.51100000000E-03 0.  1.
         11   -1    0    0    0    0 -0.00000000000E+00 -0.00000000000E+00 -0.45593999997E+02  0.45594000000E+02  0.51100000000E-03 0. -1.
    9900012    2    1    2    0    0 -0.46735313491E+01 -0.31828641541E+02 -0.29132825951E+02  0.47787241187E+02  0.19999863870E+02 0.  0.
        -12    1    1    2    0    0  0.46735313491E+01  0.31828641541E+02  0.29132825951E+02  0.43400758813E+02  0.00000000000E+00 0.  1.
         11    1    3    3    0    0 -0.14621618796E+01 -0.12218167957E+01 -0.53562852034E+01  0.56851161014E+01  0.51100000000E-03 0. -1.
        -11    1    3    3    0    0 -0.24289046504E+01 -0.32550694648E+02 -0.22107348755E+02  0.39423117192E+02  0.51100000000E-03 0.  1.
        -12    1    3    3    0    0 -0.78246481907E+00  0.19438699026E+01 -0.16691919922E+01  0.26790078944E+01  0.00000000000E+00 0.  1.
</event>
<event>
 7    1  0.1322363E-009  0.4778727E+02  0.7816164E-02  0.1312668E+00
        -11   -1    0    0    0    0  0.00000000000E+00  0.00000000000E+00  0.45593999997E+02  0.45594000000E+02  0.51100000000E-03 0.  1.
         11   -1    0    0    0    0 -0.00000000000E+00 -0.00000000000E+00 -0.45593999997E+02  0.45594000000E+02  0.51100000000E-03 0. -1.
    9900012    2    1    2    0    0  0.11982801885E+02  0.33280592803E+02 -0.25148314266E+02  0.47787272946E+02  0.20000008671E+02 0.  0.
        -12    1    1    2    0    0 -0.11982801885E+02 -0.33280592803E+02  0.25148314266E+02  0.43400727054E+02  0.00000000000E+00 0.  1.
         11    1    3    3    0    0 -0.26083899820E+00  0.28128188303E+01 -0.84797916013E+01  0.89379445410E+01  0.51100000000E-03 0. -1.
        -11    1    3    3    0    0  0.13656723224E+02  0.18454210073E+02 -0.11764652767E+02  0.25796724862E+02  0.51100000000E-03 0.  1.
         12    1    3    3    0    0 -0.14130823404E+01  0.12013563899E+02 -0.49038698983E+01  0.13052603543E+02  0.00000000000E+00 0. -1.
</event>
<event>
 7    1  0.1322363E-009  0.4778727E+02  0.7816164E-02  0.1312668E+00
        -11   -1    0    0    0    0  0.00000000000E+00  0.00000000000E+00  0.45593999997E+02  0.45594000000E+02  0.51100000000E-03 0.  1.
         11   -1    0    0    0    0 -0.00000000000E+00 -0.00000000000E+00 -0.45593999997E+02  0.45594000000E+02  0.51100000000E-03 0. -1.
    9900012    2    1    2    0    0  0.63483805954E+01  0.23637204817E+02 -0.35841373127E+02  0.47787269415E+02  0.19999992569E+02 0.  0.
        -12    1    1    2    0    0 -0.63483805954E+01 -0.23637204817E+02  0.35841373127E+02  0.43400730585E+02  0.00000000000E+00 0.  1.
         11    1    3    3    0    0  0.86643673898E+00  0.31865194076E+01 -0.12622169673E+02  0.13046983793E+02  0.51100000000E-03 0. -1.
        -11    1    3    3    0    0  0.60544671573E+01  0.18643502038E+02 -0.25247759495E+02  0.31963824874E+02  0.51100000000E-03 0.  1.
        -12    1    3    3    0    0 -0.57252330081E+00  0.18071833711E+01  0.20285560421E+01  0.27764607475E+01  0.00000000000E+00 0.  1.
</event>
<event>
 7    1  0.1322363E-009  0.4778727E+02  0.7816164E-02  0.1312668E+00
        -11   -1    0    0    0    0  0.00000000000E+00  0.00000000000E+00  0.45593999997E+02  0.45594000000E+02  0.51100000000E-03 0. -1.
         11   -1    0    0    0    0 -0.00000000000E+00 -0.00000000000E+00 -0.45593999997E+02  0.45594000000E+02  0.51100000000E-03 0.  1.
    9900012    2    1    2    0    0 -0.16811828175E+02  0.38946245026E+02 -0.91747365697E+01  0.47787270060E+02  0.19999995510E+02 0.  0.
        -12    1    1    2    0    0  0.16811828175E+02 -0.38946245026E+02  0.91747365697E+01  0.43400729940E+02  0.00000000000E+00 0.  1.
         11    1    3    3    0    0 -0.15160859199E+02  0.33945390678E+02 -0.24720441000E+01  0.37259256598E+02  0.51100000000E-03 0. -1.
        -11    1    3    3    0    0  0.18844726779E+01  0.17800490800E+01 -0.41050650318E+00  0.26245624114E+01  0.51100000000E-03 0.  1.
        -12    1    3    3    0    0 -0.35354416547E+01  0.32208052675E+01 -0.62921859665E+01  0.79034510502E+01  0.00000000000E+00 0.  1.
</event>
<event>
 7    1  0.1322363E-009  0.4778727E+02  0.7816164E-02  0.1312668E+00
        -11   -1    0    0    0    0  0.00000000000E+00  0.00000000000E+00  0.45593999997E+02  0.45594000000E+02  0.51100000000E-03 0.  1.
         11   -1    0    0    0    0 -0.00000000000E+00 -0.00000000000E+00 -0.45593999997E+02  0.45594000000E+02  0.51100000000E-03 0. -1.
    9900012    2    1    2    0    0 -0.60077296569E+01  0.39173663681E+02  0.17690517053E+02  0.47787272639E+02  0.20000007271E+02 0.  0.
        -12    1    1    2    0    0  0.60077296569E+01 -0.39173663681E+02 -0.17690517053E+02  0.43400727361E+02  0.00000000000E+00 0.  1.
         11    1    3    3    0    0 -0.71493326526E+00 -0.55544295455E+00 -0.14511956715E+01  0.17104430969E+01  0.51100000000E-03 0.  1.
        -11    1    3    3    0    0  0.16208163974E+00  0.13215280956E+02  0.12530187161E+02  0.18211960679E+02  0.51100000000E-03 0. -1.
         12    1    3    3    0    0 -0.54548780314E+01  0.26513825680E+02  0.66115255638E+01  0.27864868864E+02  0.00000000000E+00 0. -1.
</event>
<event>
 7    1  0.1322363E-009  0.4778727E+02  0.7816164E-02  0.1312668E+00
        -11   -1    0    0    0    0  0.00000000000E+00  0.00000000000E+00  0.45593999997E+02  0.45594000000E+02  0.51100000000E-03 0. -1.
         11   -1    0    0    0    0 -0.00000000000E+00 -0.00000000000E+00 -0.45593999997E+02  0.45594000000E+02  0.51100000000E-03 0.  1.
    9900012    2    1    2    0    0 -0.24761298735E+02  0.35447515760E+02  0.37383197157E+01  0.47787270480E+02  0.19999997424E+02 0.  0.
        -12    1    1    2    0    0  0.24761298735E+02 -0.35447515760E+02 -0.37383197157E+01  0.43400729520E+02  0.00000000000E+00 0.  1.
         11    1    3    3    0    0 -0.74647761508E+01  0.73720749875E+01 -0.33255185653E+01  0.11005882363E+02  0.51100000000E-03 0. -1.
        -11    1    3    3    0    0 -0.12770251759E+02  0.10280567167E+02 -0.16122666453E+01  0.16473275183E+02  0.51100000000E-03 0.  1.
         12    1    3    3    0    0 -0.45262708256E+01  0.17794873605E+02  0.86761049263E+01  0.20308112933E+02  0.00000000000E+00 0. -1.
</event>
<event>
 7    1  0.1322363E-009  0.4778727E+02  0.7816164E-02  0.1312668E+00
        -11   -1    0    0    0    0  0.00000000000E+00  0.00000000000E+00  0.45593999997E+02  0.45594000000E+02  0.51100000000E-03 0. -1.
         11   -1    0    0    0    0 -0.00000000000E+00 -0.00000000000E+00 -0.45593999997E+02  0.45594000000E+02  0.51100000000E-03 0.  1.
    9900012    2    1    2    0    0  0.12017558174E+02  0.41367583945E+02 -0.52843465243E+01  0.47787273923E+02  0.20000013122E+02 0.  0.
        -12    1    1    2    0    0 -0.12017558174E+02 -0.41367583945E+02  0.52843465243E+01  0.43400726077E+02  0.00000000000E+00 0.  1.
         11    1    3    3    0    0  0.89750352079E+01  0.21510877113E+02 -0.39115607256E+01  0.23634072834E+02  0.51100000000E-03 0. -1.
        -11    1    3    3    0    0  0.78477306098E+01  0.16389587259E+02 -0.14270475881E+01  0.18227504254E+02  0.51100000000E-03 0.  1.
        -12    1    3    3    0    0 -0.48052076442E+01  0.34671195725E+01  0.54261789357E-01  0.59256968346E+01  0.00000000000E+00 0.  1.
</event>
<event>
 7    1  0.1322363E-009  0.4778725E+02  0.7816164E-02  0.1312668E+00
        -11   -1    0    0    0    0  0.00000000000E+00  0.00000000000E+00  0.45593999997E+02  0.45594000000E+02  0.51100000000E-03 0.  1.
         11   -1    0    0    0    0 -0.00000000000E+00 -0.00000000000E+00 -0.45593999997E+02  0.45594000000E+02  0.51100000000E-03 0. -1.
    9900012    2    1    2    0    0  0.27142268019E+02  0.33670976674E+02  0.36315282937E+01  0.47787246768E+02  0.19999889312E+02 0.  0.
        -12    1    1    2    0    0 -0.27142268019E+02 -0.33670976674E+02 -0.36315282937E+01  0.43400753232E+02  0.00000000000E+00 0.  1.
         11    1    3    3    0    0  0.20077924389E+01 -0.10360110439E+00 -0.99793831500E+00  0.22445143814E+01  0.51100000000E-03 0. -1.
        -11    1    3    3    0    0  0.18579670182E+02  0.32955862596E+02  0.70948105016E+01  0.38491938894E+02  0.51100000000E-03 0.  1.
        -12    1    3    3    0    0  0.65548053980E+01  0.81871518195E+00 -0.24653438929E+01  0.70507934919E+01  0.00000000000E+00 0.  1.
</event>
<event>
 7    1  0.1322363E-009  0.4778727E+02  0.7816164E-02  0.1312668E+00
        -11   -1    0    0    0    0  0.00000000000E+00  0.00000000000E+00  0.45593999997E+02  0.45594000000E+02  0.51100000000E-03 0. -1.
         11   -1    0    0    0    0 -0.00000000000E+00 -0.00000000000E+00 -0.45593999997E+02  0.45594000000E+02  0.51100000000E-03 0.  1.
    9900012    2    1    2    0    0  0.11192676438E+02  0.31089505817E+02  0.28138762234E+02  0.47787270538E+02  0.19999997690E+02 0.  0.
        -12    1    1    2    0    0 -0.11192676438E+02 -0.31089505817E+02 -0.28138762234E+02  0.43400729462E+02  0.00000000000E+00 0.  1.
         11    1    3    3    0    0 -0.26228387362E+01  0.20159640971E+02  0.18580510016E+02  0.27541346369E+02  0.51100000000E-03 0. -1.
        -11    1    3    3    0    0  0.51515043721E+01  0.54702946033E+01  0.30340602528E+01  0.81035573806E+01  0.51100000000E-03 0.  1.
         12    1    3    3    0    0  0.86640108021E+01  0.54595702426E+01  0.65241919650E+01  0.12142366788E+02  0.00000000000E+00 0. -1.
</event>
<event>
 7    1  0.1322363E-009  0.4778727E+02  0.7816164E-02  0.1312668E+00
        -11   -1    0    0    0    0  0.00000000000E+00  0.00000000000E+00  0.45593999997E+02  0.45594000000E+02  0.51100000000E-03 0.  1.
         11   -1    0    0    0    0 -0.00000000000E+00 -0.00000000000E+00 -0.45593999997E+02  0.45594000000E+02  0.51100000000E-03 0. -1.
    9900012    2    1    2    0    0  0.37664873814E+02 -0.10618163192E+02 -0.18767927621E+02  0.47787271709E+02  0.20000003031E+02 0.  0.
        -12    1    1    2    0    0 -0.37664873814E+02  0.10618163192E+02  0.18767927621E+02  0.43400728291E+02  0.00000000000E+00 0.  1.
         11    1    3    3    0    0  0.32343995604E+02 -0.13812443784E+02 -0.20334648051E+02  0.40625306972E+02  0.51100000000E-03 0. -1.
        -11    1    3    3    0    0 -0.20951886252E+00  0.10215935745E+01  0.15065633342E+00  0.10536836229E+01  0.51100000000E-03 0.  1.
         12    1    3    3    0    0  0.55303970721E+01  0.21726870175E+01  0.14160640964E+01  0.61082811147E+01  0.00000000000E+00 0. -1.
</event>
<event>
 7    1  0.1322363E-009  0.4778726E+02  0.7816164E-02  0.1312668E+00
        -11   -1    0    0    0    0  0.00000000000E+00  0.00000000000E+00  0.45593999997E+02  0.45594000000E+02  0.51100000000E-03 0.  1.
         11   -1    0    0    0    0 -0.00000000000E+00 -0.00000000000E+00 -0.45593999997E+02  0.45594000000E+02  0.51100000000E-03 0. -1.
    9900012    2    1    2    0    0  0.23714191370E+02 -0.30141011722E+02 -0.20317002949E+02  0.47787261887E+02  0.19999958246E+02 0.  0.
        -12    1    1    2    0    0 -0.23714191370E+02  0.30141011722E+02  0.20317002949E+02  0.43400738113E+02  0.00000000000E+00 0.  1.
         11    1    3    3    0    0  0.13481443499E+02 -0.14142725975E+02 -0.12224464666E+02  0.23047853554E+02  0.51100000000E-03 0. -1.
        -11    1    3    3    0    0 -0.15120597283E+01 -0.54793677349E+01 -0.68826123543E+01  0.89263737585E+01  0.51100000000E-03 0.  1.
        -12    1    3    3    0    0  0.11744807600E+02 -0.10518918012E+02 -0.12099259293E+01  0.15813034574E+02  0.00000000000E+00 0.  1.
</event>
<event>
 7    1  0.1322363E-009  0.4778727E+02  0.7816164E-02  0.1312668E+00
        -11   -1    0    0    0    0  0.00000000000E+00  0.00000000000E+00  0.45593999997E+02  0.45594000000E+02  0.51100000000E-03 0.  1.
         11   -1    0    0    0    0 -0.00000000000E+00 -0.00000000000E+00 -0.45593999997E+02  0.45594000000E+02  0.51100000000E-03 0. -1.
    9900012    2    1    2    0    0 -0.13598353013E+02 -0.13509571783E+02 -0.38938408766E+02  0.47787269457E+02  0.19999992764E+02 0.  0.
        -12    1    1    2    0    0  0.13598353013E+02  0.13509571783E+02  0.38938408766E+02  0.43400730543E+02  0.00000000000E+00 0.  1.
         11    1    3    3    0    0 -0.56680949033E+01 -0.75562284300E+01 -0.15228794500E+02  0.17920381416E+02  0.51100000000E-03 0. -1.
        -11    1    3    3    0    0  0.32013753990E+01 -0.41483097880E+01 -0.24131186171E+01  0.57689184657E+01  0.51100000000E-03 0.  1.
        -12    1    3    3    0    0 -0.11131633509E+02 -0.18050335650E+01 -0.21296495649E+02  0.24097969576E+02  0.00000000000E+00 0.  1.
</event>
<event>
 7    1  0.1322363E-009  0.4778727E+02  0.7816164E-02  0.1312668E+00
        -11   -1    0    0    0    0  0.00000000000E+00  0.00000000000E+00  0.45593999997E+02  0.45594000000E+02  0.51100000000E-03 0.  1.
         11   -1    0    0    0    0 -0.00000000000E+00 -0.00000000000E+00 -0.45593999997E+02  0.45594000000E+02  0.51100000000E-03 0. -1.
    9900012    2    1    2    0    0 -0.41730810467E+02 -0.11841898788E+02 -0.13899611392E+01  0.47787273035E+02  0.20000009075E+02 0.  0.
        -12    1    1    2    0    0  0.41730810467E+02  0.11841898788E+02  0.13899611392E+01  0.43400726965E+02  0.00000000000E+00 0.  1.
         11    1    3    3    0    0 -0.50390372057E+01  0.51731699395E+00 -0.59377053526E+00  0.51002035785E+01  0.51100000000E-03 0. -1.
        -11    1    3    3    0    0  0.86967312103E+00  0.21607932430E+01  0.55390761929E+00  0.23941956245E+01  0.51100000000E-03 0.  1.
         12    1    3    3    0    0 -0.37561446382E+02 -0.14520009025E+02 -0.13500982233E+01  0.40292873832E+02  0.00000000000E+00 0. -1.
</event>
<event>
 7    1  0.1322363E-009  0.4778727E+02  0.7816164E-02  0.1312668E+00
        -11   -1    0    0    0    0  0.00000000000E+00  0.00000000000E+00  0.45593999997E+02  0.45594000000E+02  0.51100000000E-03 0. -1.
         11   -1    0    0    0    0 -0.00000000000E+00 -0.00000000000E+00 -0.45593999997E+02  0.45594000000E+02  0.51100000000E-03 0.  1.
    9900012    2    1    2    0    0  0.12871181189E+01 -0.36562026390E+02 -0.23349188245E+02  0.47787273756E+02  0.20000012365E+02 0.  0.
        -12    1    1    2    0    0 -0.12871181189E+01  0.36562026390E+02  0.23349188245E+02  0.43400726244E+02  0.00000000000E+00 0.  1.
         11    1    3    3    0    0 -0.86660002462E+00 -0.24819934432E+02 -0.93169016582E+01  0.26525172904E+02  0.51100000000E-03 0. -1.
        -11    1    3    3    0    0  0.54912765667E+01 -0.11156199159E+02 -0.97494118183E+01  0.15800820519E+02  0.51100000000E-03 0.  1.
        -12    1    3    3    0    0 -0.33375584232E+01 -0.58589279850E+00 -0.42828747683E+01  0.54612803335E+01  0.00000000000E+00 0.  1.
</event>
<event>
 7    1  0.1322363E-009  0.4778727E+02  0.7816164E-02  0.1312668E+00
        -11   -1    0    0    0    0  0.00000000000E+00  0.00000000000E+00  0.45593999997E+02  0.45594000000E+02  0.51100000000E-03 0. -1.
         11   -1    0    0    0    0 -0.00000000000E+00 -0.00000000000E+00 -0.45593999997E+02  0.45594000000E+02  0.51100000000E-03 0.  1.
    9900012    2    1    2    0    0  0.16619132300E+02 -0.22710987149E+02  0.33039955153E+02  0.47787272677E+02  0.20000007444E+02 0.  0.
        -12    1    1    2    0    0 -0.16619132300E+02  0.22710987149E+02 -0.33039955153E+02  0.43400727323E+02  0.00000000000E+00 0.  1.
         11    1    3    3    0    0  0.12981893308E+02 -0.16393468421E+02  0.22219293297E+02  0.30511839597E+02  0.51100000000E-03 0. -1.
        -11    1    3    3    0    0 -0.94541608153E+00 -0.80748466187E+01  0.45642110820E+01  0.93235713407E+01  0.51100000000E-03 0.  1.
        -12    1    3    3    0    0  0.45826550733E+01  0.17573278907E+01  0.62564507732E+01  0.79518617389E+01  0.00000000000E+00 0.  1.
</event>
<event>
 7    1  0.1322363E-009  0.4778727E+02  0.7816164E-02  0.1312668E+00
        -11   -1    0    0    0    0  0.00000000000E+00  0.00000000000E+00  0.45593999997E+02  0.45594000000E+02  0.51100000000E-03 0. -1.
         11   -1    0    0    0    0 -0.00000000000E+00 -0.00000000000E+00 -0.45593999997E+02  0.45594000000E+02  0.51100000000E-03 0.  1.
    9900012    2    1    2    0    0  0.77405475471E+01  0.15083278441E+02  0.39952494646E+02  0.47787271973E+02  0.20000004234E+02 0.  0.
        -12    1    1    2    0    0 -0.77405475471E+01 -0.15083278441E+02 -0.39952494646E+02  0.43400728027E+02  0.00000000000E+00 0.  1.
         11    1    3    3    0    0  0.30727377525E+01 -0.28466455779E+01  0.39247450805E+01  0.57400986533E+01  0.51100000000E-03 0. -1.
        -11    1    3    3    0    0  0.81426106211E+01  0.10523187981E+02  0.24945277544E+02  0.28272008507E+02  0.51100000000E-03 0.  1.
        -12    1    3    3    0    0 -0.34748008265E+01  0.74067360378E+01  0.11082472022E+02  0.13775164813E+02  0.00000000000E+00 0.  1.
</event>
<event>
 7    1  0.1322363E-009  0.4778727E+02  0.7816164E-02  0.1312668E+00
        -11   -1    0    0    0    0  0.00000000000E+00  0.00000000000E+00  0.45593999997E+02  0.45594000000E+02  0.51100000000E-03 0.  1.
         11   -1    0    0    0    0 -0.00000000000E+00 -0.00000000000E+00 -0.45593999997E+02  0.45594000000E+02  0.51100000000E-03 0. -1.
    9900012    2    1    2    0    0  0.21738321568E+02 -0.74879368801E+01 -0.36810320406E+02  0.47787268305E+02  0.19999987510E+02 0.  0.
        -12    1    1    2    0    0 -0.21738321568E+02  0.74879368801E+01  0.36810320406E+02  0.43400731695E+02  0.00000000000E+00 0.  1.
         11    1    3    3    0    0  0.20789432989E+02 -0.11360927455E+02 -0.28615996044E+02  0.37150322024E+02  0.51100000000E-03 0. -1.
        -11    1    3    3    0    0  0.14254009542E+01 -0.10732041500E+01 -0.17489434955E+01  0.24984672580E+01  0.51100000000E-03 0.  1.
        -12    1    3    3    0    0 -0.47651237612E+00  0.49461947245E+01 -0.64453808665E+01  0.81384790232E+01  0.00000000000E+00 0.  1.
</event>
<event>
 7    1  0.1322363E-009  0.4778727E+02  0.7816164E-02  0.1312668E+00
        -11   -1    0    0    0    0  0.00000000000E+00  0.00000000000E+00  0.45593999997E+02  0.45594000000E+02  0.51100000000E-03 0.  1.
         11   -1    0    0    0    0 -0.00000000000E+00 -0.00000000000E+00 -0.45593999997E+02  0.45594000000E+02  0.51100000000E-03 0. -1.
    9900012    2    1    2    0    0 -0.20191749558E+02  0.17420778189E+02 -0.34240808079E+02  0.47787271886E+02  0.20000003837E+02 0.  0.
        -12    1    1    2    0    0  0.20191749558E+02 -0.17420778189E+02  0.34240808079E+02  0.43400728114E+02  0.00000000000E+00 0.  1.
         11    1    3    3    0    0  0.18111348286E+01  0.32106873874E+00 -0.34721245816E+01  0.39292421500E+01  0.51100000000E-03 0.  1.
        -11    1    3    3    0    0 -0.15293316507E+02  0.13535772064E+02 -0.29902630726E+02  0.36211461994E+02  0.51100000000E-03 0. -1.
         12    1    3    3    0    0 -0.67095678799E+01  0.35639373864E+01 -0.86605277125E+00  0.76465677419E+01  0.00000000000E+00 0. -1.
</event>
<event>
 7    1  0.1322363E-009  0.4778727E+02  0.7816164E-02  0.1312668E+00
        -11   -1    0    0    0    0  0.00000000000E+00  0.00000000000E+00  0.45593999997E+02  0.45594000000E+02  0.51100000000E-03 0. -1.
         11   -1    0    0    0    0 -0.00000000000E+00 -0.00000000000E+00 -0.45593999997E+02  0.45594000000E+02  0.51100000000E-03 0.  1.
    9900012    2    1    2    0    0 -0.74157856071E+01 -0.41554702185E+02 -0.10091386124E+02  0.47787271622E+02  0.20000002632E+02 0.  0.
        -12    1    1    2    0    0  0.74157856071E+01  0.41554702185E+02  0.10091386124E+02  0.43400728378E+02  0.00000000000E+00 0.  1.
         11    1    3    3    0    0  0.21058721643E+01 -0.17047957520E+02 -0.11584406412E+02  0.20718736095E+02  0.51100000000E-03 0. -1.
        -11    1    3    3    0    0 -0.42668165278E+01 -0.17130249468E+02 -0.97786794360E+00  0.17680706889E+02  0.51100000000E-03 0.  1.
        -12    1    3    3    0    0 -0.52548412436E+01 -0.73764951968E+01  0.24708882316E+01  0.93878286380E+01  0.00000000000E+00 0.  1.
</event>
<event>
 7    1  0.1322363E-009  0.4778727E+02  0.7816164E-02  0.1312668E+00
        -11   -1    0    0    0    0  0.00000000000E+00  0.00000000000E+00  0.45593999997E+02  0.45594000000E+02  0.51100000000E-03 0. -1.
         11   -1    0    0    0    0 -0.00000000000E+00 -0.00000000000E+00 -0.45593999997E+02  0.45594000000E+02  0.51100000000E-03 0.  1.
    9900012    2    1    2    0    0  0.49376022089E+01 -0.14841206506E+02  0.40484338424E+02  0.47787274387E+02  0.20000015238E+02 0.  0.
        -12    1    1    2    0    0 -0.49376022089E+01  0.14841206506E+02 -0.40484338424E+02  0.43400725613E+02  0.00000000000E+00 0.  1.
         11    1    3    3    0    0  0.76579790582E+01 -0.60071604995E+01  0.23615463045E+02  0.25542527589E+02  0.51100000000E-03 0. -1.
        -11    1    3    3    0    0  0.17258194345E+01 -0.66026526838E+01  0.15722387116E+02  0.17139630453E+02  0.51100000000E-03 0.  1.
        -12    1    3    3    0    0 -0.44461962838E+01 -0.22313933228E+01  0.11464882630E+01  0.51051163446E+01  0.00000000000E+00 0.  1.
</event>
<event>
 7    1  0.1322363E-009  0.4778727E+02  0.7816164E-02  0.1312668E+00
        -11   -1    0    0    0    0  0.00000000000E+00  0.00000000000E+00  0.45593999997E+02  0.45594000000E+02  0.51100000000E-03 0.  1.
         11   -1    0    0    0    0 -0.00000000000E+00 -0.00000000000E+00 -0.45593999997E+02  0.45594000000E+02  0.51100000000E-03 0. -1.
    9900012    2    1    2    0    0 -0.36037591903E+02  0.23950443839E+02  0.33602996974E+01  0.47787269542E+02  0.19999993148E+02 0.  0.
        -12    1    1    2    0    0  0.36037591903E+02 -0.23950443839E+02 -0.33602996974E+01  0.43400730458E+02  0.00000000000E+00 0.  1.
         11    1    3    3    0    0 -0.26023089983E+02  0.11199920437E+02  0.77123783125E+01  0.29361883617E+02  0.51100000000E-03 0. -1.
        -11    1    3    3    0    0 -0.13575425122E+01  0.70292738576E+01  0.35422380288E-01  0.71592504946E+01  0.51100000000E-03 0.  1.
        -12    1    3    3    0    0 -0.86569594078E+01  0.57212495443E+01 -0.43875009954E+01  0.11266135430E+02  0.00000000000E+00 0.  1.
</event>
<event>
 7    1  0.1322363E-009  0.4778727E+02  0.7816164E-02  0.1312668E+00
        -11   -1    0    0    0    0  0.00000000000E+00  0.00000000000E+00  0.45593999997E+02  0.45594000000E+02  0.51100000000E-03 0.  1.
         11   -1    0    0    0    0 -0.00000000000E+00 -0.00000000000E+00 -0.45593999997E+02  0.45594000000E+02  0.51100000000E-03 0. -1.
    9900012    2    1    2    0    0 -0.31281544184E+02  0.87468405988E+01 -0.28785089384E+02  0.47787267312E+02  0.19999982982E+02 0.  0.
        -12    1    1    2    0    0  0.31281544184E+02 -0.87468405988E+01  0.28785089384E+02  0.43400732688E+02  0.00000000000E+00 0.  1.
         11    1    3    3    0    0 -0.17215370621E+02  0.66277105357E+01 -0.70227556226E+01  0.19738658247E+02  0.51100000000E-03 0. -1.
        -11    1    3    3    0    0  0.13400590842E+01  0.16504391236E+01 -0.40097916035E+01  0.45385170061E+01  0.51100000000E-03 0.  1.
         12    1    3    3    0    0 -0.15406232647E+02  0.46869093949E+00 -0.17752542158E+02  0.23510092059E+02  0.00000000000E+00 0. -1.
</event>
<event>
 7    1  0.1322363E-009  0.4778727E+02  0.7816164E-02  0.1312668E+00
        -11   -1    0    0    0    0  0.00000000000E+00  0.00000000000E+00  0.45593999997E+02  0.45594000000E+02  0.51100000000E-03 0.  1.
         11   -1    0    0    0    0 -0.00000000000E+00 -0.00000000000E+00 -0.45593999997E+02  0.45594000000E+02  0.51100000000E-03 0. -1.
    9900012    2    1    2    0    0 -0.20338000946E+02 -0.13161249202E+02 -0.36010701248E+02  0.47787269967E+02  0.19999995086E+02 0.  0.
        -12    1    1    2    0    0  0.20338000946E+02  0.13161249202E+02  0.36010701248E+02  0.43400730033E+02  0.00000000000E+00 0.  1.
         11    1    3    3    0    0 -0.27507133629E+01  0.18989266312E+01 -0.11129061320E+02  0.11620170071E+02  0.51100000000E-03 0. -1.
        -11    1    3    3    0    0 -0.94428305432E+01 -0.47996429656E+01 -0.19115506022E+02  0.21854203074E+02  0.51100000000E-03 0.  1.
        -12    1    3    3    0    0 -0.81444570398E+01 -0.10260532867E+02 -0.57661339064E+01  0.14312896821E+02  0.00000000000E+00 0.  1.
</event>
<event>
 7    1  0.1322363E-009  0.4778728E+02  0.7816164E-02  0.1312668E+00
        -11   -1    0    0    0    0  0.00000000000E+00  0.00000000000E+00  0.45593999997E+02  0.45594000000E+02  0.51100000000E-03 0.  1.
         11   -1    0    0    0    0 -0.00000000000E+00 -0.00000000000E+00 -0.45593999997E+02  0.45594000000E+02  0.51100000000E-03 0. -1.
    9900012    2    1    2    0    0 -0.38389780554E+02 -0.17447640132E+01 -0.20169354516E+02  0.47787282103E+02  0.20000050419E+02 0.  0.
        -12    1    1    2    0    0  0.38389780554E+02  0.17447640132E+01  0.20169354516E+02  0.43400717897E+02  0.00000000000E+00 0.  1.
         11    1    3    3    0    0 -0.22139932820E+02  0.30821505681E+01 -0.27708889939E+01  0.22524522270E+02  0.51100000000E-03 0. -1.
        -11    1    3    3    0    0  0.42527602868E+00 -0.45746641664E+00 -0.21813445778E+01  0.22690085172E+01  0.51100000000E-03 0.  1.
        -12    1    3    3    0    0 -0.16675123762E+02 -0.43694481646E+01 -0.15217120944E+02  0.22993751316E+02  0.00000000000E+00 0.  1.
</event>
<event>
 7    1  0.1322363E-009  0.4778727E+02  0.7816164E-02  0.1312668E+00
        -11   -1    0    0    0    0  0.00000000000E+00  0.00000000000E+00  0.45593999997E+02  0.45594000000E+02  0.51100000000E-03 0. -1.
         11   -1    0    0    0    0 -0.00000000000E+00 -0.00000000000E+00 -0.45593999997E+02  0.45594000000E+02  0.51100000000E-03 0.  1.
    9900012    2    1    2    0    0 -0.41367913284E+02 -0.79688319813E+01 -0.10431524970E+02  0.47787271368E+02  0.20000001475E+02 0.  0.
        -12    1    1    2    0    0  0.41367913284E+02  0.79688319813E+01  0.10431524970E+02  0.43400728632E+02  0.00000000000E+00 0.  1.
         11    1    3    3    0    0 -0.43586434199E+01 -0.57261080575E+01 -0.18841596096E+00  0.71987211909E+01  0.51100000000E-03 0. -1.
        -11    1    3    3    0    0 -0.78978278838E+00 -0.17717627295E+01 -0.31175660779E+01  0.36718004485E+01  0.51100000000E-03 0.  1.
         12    1    3    3    0    0 -0.36219487075E+02 -0.47096119424E+00 -0.71255429314E+01  0.36916749729E+02  0.00000000000E+00 0. -1.
</event>
<event>
 7    1  0.1322363E-009  0.4778726E+02  0.7816164E-02  0.1312668E+00
        -11   -1    0    0    0    0  0.00000000000E+00  0.00000000000E+00  0.45593999997E+02  0.45594000000E+02  0.51100000000E-03 0. -1.
         11   -1    0    0    0    0 -0.00000000000E+00 -0.00000000000E+00 -0.45593999997E+02  0.45594000000E+02  0.51100000000E-03 0.  1.
    9900012    2    1    2    0    0  0.31547689437E+02  0.29562068910E+02  0.38014753193E+01  0.47787264503E+02  0.19999970176E+02 0.  0.
        -12    1    1    2    0    0 -0.31547689437E+02 -0.29562068910E+02 -0.38014753193E+01  0.43400735497E+02  0.00000000000E+00 0.  1.
         11    1    3    3    0    0  0.19963356494E+02  0.13989030063E+02  0.67081225188E-01  0.24376896127E+02  0.51100000000E-03 0. -1.
        -11    1    3    3    0    0  0.92504439413E+01  0.17510407262E+02  0.44419514347E+01  0.20295714040E+02  0.51100000000E-03 0.  1.
        -12    1    3    3    0    0  0.23338890013E+01 -0.19373684148E+01 -0.70755734062E+00  0.31146543365E+01  0.00000000000E+00 0.  1.
</event>
<event>
 7    1  0.1322363E-009  0.4778727E+02  0.7816164E-02  0.1312668E+00
        -11   -1    0    0    0    0  0.00000000000E+00  0.00000000000E+00  0.45593999997E+02  0.45594000000E+02  0.51100000000E-03 0.  1.
         11   -1    0    0    0    0 -0.00000000000E+00 -0.00000000000E+00 -0.45593999997E+02  0.45594000000E+02  0.51100000000E-03 0. -1.
    9900012    2    1    2    0    0 -0.31891497948E+02  0.22167306245E+02 -0.19369208444E+02  0.47787270245E+02  0.19999996353E+02 0.  0.
        -12    1    1    2    0    0  0.31891497948E+02 -0.22167306245E+02  0.19369208444E+02  0.43400729755E+02  0.00000000000E+00 0.  1.
         11    1    3    3    0    0 -0.12518952042E+02  0.11262697273E+02 -0.30259054830E+01  0.17109313673E+02  0.51100000000E-03 0. -1.
        -11    1    3    3    0    0 -0.12509299498E+02  0.93504113776E+01 -0.17599296461E+02  0.23529725945E+02  0.51100000000E-03 0.  1.
         12    1    3    3    0    0 -0.68632464079E+01  0.15541975943E+01  0.12559935000E+01  0.71482306265E+01  0.00000000000E+00 0. -1.
</event>
<event>
 7    1  0.1322363E-009  0.4778727E+02  0.7816164E-02  0.1312668E+00
        -11   -1    0    0    0    0  0.00000000000E+00  0.00000000000E+00  0.45593999997E+02  0.45594000000E+02  0.51100000000E-03 0. -1.
         11   -1    0    0    0    0 -0.00000000000E+00 -0.00000000000E+00 -0.45593999997E+02  0.45594000000E+02  0.51100000000E-03 0.  1.
    9900012    2    1    2    0    0  0.19664258383E+02 -0.37791811655E+02 -0.82897068341E+01  0.47787270452E+02  0.19999997297E+02 0.  0.
        -12    1    1    2    0    0 -0.19664258383E+02  0.37791811655E+02  0.82897068341E+01  0.43400729548E+02  0.00000000000E+00 0.  1.
         11    1    3    3    0    0 -0.34596105869E+00 -0.63860474814E+01  0.19209845044E+01  0.66776847197E+01  0.51100000000E-03 0. -1.
        -11    1    3    3    0    0  0.90309954065E+01 -0.35505145641E+01 -0.41875473772E+01  0.10568849748E+02  0.51100000000E-03 0.  1.
         12    1    3    3    0    0  0.10979224035E+02 -0.27855249610E+02 -0.60231439612E+01  0.30540735984E+02  0.00000000000E+00 0. -1.
</event>
<event>
 7    1  0.1322363E-009  0.4778727E+02  0.7816164E-02  0.1312668E+00
        -11   -1    0    0    0    0  0.00000000000E+00  0.00000000000E+00  0.45593999997E+02  0.45594000000E+02  0.51100000000E-03 0. -1.
         11   -1    0    0    0    0 -0.00000000000E+00 -0.00000000000E+00 -0.45593999997E+02  0.45594000000E+02  0.51100000000E-03 0.  1.
    9900012    2    1    2    0    0  0.12874613541E+02 -0.22588067082E+02  0.34751214731E+02  0.47787269895E+02  0.19999994760E+02 0.  0.
        -12    1    1    2    0    0 -0.12874613541E+02  0.22588067082E+02 -0.34751214731E+02  0.43400730105E+02  0.00000000000E+00 0.  1.
         11    1    3    3    0    0 -0.73941136409E+00 -0.52324630779E+01  0.63958498053E+01  0.82965230078E+01  0.51100000000E-03 0. -1.
        -11    1    3    3    0    0 -0.37249966608E+01 -0.48046229219E+01  0.64644037173E+01  0.88740361294E+01  0.51100000000E-03 0.  1.
         12    1    3    3    0    0  0.17339021566E+02 -0.12550981083E+02  0.21890961209E+02  0.30616710758E+02  0.00000000000E+00 0. -1.
</event>
<event>
 7    1  0.1322363E-009  0.4778727E+02  0.7816164E-02  0.1312668E+00
        -11   -1    0    0    0    0  0.00000000000E+00  0.00000000000E+00  0.45593999997E+02  0.45594000000E+02  0.51100000000E-03 0. -1.
         11   -1    0    0    0    0 -0.00000000000E+00 -0.00000000000E+00 -0.45593999997E+02  0.45594000000E+02  0.51100000000E-03 0.  1.
    9900012    2    1    2    0    0 -0.57966598942E+01  0.38265066982E+02  0.19641956611E+02  0.47787273317E+02  0.20000010363E+02 0.  0.
        -12    1    1    2    0    0  0.57966598942E+01 -0.38265066982E+02 -0.19641956611E+02  0.43400726683E+02  0.00000000000E+00 0.  1.
         11    1    3    3    0    0  0.11867607510E+01 -0.15763538261E+01  0.35635442629E+01  0.40733451167E+01  0.51100000000E-03 0.  1.
        -11    1    3    3    0    0 -0.22289883485E+01  0.19938848701E+02  0.62546155055E+01  0.21015382270E+02  0.51100000000E-03 0. -1.
        -12    1    3    3    0    0 -0.47544322967E+01  0.19902572108E+02  0.98237968426E+01  0.22698545931E+02  0.00000000000E+00 0.  1.
</event>
<event>
 7    1  0.1360936E-009  0.4778728E+02  0.7816164E-02  0.1312668E+00
        -11   -1    0    0    0    0  0.00000000000E+00  0.00000000000E+00  0.45593999997E+02  0.45594000000E+02  0.51100000000E-03 0. -1.
         11   -1    0    0    0    0 -0.00000000000E+00 -0.00000000000E+00 -0.45593999997E+02  0.45594000000E+02  0.51100000000E-03 0.  1.
    9900012    2    1    2    0    0 -0.77563107038E+01  0.39140007284E+02  0.17074017046E+02  0.47787278991E+02  0.20000036234E+02 0.  0.
        -12    1    1    2    0    0  0.77563107038E+01 -0.39140007284E+02 -0.17074017046E+02  0.43400721009E+02  0.00000000000E+00 0.  1.
         11    1    3    3    0    0 -0.48728811275E+01  0.27008267945E+02  0.91627955667E+01  0.28933515699E+02  0.51100000000E-03 0. -1.
        -11    1    3    3    0    0  0.49785298153E-01  0.92328743785E+01  0.10501952341E+02  0.13983542152E+02  0.51100000000E-03 0.  1.
        -12    1    3    3    0    0 -0.29332148745E+01  0.28988649615E+01 -0.25907308615E+01  0.48702211409E+01  0.00000000000E+00 0.  1.
</event>
<event>
 7    1  0.1322363E-009  0.4778728E+02  0.7816164E-02  0.1312668E+00
        -11   -1    0    0    0    0  0.00000000000E+00  0.00000000000E+00  0.45593999997E+02  0.45594000000E+02  0.51100000000E-03 0.  1.
         11   -1    0    0    0    0 -0.00000000000E+00 -0.00000000000E+00 -0.45593999997E+02  0.45594000000E+02  0.51100000000E-03 0. -1.
    9900012    2    1    2    0    0 -0.17410794059E+02 -0.30932279139E+02 -0.24973604583E+02  0.47787279172E+02  0.20000037059E+02 0.  0.
        -12    1    1    2    0    0  0.17410794059E+02  0.30932279139E+02  0.24973604583E+02  0.43400720828E+02  0.00000000000E+00 0.  1.
         11    1    3    3    0    0 -0.19156503375E+02 -0.28680222068E+02 -0.18037255219E+02  0.38921322376E+02  0.51100000000E-03 0. -1.
        -11    1    3    3    0    0  0.10584166501E+01 -0.37120718161E+01 -0.43324217187E+01  0.58025512650E+01  0.51100000000E-03 0.  1.
         12    1    3    3    0    0  0.68729266605E+00  0.14600147452E+01 -0.26039276456E+01  0.30634055312E+01  0.00000000000E+00 0. -1.
</event>
<event>
 7    1  0.1322363E-009  0.4778727E+02  0.7816164E-02  0.1312668E+00
        -11   -1    0    0    0    0  0.00000000000E+00  0.00000000000E+00  0.45593999997E+02  0.45594000000E+02  0.51100000000E-03 0.  1.
         11   -1    0    0    0    0 -0.00000000000E+00 -0.00000000000E+00 -0.45593999997E+02  0.45594000000E+02  0.51100000000E-03 0. -1.
    9900012    2    1    2    0    0  0.30258965771E+02 -0.28932246938E+02  0.11443050957E+02  0.47787270310E+02  0.19999996651E+02 0.  0.
        -12    1    1    2    0    0 -0.30258965771E+02  0.28932246938E+02 -0.11443050957E+02  0.43400729690E+02  0.00000000000E+00 0.  1.
         11    1    3    3    0    0  0.64963126079E+01 -0.14357061488E+02  0.76372505540E+01  0.17511564418E+02  0.51100000000E-03 0. -1.
        -11    1    3    3    0    0  0.95176235990E+00 -0.52766821801E+01  0.81349326232E-01  0.53624476122E+01  0.51100000000E-03 0.  1.
        -12    1    3    3    0    0  0.22810890804E+02 -0.92985032697E+01  0.37244510764E+01  0.24913258280E+02  0.00000000000E+00 0.  1.
</event>
<event>
 7    1  0.1322363E-009  0.4778727E+02  0.7816164E-02  0.1312668E+00
        -11   -1    0    0    0    0  0.00000000000E+00  0.00000000000E+00  0.45593999997E+02  0.45594000000E+02  0.51100000000E-03 0.  1.
         11   -1    0    0    0    0 -0.00000000000E+00 -0.00000000000E+00 -0.45593999997E+02  0.45594000000E+02  0.51100000000E-03 0. -1.
    9900012    2    1    2    0    0  0.84075960320E+01  0.42481133846E+02 -0.28790016882E+01  0.47787273571E+02  0.20000011520E+02 0.  0.
        -12    1    1    2    0    0 -0.84075960320E+01 -0.42481133846E+02  0.28790016882E+01  0.43400726429E+02  0.00000000000E+00 0.  1.
         11    1    3    3    0    0  0.53459923384E+01  0.43151416492E+01  0.16614604210E+01  0.70682764891E+01  0.51100000000E-03 0. -1.
        -11    1    3    3    0    0  0.90252652822E+00  0.45329388024E+01  0.38188678497E+01  0.59954849874E+01  0.51100000000E-03 0.  1.
         12    1    3    3    0    0  0.21590771653E+01  0.33633053394E+02 -0.83593299589E+01  0.34723512094E+02  0.00000000000E+00 0. -1.
</event>
<event>
 7    1  0.1322363E-009  0.4778727E+02  0.7816164E-02  0.1312668E+00
        -11   -1    0    0    0    0  0.00000000000E+00  0.00000000000E+00  0.45593999997E+02  0.45594000000E+02  0.51100000000E-03 0.  1.
         11   -1    0    0    0    0 -0.00000000000E+00 -0.00000000000E+00 -0.45593999997E+02  0.45594000000E+02  0.51100000000E-03 0. -1.
    9900012    2    1    2    0    0  0.21181846749E+01  0.93643711501E+01 -0.42325468054E+02  0.47787269599E+02  0.19999993409E+02 0.  0.
        -12    1    1    2    0    0 -0.21181846749E+01 -0.93643711501E+01  0.42325468054E+02  0.43400730401E+02  0.00000000000E+00 0.  1.
         11    1    3    3    0    0 -0.33321036874E+01  0.26173431997E+01 -0.34768859667E+02  0.35026090322E+02  0.51100000000E-03 0. -1.
        -11    1    3    3    0    0  0.45984815152E+01  0.24683141005E+01 -0.63797382553E+01  0.82425522268E+01  0.51100000000E-03 0.  1.
         12    1    3    3    0    0  0.85180684713E+00  0.42787138498E+01 -0.11768701315E+01  0.45186270503E+01  0.00000000000E+00 0. -1.
</event>
<event>
 7    1  0.1322363E-009  0.4778727E+02  0.7816164E-02  0.1312668E+00
        -11   -1    0    0    0    0  0.00000000000E+00  0.00000000000E+00  0.45593999997E+02  0.45594000000E+02  0.51100000000E-03 0. -1.
         11   -1    0    0    0    0 -0.00000000000E+00 -0.00000000000E+00 -0.45593999997E+02  0.45594000000E+02  0.51100000000E-03 0.  1.
    9900012    2    1    2    0    0  0.26383385464E+02 -0.23705253702E+01  0.34379072227E+02  0.47787273897E+02  0.20000013006E+02 0.  0.
        -12    1    1    2    0    0 -0.26383385464E+02  0.23705253702E+01 -0.34379072227E+02  0.43400726103E+02  0.00000000000E+00 0.  1.
         11    1    3    3    0    0  0.11447113869E+02 -0.54683495012E+01  0.17777703884E+02  0.21840009566E+02  0.51100000000E-03 0. -1.
        -11    1    3    3    0    0  0.15851687645E+02  0.14806352204E+01  0.93535882631E+01  0.18465045234E+02  0.51100000000E-03 0.  1.
         12    1    3    3    0    0 -0.91541605037E+00  0.16171889107E+01  0.72477800803E+01  0.74822190966E+01  0.00000000000E+00 0. -1.
</event>
<event>
 7    1  0.1322363E-009  0.4778727E+02  0.7816164E-02  0.1312668E+00
        -11   -1    0    0    0    0  0.00000000000E+00  0.00000000000E+00  0.45593999997E+02  0.45594000000E+02  0.51100000000E-03 0.  1.
         11   -1    0    0    0    0 -0.00000000000E+00 -0.00000000000E+00 -0.45593999997E+02  0.45594000000E+02  0.51100000000E-03 0. -1.
    9900012    2    1    2    0    0  0.26003862570E+02  0.60836420629E+01 -0.34211277400E+02  0.47787273386E+02  0.20000010676E+02 0.  0.
        -12    1    1    2    0    0 -0.26003862570E+02 -0.60836420629E+01  0.34211277400E+02  0.43400726614E+02  0.00000000000E+00 0.  1.
         11    1    3    3    0    0  0.88948718446E+01  0.29152818327E+00 -0.23795471429E+02  0.25405278872E+02  0.51100000000E-03 0. -1.
        -11    1    3    3    0    0  0.95840318400E+01  0.59067667523E+01 -0.96306878871E+01  0.14815320085E+02  0.51100000000E-03 0.  1.
        -12    1    3    3    0    0  0.75249588852E+01 -0.11465287264E+00 -0.78511808390E+00  0.75666744287E+01  0.00000000000E+00 0.  1.
</event>
<event>
 7    1  0.1322363E-009  0.4778727E+02  0.7816164E-02  0.1312668E+00
        -11   -1    0    0    0    0  0.00000000000E+00  0.00000000000E+00  0.45593999997E+02  0.45594000000E+02  0.51100000000E-03 0.  1.
         11   -1    0    0    0    0 -0.00000000000E+00 -0.00000000000E+00 -0.45593999997E+02  0.45594000000E+02  0.51100000000E-03 0. -1.
    9900012    2    1    2    0    0 -0.37083606698E+02  0.17721849010E+02 -0.13941519177E+02  0.47787265271E+02  0.19999973675E+02 0.  0.
        -12    1    1    2    0    0  0.37083606698E+02 -0.17721849010E+02  0.13941519177E+02  0.43400734729E+02  0.00000000000E+00 0.  1.
         11    1    3    3    0    0 -0.64856772788E+01 -0.20784495534E+01 -0.45499099790E+01  0.81905826037E+01  0.51100000000E-03 0. -1.
        -11    1    3    3    0    0 -0.96884104138E+01  0.12771436576E+02 -0.66981664179E+01  0.17373552376E+02  0.51100000000E-03 0.  1.
         12    1    3    3    0    0 -0.20909519006E+02  0.70288619882E+01 -0.26934427796E+01  0.22223130290E+02  0.00000000000E+00 0. -1.
</event>
<event>
 7    1  0.1322363E-009  0.4778727E+02  0.7816164E-02  0.1312668E+00
        -11   -1    0    0    0    0  0.00000000000E+00  0.00000000000E+00  0.45593999997E+02  0.45594000000E+02  0.51100000000E-03 0. -1.
         11   -1    0    0    0    0 -0.00000000000E+00 -0.00000000000E+00 -0.45593999997E+02  0.45594000000E+02  0.51100000000E-03 0.  1.
    9900012    2    1    2    0    0 -0.22751139176E+02 -0.21349581211E+02  0.30169594761E+02  0.47787269595E+02  0.19999993390E+02 0.  0.
        -12    1    1    2    0    0  0.22751139176E+02  0.21349581211E+02 -0.30169594761E+02  0.43400730405E+02  0.00000000000E+00 0.  1.
         11    1    3    3    0    0  0.17275778627E+01 -0.45439579401E+01  0.62789988115E+01  0.79409007907E+01  0.51100000000E-03 0. -1.
        -11    1    3    3    0    0 -0.16791602739E+02 -0.13294000957E+02  0.22872040881E+02  0.31333985356E+02  0.51100000000E-03 0.  1.
        -12    1    3    3    0    0 -0.76871142996E+01 -0.35116223139E+01  0.10185550683E+01  0.85123834475E+01  0.00000000000E+00 0.  1.
</event>
<event>
 7    1  0.1431708E-009  0.4778727E+02  0.7816164E-02  0.1312668E+00
        -11   -1    0    0    0    0  0.00000000000E+00  0.00000000000E+00  0.45593999997E+02  0.45594000000E+02  0.51100000000E-03 0. -1.
         11   -1    0    0    0    0 -0.00000000000E+00 -0.00000000000E+00 -0.45593999997E+02  0.45594000000E+02  0.51100000000E-03 0.  1.
    9900012    2    1    2    0    0 -0.32468612256E+02  0.27776688767E+02 -0.76070995269E+01  0.47787272081E+02  0.20000004725E+02 0.  0.
        -12    1    1    2    0    0  0.32468612256E+02 -0.27776688767E+02  0.76070995269E+01  0.43400727919E+02  0.00000000000E+00 0.  1.
         11    1    3    3    0    0 -0.13257773555E+02  0.16382526004E+02 -0.57508806571E+01  0.21845556676E+02  0.51100000000E-03 0. -1.
        -11    1    3    3    0    0  0.13057328904E+01 -0.77483674571E+00  0.11422049328E+01  0.18999849297E+01  0.51100000000E-03 0.  1.
         12    1    3    3    0    0 -0.20516571591E+02  0.12168999509E+02 -0.29984238025E+01  0.24041730475E+02  0.00000000000E+00 0. -1.
</event>
<event>
 7    1  0.1322363E-009  0.4778727E+02  0.7816164E-02  0.1312668E+00
        -11   -1    0    0    0    0  0.00000000000E+00  0.00000000000E+00  0.45593999997E+02  0.45594000000E+02  0.51100000000E-03 0.  1.
         11   -1    0    0    0    0 -0.00000000000E+00 -0.00000000000E+00 -0.45593999997E+02  0.45594000000E+02  0.51100000000E-03 0. -1.
    9900012    2    1    2    0    0 -0.80942551786E+01 -0.21310429387E+02 -0.36931989144E+02  0.47787272015E+02  0.20000004423E+02 0.  0.
        -12    1    1    2    0    0  0.80942551786E+01  0.21310429387E+02  0.36931989144E+02  0.43400727985E+02  0.00000000000E+00 0.  1.
         11    1    3    3    0    0  0.96270410155E+00 -0.54516802820E+01 -0.86189897142E+01  0.10243759126E+02  0.51100000000E-03 0. -1.
        -11    1    3    3    0    0 -0.13084394563E+02 -0.10100846538E+02 -0.14255456569E+02  0.21827655030E+02  0.51100000000E-03 0.  1.
        -12    1    3    3    0    0  0.40274352830E+01 -0.57579025664E+01 -0.14057542861E+02  0.15715857858E+02  0.00000000000E+00 0.  1.
</event>
<event>
 7    1  0.1322363E-009  0.4778727E+02  0.7816164E-02  0.1312668E+00
        -11   -1    0    0    0    0  0.00000000000E+00  0.00000000000E+00  0.45593999997E+02  0.45594000000E+02  0.51100000000E-03 0. -1.
         11   -1    0    0    0    0 -0.00000000000E+00 -0.00000000000E+00 -0.45593999997E+02  0.45594000000E+02  0.51100000000E-03 0.  1.
    9900012    2    1    2    0    0  0.81761230242E+00 -0.24419538442E+02  0.35869779687E+02  0.47787269103E+02  0.19999991147E+02 0.  0.
        -12    1    1    2    0    0 -0.81761230242E+00  0.24419538442E+02 -0.35869779687E+02  0.43400730897E+02  0.00000000000E+00 0.  1.
         11    1    3    3    0    0  0.23039076276E+01 -0.65261742882E+01  0.11912956484E+02  0.13777426234E+02  0.51100000000E-03 0. -1.
        -11    1    3    3    0    0  0.54556457338E+00 -0.32563385778E+00 -0.22813502846E+01  0.23681717622E+01  0.51100000000E-03 0.  1.
        -12    1    3    3    0    0 -0.20318598985E+01 -0.17567730296E+02  0.26238173488E+02  0.31641671106E+02  0.00000000000E+00 0.  1.
</event>
<event>
 7    1  0.1322363E-009  0.4778727E+02  0.7816164E-02  0.1312668E+00
        -11   -1    0    0    0    0  0.00000000000E+00  0.00000000000E+00  0.45593999997E+02  0.45594000000E+02  0.51100000000E-03 0. -1.
         11   -1    0    0    0    0 -0.00000000000E+00 -0.00000000000E+00 -0.45593999997E+02  0.45594000000E+02  0.51100000000E-03 0.  1.
    9900012    2    1    2    0    0 -0.27513266192E+02  0.27168133112E+02  0.19711310086E+02  0.47787273984E+02  0.20000013405E+02 0.  0.
        -12    1    1    2    0    0  0.27513266192E+02 -0.27168133112E+02 -0.19711310086E+02  0.43400726016E+02  0.00000000000E+00 0.  1.
         11    1    3    3    0    0 -0.69674248890E+00  0.47571073048E+01  0.13716408092E+01  0.49996918681E+01  0.51100000000E-03 0. -1.
        -11    1    3    3    0    0 -0.63393830799E+00  0.34030511639E+01  0.81685860742E+01  0.88717773707E+01  0.51100000000E-03 0.  1.
        -12    1    3    3    0    0 -0.26182585395E+02  0.19007974643E+02  0.10171083203E+02  0.33915804746E+02  0.00000000000E+00 0.  1.
</event>
<event>
 7    1  0.1322363E-009  0.4778727E+02  0.7816164E-02  0.1312668E+00
        -11   -1    0    0    0    0  0.00000000000E+00  0.00000000000E+00  0.45593999997E+02  0.45594000000E+02  0.51100000000E-03 0.  1.
         11   -1    0    0    0    0 -0.00000000000E+00 -0.00000000000E+00 -0.45593999997E+02  0.45594000000E+02  0.51100000000E-03 0. -1.
    9900012    2    1    2    0    0  0.31582690060E+02 -0.24837697289E+02 -0.16408707358E+02  0.47787271951E+02  0.20000004131E+02 0.  0.
        -12    1    1    2    0    0 -0.31582690060E+02  0.24837697289E+02  0.16408707358E+02  0.43400728049E+02  0.00000000000E+00 0.  1.
         11    1    3    3    0    0  0.10679013412E+02 -0.70307429765E+01 -0.10660241638E+02  0.16646724191E+02  0.51100000000E-03 0. -1.
        -11    1    3    3    0    0  0.45133957680E+01 -0.12630969956E+02 -0.27726903088E+01  0.13696713299E+02  0.51100000000E-03 0.  1.
        -12    1    3    3    0    0  0.16390280880E+02 -0.51759843572E+01 -0.29757754113E+01  0.17443834460E+02  0.00000000000E+00 0.  1.
</event>
<event>
 7    1  0.1322363E-009  0.4778727E+02  0.7816164E-02  0.1312668E+00
        -11   -1    0    0    0    0  0.00000000000E+00  0.00000000000E+00  0.45593999997E+02  0.45594000000E+02  0.51100000000E-03 0.  1.
         11   -1    0    0    0    0 -0.00000000000E+00 -0.00000000000E+00 -0.45593999997E+02  0.45594000000E+02  0.51100000000E-03 0. -1.
    9900012    2    1    2    0    0  0.95206530621E+01 -0.33482836718E+02 -0.25920643614E+02  0.47787274720E+02  0.20000016760E+02 0.  0.
        -12    1    1    2    0    0 -0.95206530621E+01  0.33482836718E+02  0.25920643614E+02  0.43400725280E+02  0.00000000000E+00 0.  1.
         11    1    3    3    0    0  0.23194633297E+01 -0.18222301901E+02 -0.93086267008E+01  0.20593268998E+02  0.51100000000E-03 0. -1.
        -11    1    3    3    0    0  0.79218142408E+01 -0.42230010497E+01 -0.26074130405E+01  0.93481271791E+01  0.51100000000E-03 0.  1.
         12    1    3    3    0    0 -0.72062450844E+00 -0.11037533768E+02 -0.14004603873E+02  0.17845878544E+02  0.00000000000E+00 0. -1.
</event>
<event>
 7    1  0.1322363E-009  0.4778727E+02  0.7816164E-02  0.1312668E+00
        -11   -1    0    0    0    0  0.00000000000E+00  0.00000000000E+00  0.45593999997E+02  0.45594000000E+02  0.51100000000E-03 0. -1.
         11   -1    0    0    0    0 -0.00000000000E+00 -0.00000000000E+00 -0.45593999997E+02  0.45594000000E+02  0.51100000000E-03 0.  1.
    9900012    2    1    2    0    0  0.16396252139E+02 -0.39440109068E+02  0.76982892947E+01  0.47787274827E+02  0.20000017244E+02 0.  0.
        -12    1    1    2    0    0 -0.16396252139E+02  0.39440109068E+02 -0.76982892947E+01  0.43400725173E+02  0.00000000000E+00 0.  1.
         11    1    3    3    0    0  0.87142889931E+01 -0.16995130195E+02  0.95074116872E+01  0.21334576636E+02  0.51100000000E-03 0. -1.
        -11    1    3    3    0    0  0.10328331471E+02 -0.13210235157E+02 -0.15896970256E+01  0.16843749012E+02  0.51100000000E-03 0.  1.
         12    1    3    3    0    0 -0.26463683253E+01 -0.92347437164E+01 -0.21942536681E+00  0.96089491784E+01  0.00000000000E+00 0. -1.
</event>
<event>
 7    1  0.1322363E-009  0.4778727E+02  0.7816164E-02  0.1312668E+00
        -11   -1    0    0    0    0  0.00000000000E+00  0.00000000000E+00  0.45593999997E+02  0.45594000000E+02  0.51100000000E-03 0. -1.
         11   -1    0    0    0    0 -0.00000000000E+00 -0.00000000000E+00 -0.45593999997E+02  0.45594000000E+02  0.51100000000E-03 0.  1.
    9900012    2    1    2    0    0 -0.90790349028E+01 -0.28010322760E+02  0.31884421082E+02  0.47787270011E+02  0.19999995287E+02 0.  0.
        -12    1    1    2    0    0  0.90790349028E+01  0.28010322760E+02 -0.31884421082E+02  0.43400729989E+02  0.00000000000E+00 0.  1.
         11    1    3    3    0    0  0.10781703548E+01  0.22944503375E+00 -0.84040968977E+00  0.13861403411E+01  0.51100000000E-03 0.  1.
        -11    1    3    3    0    0 -0.65705488745E+01 -0.22226852774E+02  0.31783208346E+02  0.39336718594E+02  0.51100000000E-03 0. -1.
         12    1    3    3    0    0 -0.35866563831E+01 -0.60129150202E+01  0.94162242509E+00  0.70644110754E+01  0.00000000000E+00 0. -1.
</event>
<event>
 7    1  0.1322363E-009  0.4778727E+02  0.7816164E-02  0.1312668E+00
        -11   -1    0    0    0    0  0.00000000000E+00  0.00000000000E+00  0.45593999997E+02  0.45594000000E+02  0.51100000000E-03 0. -1.
         11   -1    0    0    0    0 -0.00000000000E+00 -0.00000000000E+00 -0.45593999997E+02  0.45594000000E+02  0.51100000000E-03 0.  1.
    9900012    2    1    2    0    0  0.30971283170E+02 -0.27634496562E+02  0.12678221171E+02  0.47787273353E+02  0.20000010525E+02 0.  0.
        -12    1    1    2    0    0 -0.30971283170E+02  0.27634496562E+02 -0.12678221171E+02  0.43400726647E+02  0.00000000000E+00 0.  1.
         11    1    3    3    0    0  0.11931314760E+02 -0.90178198579E+01 -0.21380265042E+00  0.14957374727E+02  0.51100000000E-03 0. -1.
        -11    1    3    3    0    0  0.14872450008E+02 -0.88595622534E+01  0.16784619559E+01  0.17392493995E+02  0.51100000000E-03 0.  1.
        -12    1    3    3    0    0  0.41675184027E+01 -0.97571144508E+01  0.11213561865E+02  0.15437404631E+02  0.00000000000E+00 0.  1.
</event>
<event>
 7    1  0.1322363E-009  0.4778726E+02  0.7816164E-02  0.1312668E+00
        -11   -1    0    0    0    0  0.00000000000E+00  0.00000000000E+00  0.45593999997E+02  0.45594000000E+02  0.51100000000E-03 0.  1.
         11   -1    0    0    0    0 -0.00000000000E+00 -0.00000000000E+00 -0.45593999997E+02  0.45594000000E+02  0.51100000000E-03 0. -1.
    9900012    2    1    2    0    0  0.36271075121E+01 -0.29368899255E+01 -0.43149080886E+02  0.47787257925E+02  0.19999940184E+02 0.  0.
        -12    1    1    2    0    0 -0.36271075121E+01  0.29368899255E+01  0.43149080886E+02  0.43400742075E+02  0.00000000000E+00 0.  1.
         11    1    3    3    0    0  0.25563882553E+01 -0.54469365899E+01 -0.11577101585E+02  0.13047356839E+02  0.51100000000E-03 0. -1.
        -11    1    3    3    0    0 -0.18588524928E+01  0.68860279707E+01 -0.26445987956E+02  0.27390929028E+02  0.51100000000E-03 0.  1.
        -12    1    3    3    0    0  0.29295717495E+01 -0.43759813062E+01 -0.51259913451E+01  0.73489720572E+01  0.00000000000E+00 0.  1.
</event>
<event>
 7    1  0.1322363E-009  0.4778727E+02  0.7816164E-02  0.1312668E+00
        -11   -1    0    0    0    0  0.00000000000E+00  0.00000000000E+00  0.45593999997E+02  0.45594000000E+02  0.51100000000E-03 0.  1.
         11   -1    0    0    0    0 -0.00000000000E+00 -0.00000000000E+00 -0.45593999997E+02  0.45594000000E+02  0.51100000000E-03 0. -1.
    9900012    2    1    2    0    0 -0.87352064358E+01  0.37102966428E+02 -0.20753057521E+02  0.47787270217E+02  0.19999996226E+02 0.  0.
        -12    1    1    2    0    0  0.87352064358E+01 -0.37102966428E+02  0.20753057521E+02  0.43400729783E+02  0.00000000000E+00 0.  1.
         11    1    3    3    0    0  0.25986405778E+01  0.28417977125E+01 -0.14366806158E+01  0.41100849802E+01  0.51100000000E-03 0. -1.
        -11    1    3    3    0    0 -0.86734931850E+01  0.35257037748E+02 -0.17500863833E+02  0.40305935418E+02  0.51100000000E-03 0.  1.
        -12    1    3    3    0    0 -0.26603538286E+01 -0.99586903197E+00 -0.18155130718E+01  0.33712498181E+01  0.00000000000E+00 0.  1.
</event>
<event>
 7    1  0.1322363E-009  0.4778729E+02  0.7816164E-02  0.1312668E+00
        -11   -1    0    0    0    0  0.00000000000E+00  0.00000000000E+00  0.45593999997E+02  0.45594000000E+02  0.51100000000E-03 0.  1.
         11   -1    0    0    0    0 -0.00000000000E+00 -0.00000000000E+00 -0.45593999997E+02  0.45594000000E+02  0.51100000000E-03 0. -1.
    9900012    2    1    2    0    0 -0.75593820997E+01 -0.49597546237E+01 -0.42448540565E+02  0.47787285493E+02  0.20000065876E+02 0.  0.
        -12    1    1    2    0    0  0.75593820997E+01  0.49597546237E+01  0.42448540565E+02  0.43400714507E+02  0.00000000000E+00 0.  1.
         11    1    3    3    0    0 -0.30768358185E+01 -0.93874780924E+01 -0.93857371995E+01  0.13626581619E+02  0.51100000000E-03 0.  1.
        -11    1    3    3    0    0 -0.43351284789E+01  0.10460151618E+01 -0.11510214811E+02  0.12343926924E+02  0.51100000000E-03 0. -1.
        -12    1    3    3    0    0 -0.14741780227E+00  0.33817083069E+01 -0.21552588555E+02  0.21816776950E+02  0.00000000000E+00 0.  1.
</event>
<event>
 7    1  0.1322363E-009  0.4778727E+02  0.7816164E-02  0.1312668E+00
        -11   -1    0    0    0    0  0.00000000000E+00  0.00000000000E+00  0.45593999997E+02  0.45594000000E+02  0.51100000000E-03 0. -1.
         11   -1    0    0    0    0 -0.00000000000E+00 -0.00000000000E+00 -0.45593999997E+02  0.45594000000E+02  0.51100000000E-03 0.  1.
    9900012    2    1    2    0    0 -0.25461121427E+02  0.31432754889E+02 -0.15726933241E+02  0.47787271741E+02  0.20000003178E+02 0.  0.
        -12    1    1    2    0    0  0.25461121427E+02 -0.31432754889E+02  0.15726933241E+02  0.43400728259E+02  0.00000000000E+00 0.  1.
         11    1    3    3    0    0 -0.12690572707E+02  0.92776505790E+01 -0.81118658751E+01  0.17689765520E+02  0.51100000000E-03 0.  1.
        -11    1    3    3    0    0 -0.11612513437E+01  0.15053261039E+02 -0.65155842903E+01  0.16443904996E+02  0.51100000000E-03 0. -1.
         12    1    3    3    0    0 -0.11609297377E+02  0.71018432703E+01 -0.10994830753E+01  0.13653601226E+02  0.00000000000E+00 0. -1.
</event>
<event>
 7    1  0.1322363E-009  0.4778727E+02  0.7816164E-02  0.1312668E+00
        -11   -1    0    0    0    0  0.00000000000E+00  0.00000000000E+00  0.45593999997E+02  0.45594000000E+02  0.51100000000E-03 0. -1.
         11   -1    0    0    0    0 -0.00000000000E+00 -0.00000000000E+00 -0.45593999997E+02  0.45594000000E+02  0.51100000000E-03 0.  1.
    9900012    2    1    2    0    0  0.20897708635E+02 -0.14527203068E+02  0.35154936145E+02  0.47787269700E+02  0.19999993870E+02 0.  0.
        -12    1    1    2    0    0 -0.20897708635E+02  0.14527203068E+02 -0.35154936145E+02  0.43400730300E+02  0.00000000000E+00 0.  1.
         11    1    3    3    0    0  0.23616395879E+01  0.87469818949E+00  0.11316768418E+02  0.11593605399E+02  0.51100000000E-03 0. -1.
        -11    1    3    3    0    0  0.57933947321E+01 -0.13028648137E+02  0.13068989794E+02  0.19341861060E+02  0.51100000000E-03 0.  1.
         12    1    3    3    0    0  0.12742674315E+02 -0.23732531207E+01  0.10769177933E+02  0.16851803240E+02  0.00000000000E+00 0. -1.
</event>
<event>
 7    1  0.1322363E-009  0.4778727E+02  0.7816164E-02  0.1312668E+00
        -11   -1    0    0    0    0  0.00000000000E+00  0.00000000000E+00  0.45593999997E+02  0.45594000000E+02  0.51100000000E-03 0. -1.
         11   -1    0    0    0    0 -0.00000000000E+00 -0.00000000000E+00 -0.45593999997E+02  0.45594000000E+02  0.51100000000E-03 0.  1.
    9900012    2    1    2    0    0  0.12606993316E+01  0.30376189028E+02  0.30972906820E+02  0.47787272131E+02  0.20000004952E+02 0.  0.
        -12    1    1    2    0    0 -0.12606993316E+01 -0.30376189028E+02 -0.30972906820E+02  0.43400727869E+02  0.00000000000E+00 0.  1.
         11    1    3    3    0    0 -0.27876546791E+01  0.30213558744E+01  0.56613553295E+01  0.69964672769E+01  0.51100000000E-03 0. -1.
        -11    1    3    3    0    0  0.94525655113E+01  0.99207483731E+01  0.11764038434E+02  0.18060034429E+02  0.51100000000E-03 0.  1.
        -12    1    3    3    0    0 -0.54042115007E+01  0.17434084781E+02  0.13547513056E+02  0.22730770425E+02  0.00000000000E+00 0.  1.
</event>
<event>
 7    1  0.1322363E-009  0.4778727E+02  0.7816164E-02  0.1312668E+00
        -11   -1    0    0    0    0  0.00000000000E+00  0.00000000000E+00  0.45593999997E+02  0.45594000000E+02  0.51100000000E-03 0.  1.
         11   -1    0    0    0    0 -0.00000000000E+00 -0.00000000000E+00 -0.45593999997E+02  0.45594000000E+02  0.51100000000E-03 0. -1.
    9900012    2    1    2    0    0  0.21899223101E+02 -0.21398510028E+01 -0.37409470653E+02  0.47787269254E+02  0.19999991838E+02 0.  0.
        -12    1    1    2    0    0 -0.21899223101E+02  0.21398510028E+01  0.37409470653E+02  0.43400730746E+02  0.00000000000E+00 0.  1.
         11    1    3    3    0    0  0.94442314254E+01  0.76109840673E+01 -0.15463782028E+02  0.19653222142E+02  0.51100000000E-03 0. -1.
        -11    1    3    3    0    0  0.59716510675E+01 -0.39068846679E+01 -0.40060128960E+01  0.81836730057E+01  0.51100000000E-03 0.  1.
        -12    1    3    3    0    0  0.64833406078E+01 -0.58439504022E+01 -0.17939675729E+02  0.19950374107E+02  0.00000000000E+00 0.  1.
</event>
<event>
 7    1  0.1322363E-009  0.4778727E+02  0.7816164E-02  0.1312668E+00
        -11   -1    0    0    0    0  0.00000000000E+00  0.00000000000E+00  0.45593999997E+02  0.45594000000E+02  0.51100000000E-03 0.  1.
         11   -1    0    0    0    0 -0.00000000000E+00 -0.00000000000E+00 -0.45593999997E+02  0.45594000000E+02  0.51100000000E-03 0. -1.
    9900012    2    1    2    0    0  0.11858527467E+02 -0.41741166570E+02 -0.82060221836E+00  0.47787273643E+02  0.20000011850E+02 0.  0.
        -12    1    1    2    0    0 -0.11858527467E+02  0.41741166570E+02  0.82060221836E+00  0.43400726357E+02  0.00000000000E+00 0.  1.
         11    1    3    3    0    0  0.11957024534E+01  0.18079000489E+00 -0.28577881216E+01  0.31031182046E+01  0.51100000000E-03 0. -1.
        -11    1    3    3    0    0  0.21540580367E+01 -0.14118860771E+02  0.57015025432E+01  0.15378209486E+02  0.51100000000E-03 0.  1.
         12    1    3    3    0    0  0.85087669766E+01 -0.27803095804E+02 -0.36643166400E+01  0.29305945953E+02  0.00000000000E+00 0. -1.
</event>
<event>
 7    1  0.1322363E-009  0.4778727E+02  0.7816164E-02  0.1312668E+00
        -11   -1    0    0    0    0  0.00000000000E+00  0.00000000000E+00  0.45593999997E+02  0.45594000000E+02  0.51100000000E-03 0. -1.
         11   -1    0    0    0    0 -0.00000000000E+00 -0.00000000000E+00 -0.45593999997E+02  0.45594000000E+02  0.51100000000E-03 0.  1.
    9900012    2    1    2    0    0  0.15348910271E+02 -0.87774334981E+01  0.39635727876E+02  0.47787270633E+02  0.19999998126E+02 0.  0.
        -12    1    1    2    0    0 -0.15348910271E+02  0.87774334981E+01 -0.39635727876E+02  0.43400729367E+02  0.00000000000E+00 0.  1.
         11    1    3    3    0    0  0.49872092663E+01 -0.55708306501E+00  0.15517938725E+02  0.16309169824E+02  0.51100000000E-03 0. -1.
        -11    1    3    3    0    0  0.11149188610E+02 -0.61308900648E+01  0.76221959237E+01  0.14832062925E+02  0.51100000000E-03 0.  1.
        -12    1    3    3    0    0 -0.78748760516E+00 -0.20894603684E+01  0.16495593227E+02  0.16646037885E+02  0.00000000000E+00 0.  1.
</event>
<event>
 7    1  0.1322363E-009  0.4778727E+02  0.7816164E-02  0.1312668E+00
        -11   -1    0    0    0    0  0.00000000000E+00  0.00000000000E+00  0.45593999997E+02  0.45594000000E+02  0.51100000000E-03 0. -1.
         11   -1    0    0    0    0 -0.00000000000E+00 -0.00000000000E+00 -0.45593999997E+02  0.45594000000E+02  0.51100000000E-03 0.  1.
    9900012    2    1    2    0    0  0.31846059578E+02  0.13272039654E+02  0.26330679956E+02  0.47787271271E+02  0.20000001034E+02 0.  0.
        -12    1    1    2    0    0 -0.31846059578E+02 -0.13272039654E+02 -0.26330679956E+02  0.43400728729E+02  0.00000000000E+00 0.  1.
         11    1    3    3    0    0  0.17636560550E+02  0.10235455069E+02  0.40561024707E+01  0.20790978236E+02  0.51100000000E-03 0. -1.
        -11    1    3    3    0    0  0.30453775425E+01  0.24825776043E+01  0.75326216472E+01  0.84957580638E+01  0.51100000000E-03 0.  1.
         12    1    3    3    0    0  0.11164121486E+02  0.55400698014E+00  0.14741955838E+02  0.18500534971E+02  0.00000000000E+00 0. -1.
</event>
<event>
 7    1  0.1322363E-009  0.4778727E+02  0.7816164E-02  0.1312668E+00
        -11   -1    0    0    0    0  0.00000000000E+00  0.00000000000E+00  0.45593999997E+02  0.45594000000E+02  0.51100000000E-03 0. -1.
         11   -1    0    0    0    0 -0.00000000000E+00 -0.00000000000E+00 -0.45593999997E+02  0.45594000000E+02  0.51100000000E-03 0.  1.
    9900012    2    1    2    0    0 -0.22803348569E+02 -0.45010170506E+01  0.36652032967E+02  0.47787269809E+02  0.19999994369E+02 0.  0.
        -12    1    1    2    0    0  0.22803348569E+02  0.45010170506E+01 -0.36652032967E+02  0.43400730191E+02  0.00000000000E+00 0.  1.
         11    1    3    3    0    0 -0.36350097587E+01 -0.42221907087E+01  0.10042788128E+02  0.11484676050E+02  0.51100000000E-03 0. -1.
        -11    1    3    3    0    0 -0.27651011430E+01  0.43319520232E+01  0.55180632016E+00  0.51687603096E+01  0.51100000000E-03 0.  1.
        -12    1    3    3    0    0 -0.16403237668E+02 -0.46107783651E+01  0.26057438519E+02  0.31133833450E+02  0.00000000000E+00 0.  1.
</event>
<event>
 7    1  0.1322363E-009  0.4778729E+02  0.7816164E-02  0.1312668E+00
        -11   -1    0    0    0    0  0.00000000000E+00  0.00000000000E+00  0.45593999997E+02  0.45594000000E+02  0.51100000000E-03 0.  1.
         11   -1    0    0    0    0 -0.00000000000E+00 -0.00000000000E+00 -0.45593999997E+02  0.45594000000E+02  0.51100000000E-03 0. -1.
    9900012    2    1    2    0    0 -0.28197960125E+02 -0.87596413197E+01 -0.31808258282E+02  0.47787290718E+02  0.20000089700E+02 0.  0.
        -12    1    1    2    0    0  0.28197960125E+02  0.87596413197E+01  0.31808258282E+02  0.43400709282E+02  0.00000000000E+00 0.  1.
         11    1    3    3    0    0 -0.20224490406E+01 -0.49418929521E+01 -0.11833602660E+02  0.12982555921E+02  0.51100000000E-03 0. -1.
        -11    1    3    3    0    0 -0.42504622852E+01  0.27613577301E+01 -0.12235795049E+01  0.52142759054E+01  0.51100000000E-03 0.  1.
         12    1    3    3    0    0 -0.21925048799E+02 -0.65791060978E+01 -0.18751076117E+02  0.29590458892E+02  0.00000000000E+00 0. -1.
</event>
<event>
 7    1  0.1322363E-009  0.4778726E+02  0.7816164E-02  0.1312668E+00
        -11   -1    0    0    0    0  0.00000000000E+00  0.00000000000E+00  0.45593999997E+02  0.45594000000E+02  0.51100000000E-03 0.  1.
         11   -1    0    0    0    0 -0.00000000000E+00 -0.00000000000E+00 -0.45593999997E+02  0.45594000000E+02  0.51100000000E-03 0. -1.
    9900012    2    1    2    0    0 -0.24615015564E+02  0.34546502532E+02 -0.91795420801E+01  0.47787264739E+02  0.19999971253E+02 0.  0.
        -12    1    1    2    0    0  0.24615015564E+02 -0.34546502532E+02  0.91795420801E+01  0.43400735261E+02  0.00000000000E+00 0.  1.
         11    1    3    3    0    0 -0.11200136121E+02  0.16615018352E+02  0.76777407561E+00  0.20052215869E+02  0.51100000000E-03 0. -1.
        -11    1    3    3    0    0 -0.51205292279E+01 -0.99180384793E+00 -0.16566598445E+01  0.54724780994E+01  0.51100000000E-03 0.  1.
         12    1    3    3    0    0 -0.82943502145E+01  0.18923288027E+02 -0.82906563112E+01  0.22262570770E+02  0.00000000000E+00 0. -1.
</event>
<event>
 7    1  0.1322363E-009  0.4778727E+02  0.7816164E-02  0.1312668E+00
        -11   -1    0    0    0    0  0.00000000000E+00  0.00000000000E+00  0.45593999997E+02  0.45594000000E+02  0.51100000000E-03 0.  1.
         11   -1    0    0    0    0 -0.00000000000E+00 -0.00000000000E+00 -0.45593999997E+02  0.45594000000E+02  0.51100000000E-03 0. -1.
    9900012    2    1    2    0    0 -0.93196705709E+01 -0.92185110621E+01 -0.41373732567E+02  0.47787274749E+02  0.20000016891E+02 0.  0.
        -12    1    1    2    0    0  0.93196705709E+01  0.92185110621E+01  0.41373732567E+02  0.43400725251E+02  0.00000000000E+00 0.  1.
         11    1    3    3    0    0 -0.10928961539E+02 -0.39028135431E+01 -0.21036266267E+02  0.24024958951E+02  0.51100000000E-03 0. -1.
        -11    1    3    3    0    0  0.42481285301E+00 -0.80599705246E+01 -0.92368795044E+01  0.12266357816E+02  0.51100000000E-03 0.  1.
        -12    1    3    3    0    0  0.11844781149E+01  0.27442730056E+01 -0.11100586796E+02  0.11495957983E+02  0.00000000000E+00 0.  1.
</event>
<event>
 7    1  0.1322363E-009  0.4778727E+02  0.7816164E-02  0.1312668E+00
        -11   -1    0    0    0    0  0.00000000000E+00  0.00000000000E+00  0.45593999997E+02  0.45594000000E+02  0.51100000000E-03 0.  1.
         11   -1    0    0    0    0 -0.00000000000E+00 -0.00000000000E+00 -0.45593999997E+02  0.45594000000E+02  0.51100000000E-03 0. -1.
    9900012    2    1    2    0    0 -0.33931362961E+02  0.27026793825E+02 -0.13558968255E+01  0.47787269211E+02  0.19999991640E+02 0.  0.
        -12    1    1    2    0    0  0.33931362961E+02 -0.27026793825E+02  0.13558968255E+01  0.43400730789E+02  0.00000000000E+00 0.  1.
         11    1    3    3    0    0 -0.24941290024E+01  0.71855893530E+01  0.67232866980E+00  0.76357972689E+01  0.51100000000E-03 0. -1.
        -11    1    3    3    0    0 -0.30080680018E+02  0.12399845643E+02 -0.16273873589E+01  0.32576860993E+02  0.51100000000E-03 0.  1.
        -12    1    3    3    0    0 -0.13565539408E+01  0.74413588291E+01 -0.40083813640E+00  0.75746109490E+01  0.00000000000E+00 0.  1.
</event>
<event>
 7    1  0.1322363E-009  0.4778727E+02  0.7816164E-02  0.1312668E+00
        -11   -1    0    0    0    0  0.00000000000E+00  0.00000000000E+00  0.45593999997E+02  0.45594000000E+02  0.51100000000E-03 0. -1.
         11   -1    0    0    0    0 -0.00000000000E+00 -0.00000000000E+00 -0.45593999997E+02  0.45594000000E+02  0.51100000000E-03 0.  1.
    9900012    2    1    2    0    0  0.35181583987E+02  0.17041820649E+01  0.25356958059E+02  0.47787269472E+02  0.19999992832E+02 0.  0.
        -12    1    1    2    0    0 -0.35181583987E+02 -0.17041820649E+01 -0.25356958059E+02  0.43400730528E+02  0.00000000000E+00 0.  1.
         11    1    3    3    0    0  0.34873034158E+01 -0.53502003022E+01  0.44288816968E+01  0.77718029911E+01  0.51100000000E-03 0. -1.
        -11    1    3    3    0    0  0.51057248373E+01  0.53750117717E+01  0.36657827368E+01  0.82702564044E+01  0.51100000000E-03 0.  1.
         12    1    3    3    0    0  0.26588555734E+02  0.16793705954E+01  0.17262293626E+02  0.31745210077E+02  0.00000000000E+00 0. -1.
</event>
<event>
 7    1  0.1322363E-009  0.4778730E+02  0.7816164E-02  0.1312668E+00
        -11   -1    0    0    0    0  0.00000000000E+00  0.00000000000E+00  0.45593999997E+02  0.45594000000E+02  0.51100000000E-03 0.  1.
         11   -1    0    0    0    0 -0.00000000000E+00 -0.00000000000E+00 -0.45593999997E+02  0.45594000000E+02  0.51100000000E-03 0. -1.
    9900012    2    1    2    0    0  0.23831198368E+02 -0.34876461475E+02 -0.99663009887E+01  0.47787300282E+02  0.20000133304E+02 0.  0.
        -12    1    1    2    0    0 -0.23831198368E+02  0.34876461475E+02  0.99663009887E+01  0.43400699718E+02  0.00000000000E+00 0.  1.
         11    1    3    3    0    0  0.95103367365E+01 -0.16487950521E+02  0.95316140318E+00  0.19058004464E+02  0.51100000000E-03 0. -1.
        -11    1    3    3    0    0  0.16906523255E+01 -0.92458210491E+01  0.48498267171E+00  0.94116268844E+01  0.51100000000E-03 0.  1.
         12    1    3    3    0    0  0.12630209306E+02 -0.91426899040E+01 -0.11404445064E+02  0.19317668933E+02  0.00000000000E+00 0. -1.
</event>
<event>
 7    1  0.1322363E-009  0.4778727E+02  0.7816164E-02  0.1312668E+00
        -11   -1    0    0    0    0  0.00000000000E+00  0.00000000000E+00  0.45593999997E+02  0.45594000000E+02  0.51100000000E-03 0.  1.
         11   -1    0    0    0    0 -0.00000000000E+00 -0.00000000000E+00 -0.45593999997E+02  0.45594000000E+02  0.51100000000E-03 0. -1.
    9900012    2    1    2    0    0 -0.12468388880E+02  0.70108135179E+01 -0.40975738446E+02  0.47787269952E+02  0.19999995020E+02 0.  0.
        -12    1    1    2    0    0  0.12468388880E+02 -0.70108135179E+01  0.40975738446E+02  0.43400730048E+02  0.00000000000E+00 0.  1.
         11    1    3    3    0    0 -0.10947621608E+02  0.47380946466E+01 -0.13511351280E+02  0.18023778001E+02  0.51100000000E-03 0. -1.
        -11    1    3    3    0    0  0.35249926457E+01  0.28687465443E+01 -0.51086619112E+01  0.68376682189E+01  0.51100000000E-03 0.  1.
         12    1    3    3    0    0 -0.50457599180E+01 -0.59602767299E+00 -0.22355725255E+02  0.22925823732E+02  0.00000000000E+00 0. -1.
</event>
<event>
 7    1  0.1322363E-009  0.4778727E+02  0.7816164E-02  0.1312668E+00
        -11   -1    0    0    0    0  0.00000000000E+00  0.00000000000E+00  0.45593999997E+02  0.45594000000E+02  0.51100000000E-03 0.  1.
         11   -1    0    0    0    0 -0.00000000000E+00 -0.00000000000E+00 -0.45593999997E+02  0.45594000000E+02  0.51100000000E-03 0. -1.
    9900012    2    1    2    0    0 -0.30070345490E+01 -0.49713135205E+01 -0.43010082394E+02  0.47787269563E+02  0.19999993245E+02 0.  0.
        -12    1    1    2    0    0  0.30070345490E+01  0.49713135205E+01  0.43010082394E+02  0.43400730437E+02  0.00000000000E+00 0.  1.
         11    1    3    3    0    0  0.16725153136E+00  0.11173204243E+01 -0.17006390808E+02  0.17043875926E+02  0.51100000000E-03 0. -1.
        -11    1    3    3    0    0 -0.58988392299E+01 -0.98272139141E+01 -0.21032138923E+02  0.23952480154E+02  0.51100000000E-03 0.  1.
        -12    1    3    3    0    0  0.27245531495E+01  0.37385799694E+01 -0.49715526635E+01  0.67909134834E+01  0.00000000000E+00 0.  1.
</event>
<event>
 7    1  0.1322363E-009  0.4778727E+02  0.7816164E-02  0.1312668E+00
        -11   -1    0    0    0    0  0.00000000000E+00  0.00000000000E+00  0.45593999997E+02  0.45594000000E+02  0.51100000000E-03 0. -1.
         11   -1    0    0    0    0 -0.00000000000E+00 -0.00000000000E+00 -0.45593999997E+02  0.45594000000E+02  0.51100000000E-03 0.  1.
    9900012    2    1    2    0    0 -0.42319590594E+02  0.84482553887E+01 -0.46154376951E+01  0.47787273828E+02  0.20000012693E+02 0.  0.
        -12    1    1    2    0    0  0.42319590594E+02 -0.84482553887E+01  0.46154376951E+01  0.43400726172E+02  0.00000000000E+00 0.  1.
         11    1    3    3    0    0 -0.16511951544E+01 -0.23911698273E+01  0.15376403501E+01  0.32876247791E+01  0.51100000000E-03 0. -1.
        -11    1    3    3    0    0 -0.18419255090E+02  0.33758544285E+01 -0.91490638726E+01  0.20841562350E+02  0.51100000000E-03 0.  1.
         12    1    3    3    0    0 -0.22249140350E+02  0.74635707875E+01  0.29959858274E+01  0.23658086699E+02  0.00000000000E+00 0. -1.
</event>
<event>
 7    1  0.1322363E-009  0.4778728E+02  0.7816164E-02  0.1312668E+00
        -11   -1    0    0    0    0  0.00000000000E+00  0.00000000000E+00  0.45593999997E+02  0.45594000000E+02  0.51100000000E-03 0.  1.
         11   -1    0    0    0    0 -0.00000000000E+00 -0.00000000000E+00 -0.45593999997E+02  0.45594000000E+02  0.51100000000E-03 0. -1.
    9900012    2    1    2    0    0 -0.17504518717E+02 -0.37770791757E+01 -0.39534131697E+02  0.47787284894E+02  0.20000063148E+02 0.  0.
        -12    1    1    2    0    0  0.17504518717E+02  0.37770791757E+01  0.39534131697E+02  0.43400715106E+02  0.00000000000E+00 0.  1.
         11    1    3    3    0    0 -0.14526845315E+02 -0.81798937619E+00 -0.23768918764E+02  0.27868617492E+02  0.51100000000E-03 0. -1.
        -11    1    3    3    0    0 -0.19879181918E+01 -0.53696675524E+01 -0.22459679610E+01  0.61505707624E+01  0.51100000000E-03 0.  1.
         12    1    3    3    0    0 -0.98975521018E+00  0.24105777528E+01 -0.13519244972E+02  0.13768096640E+02  0.00000000000E+00 0. -1.
</event>
<event>
 7    1  0.1322363E-009  0.4778727E+02  0.7816164E-02  0.1312668E+00
        -11   -1    0    0    0    0  0.00000000000E+00  0.00000000000E+00  0.45593999997E+02  0.45594000000E+02  0.51100000000E-03 0.  1.
         11   -1    0    0    0    0 -0.00000000000E+00 -0.00000000000E+00 -0.45593999997E+02  0.45594000000E+02  0.51100000000E-03 0. -1.
    9900012    2    1    2    0    0 -0.64268773705E+01  0.42558227285E+02  0.55781805194E+01  0.47787267745E+02  0.19999984955E+02 0.  0.
        -12    1    1    2    0    0  0.64268773705E+01 -0.42558227285E+02 -0.55781805194E+01  0.43400732255E+02  0.00000000000E+00 0.  1.
         11    1    3    3    0    0 -0.92497022971E+01  0.97821130897E+01  0.19400437822E+01  0.13601856462E+02  0.51100000000E-03 0. -1.
        -11    1    3    3    0    0 -0.91968421911E+00  0.86643609574E+01  0.44249349621E+01  0.97722576482E+01  0.51100000000E-03 0.  1.
        -12    1    3    3    0    0  0.37425091457E+01  0.24111753238E+02 -0.78679822497E+00  0.24413153634E+02  0.00000000000E+00 0.  1.
</event>
<event>
 7    1  0.1322363E-009  0.4778726E+02  0.7816164E-02  0.1312668E+00
        -11   -1    0    0    0    0  0.00000000000E+00  0.00000000000E+00  0.45593999997E+02  0.45594000000E+02  0.51100000000E-03 0. -1.
         11   -1    0    0    0    0 -0.00000000000E+00 -0.00000000000E+00 -0.45593999997E+02  0.45594000000E+02  0.51100000000E-03 0.  1.
    9900012    2    1    2    0    0 -0.26378496346E+02  0.18766184331E+02  0.28907250618E+02  0.47787264037E+02  0.19999968051E+02 0.  0.
        -12    1    1    2    0    0  0.26378496346E+02 -0.18766184331E+02 -0.28907250618E+02  0.43400735963E+02  0.00000000000E+00 0.  1.
         11    1    3    3    0    0 -0.88864615090E+01  0.11353637845E+02  0.15814426508E+02  0.21400242441E+02  0.51100000000E-03 0. -1.
        -11    1    3    3    0    0 -0.58156341086E+01 -0.15755404071E+01  0.94514128001E+01  0.11208618641E+02  0.51100000000E-03 0.  1.
        -12    1    3    3    0    0 -0.11676400728E+02  0.89880868924E+01  0.36414113101E+01  0.15178402955E+02  0.00000000000E+00 0.  1.
</event>
<event>
 7    1  0.1322363E-009  0.4778727E+02  0.7816164E-02  0.1312668E+00
        -11   -1    0    0    0    0  0.00000000000E+00  0.00000000000E+00  0.45593999997E+02  0.45594000000E+02  0.51100000000E-03 0. -1.
         11   -1    0    0    0    0 -0.00000000000E+00 -0.00000000000E+00 -0.45593999997E+02  0.45594000000E+02  0.51100000000E-03 0.  1.
    9900012    2    1    2    0    0  0.22003464571E+01 -0.33091391059E+02  0.27995383026E+02  0.47787272385E+02  0.20000006113E+02 0.  0.
        -12    1    1    2    0    0 -0.22003464571E+01  0.33091391059E+02 -0.27995383026E+02  0.43400727615E+02  0.00000000000E+00 0.  1.
         11    1    3    3    0    0  0.11308623975E+01 -0.99642586355E+01  0.37348356344E+01  0.10701135332E+02  0.51100000000E-03 0. -1.
        -11    1    3    3    0    0  0.22479315360E+01 -0.15277480105E+02  0.24707275401E+02  0.29135958068E+02  0.51100000000E-03 0.  1.
         12    1    3    3    0    0 -0.11784474764E+01 -0.78496523185E+01 -0.44672800977E+00  0.79501789848E+01  0.00000000000E+00 0. -1.
</event>
<event>
 7    1  0.1322363E-009  0.4778725E+02  0.7816164E-02  0.1312668E+00
        -11   -1    0    0    0    0  0.00000000000E+00  0.00000000000E+00  0.45593999997E+02  0.45594000000E+02  0.51100000000E-03 0.  1.
         11   -1    0    0    0    0 -0.00000000000E+00 -0.00000000000E+00 -0.45593999997E+02  0.45594000000E+02  0.51100000000E-03 0. -1.
    9900012    2    1    2    0    0  0.24017247961E+02  0.28575731268E+02 -0.22141009205E+02  0.47787252245E+02  0.19999914284E+02 0.  0.
        -12    1    1    2    0    0 -0.24017247961E+02 -0.28575731268E+02  0.22141009205E+02  0.43400747755E+02  0.00000000000E+00 0.  1.
         11    1    3    3    0    0  0.37509735618E+00  0.46775116719E+00 -0.48979789599E+01  0.49345402353E+01  0.51100000000E-03 0. -1.
        -11    1    3    3    0    0 -0.13773018895E+00  0.25019327772E+00  0.16260899814E+01  0.16509800634E+01  0.51100000000E-03 0.  1.
        -12    1    3    3    0    0  0.23779880794E+02  0.27857786823E+02 -0.18869120226E+02  0.41201731946E+02  0.00000000000E+00 0.  1.
</event>
<event>
 7    1  0.1322363E-009  0.4778727E+02  0.7816164E-02  0.1312668E+00
        -11   -1    0    0    0    0  0.00000000000E+00  0.00000000000E+00  0.45593999997E+02  0.45594000000E+02  0.51100000000E-03 0. -1.
         11   -1    0    0    0    0 -0.00000000000E+00 -0.00000000000E+00 -0.45593999997E+02  0.45594000000E+02  0.51100000000E-03 0.  1.
    9900012    2    1    2    0    0 -0.18279824174E+02 -0.39360465759E+02 -0.47413224272E+00  0.47787273762E+02  0.20000012391E+02 0.  0.
        -12    1    1    2    0    0  0.18279824174E+02  0.39360465759E+02  0.47413224272E+00  0.43400726238E+02  0.00000000000E+00 0.  1.
         11    1    3    3    0    0 -0.51192826926E-01 -0.82632754056E+00  0.21109543128E+01  0.22675022121E+01  0.51100000000E-03 0. -1.
        -11    1    3    3    0    0 -0.17705651467E+02 -0.38148351536E+02  0.80830154747E+00  0.42064714078E+02  0.51100000000E-03 0.  1.
        -12    1    3    3    0    0 -0.52297988015E+00 -0.38578668216E+00 -0.33933881030E+01  0.34550574723E+01  0.00000000000E+00 0.  1.
</event>
<event>
 7    1  0.1322363E-009  0.4778727E+02  0.7816164E-02  0.1312668E+00
        -11   -1    0    0    0    0  0.00000000000E+00  0.00000000000E+00  0.45593999997E+02  0.45594000000E+02  0.51100000000E-03 0.  1.
         11   -1    0    0    0    0 -0.00000000000E+00 -0.00000000000E+00 -0.45593999997E+02  0.45594000000E+02  0.51100000000E-03 0. -1.
    9900012    2    1    2    0    0 -0.42552046797E+02  0.71196289380E+01 -0.47178222338E+01  0.47787266717E+02  0.19999980270E+02 0.  0.
        -12    1    1    2    0    0  0.42552046797E+02 -0.71196289380E+01  0.47178222338E+01  0.43400733283E+02  0.00000000000E+00 0.  1.
         11    1    3    3    0    0 -0.18092679979E+02 -0.34873536242E+00 -0.71226606121E+01  0.19447338626E+02  0.51100000000E-03 0. -1.
        -11    1    3    3    0    0 -0.25499171642E+02  0.57304184762E+01  0.16807570424E+01  0.26189127416E+02  0.51100000000E-03 0.  1.
         12    1    3    3    0    0  0.10398048241E+01  0.17379458242E+01  0.72408133587E+00  0.21508006744E+01  0.00000000000E+00 0. -1.
</event>
<event>
 7    1  0.1322363E-009  0.4778727E+02  0.7816164E-02  0.1312668E+00
        -11   -1    0    0    0    0  0.00000000000E+00  0.00000000000E+00  0.45593999997E+02  0.45594000000E+02  0.51100000000E-03 0.  1.
         11   -1    0    0    0    0 -0.00000000000E+00 -0.00000000000E+00 -0.45593999997E+02  0.45594000000E+02  0.51100000000E-03 0. -1.
    9900012    2    1    2    0    0 -0.37213569910E+02  0.19776766423E+02 -0.10375600006E+02  0.47787270155E+02  0.19999995944E+02 0.  0.
        -12    1    1    2    0    0  0.37213569910E+02 -0.19776766423E+02  0.10375600006E+02  0.43400729845E+02  0.00000000000E+00 0.  1.
         11    1    3    3    0    0 -0.51781771773E+01  0.39645090648E+01  0.34623296750E+01  0.73836696868E+01  0.51100000000E-03 0. -1.
        -11    1    3    3    0    0  0.45172053309E+00  0.30055244551E+01 -0.10536897735E+01  0.32167516364E+01  0.51100000000E-03 0.  1.
         12    1    3    3    0    0 -0.32487113266E+02  0.12806732903E+02 -0.12784239907E+02  0.37186848832E+02  0.00000000000E+00 0. -1.
</event>
<event>
 7    1  0.1322363E-009  0.4778730E+02  0.7816164E-02  0.1312668E+00
        -11   -1    0    0    0    0  0.00000000000E+00  0.00000000000E+00  0.45593999997E+02  0.45594000000E+02  0.51100000000E-03 0. -1.
         11   -1    0    0    0    0 -0.00000000000E+00 -0.00000000000E+00 -0.45593999997E+02  0.45594000000E+02  0.51100000000E-03 0.  1.
    9900012    2    1    2    0    0 -0.10135714784E+02  0.42184429982E+02 -0.11669737817E+01  0.47787300986E+02  0.20000136514E+02 0.  0.
        -12    1    1    2    0    0  0.10135714784E+02 -0.42184429982E+02  0.11669737817E+01  0.43400699014E+02  0.00000000000E+00 0.  1.
         11    1    3    3    0    0 -0.95590616047E+01  0.21836386385E+02 -0.12135077865E+01  0.23867887014E+02  0.51100000000E-03 0. -1.
        -11    1    3    3    0    0 -0.47975059391E+01  0.16584234123E+02  0.30258572634E+01  0.17527369943E+02  0.51100000000E-03 0.  1.
        -12    1    3    3    0    0  0.42208527599E+01  0.37638094743E+01 -0.29793232586E+01  0.63920440282E+01  0.00000000000E+00 0.  1.
</event>
<event>
 7    1  0.1322363E-009  0.4778727E+02  0.7816164E-02  0.1312668E+00
        -11   -1    0    0    0    0  0.00000000000E+00  0.00000000000E+00  0.45593999997E+02  0.45594000000E+02  0.51100000000E-03 0.  1.
         11   -1    0    0    0    0 -0.00000000000E+00 -0.00000000000E+00 -0.45593999997E+02  0.45594000000E+02  0.51100000000E-03 0. -1.
    9900012    2    1    2    0    0 -0.64787650056E+00 -0.36870883648E+02 -0.22885393902E+02  0.47787273520E+02  0.20000011287E+02 0.  0.
        -12    1    1    2    0    0  0.64787650056E+00  0.36870883648E+02  0.22885393902E+02  0.43400726480E+02  0.00000000000E+00 0.  1.
         11    1    3    3    0    0  0.53983164451E+01 -0.16982051347E+02 -0.76802765404E+01  0.19404085559E+02  0.51100000000E-03 0. -1.
        -11    1    3    3    0    0  0.11111517379E+01 -0.13308188266E+02 -0.49254834165E+01  0.14233865260E+02  0.51100000000E-03 0.  1.
        -12    1    3    3    0    0 -0.71573446836E+01 -0.65806440351E+01 -0.10279633945E+02  0.14149322700E+02  0.00000000000E+00 0.  1.
</event>
<event>
 7    1  0.1322363E-009  0.4778727E+02  0.7816164E-02  0.1312668E+00
        -11   -1    0    0    0    0  0.00000000000E+00  0.00000000000E+00  0.45593999997E+02  0.45594000000E+02  0.51100000000E-03 0.  1.
         11   -1    0    0    0    0 -0.00000000000E+00 -0.00000000000E+00 -0.45593999997E+02  0.45594000000E+02  0.51100000000E-03 0. -1.
    9900012    2    1    2    0    0  0.27576295373E+02  0.22545885709E+02 -0.24796249439E+02  0.47787274025E+02  0.20000013590E+02 0.  0.
        -12    1    1    2    0    0 -0.27576295373E+02 -0.22545885709E+02  0.24796249439E+02  0.43400725975E+02  0.00000000000E+00 0.  1.
         11    1    3    3    0    0 -0.99197035541E+00  0.20125301880E+01  0.17039657604E+00  0.22501818144E+01  0.51100000000E-03 0.  1.
        -11    1    3    3    0    0  0.24336727230E+02  0.21700200600E+02 -0.17841673599E+02  0.37168539324E+02  0.51100000000E-03 0. -1.
         12    1    3    3    0    0  0.42315384986E+01 -0.11668450791E+01 -0.71249724152E+01  0.83685528869E+01  0.00000000000E+00 0. -1.
</event>
<event>
 7    1  0.1322363E-009  0.4778727E+02  0.7816164E-02  0.1312668E+00
        -11   -1    0    0    0    0  0.00000000000E+00  0.00000000000E+00  0.45593999997E+02  0.45594000000E+02  0.51100000000E-03 0.  1.
         11   -1    0    0    0    0 -0.00000000000E+00 -0.00000000000E+00 -0.45593999997E+02  0.45594000000E+02  0.51100000000E-03 0. -1.
    9900012    2    1    2    0    0  0.10841105737E+02 -0.15798417619E+02 -0.38942308429E+02  0.47787274676E+02  0.20000016557E+02 0.  0.
        -12    1    1    2    0    0 -0.10841105737E+02  0.15798417619E+02  0.38942308429E+02  0.43400725324E+02  0.00000000000E+00 0.  1.
         11    1    3    3    0    0 -0.28771180944E+00 -0.39745960755E+01 -0.24949664728E+02  0.25265905137E+02  0.51100000000E-03 0. -1.
        -11    1    3    3    0    0  0.18439826880E+01 -0.65857203525E+01 -0.40752679454E+01  0.79611427448E+01  0.51100000000E-03 0.  1.
        -12    1    3    3    0    0  0.92848348580E+01 -0.52381011913E+01 -0.99173757555E+01  0.14560226794E+02  0.00000000000E+00 0.  1.
</event>
<event>
 7    1  0.1322363E-009  0.4778727E+02  0.7816164E-02  0.1312668E+00
        -11   -1    0    0    0    0  0.00000000000E+00  0.00000000000E+00  0.45593999997E+02  0.45594000000E+02  0.51100000000E-03 0.  1.
         11   -1    0    0    0    0 -0.00000000000E+00 -0.00000000000E+00 -0.45593999997E+02  0.45594000000E+02  0.51100000000E-03 0. -1.
    9900012    2    1    2    0    0  0.10747382401E+02 -0.36301727817E+02 -0.21220313673E+02  0.47787269783E+02  0.19999994249E+02 0.  0.
        -12    1    1    2    0    0 -0.10747382401E+02  0.36301727817E+02  0.21220313673E+02  0.43400730217E+02  0.00000000000E+00 0.  1.
         11    1    3    3    0    0  0.80803900389E+01 -0.21761764530E+02 -0.13567534500E+02  0.26887638262E+02  0.51100000000E-03 0. -1.
        -11    1    3    3    0    0 -0.35584876100E+01 -0.75889432404E+01 -0.79655528503E+01  0.11563084625E+02  0.51100000000E-03 0.  1.
        -12    1    3    3    0    0  0.62254799716E+01 -0.69510200466E+01  0.31277367731E+00  0.93365468958E+01  0.00000000000E+00 0.  1.
</event>
<event>
 7    1  0.1322363E-009  0.4778727E+02  0.7816164E-02  0.1312668E+00
        -11   -1    0    0    0    0  0.00000000000E+00  0.00000000000E+00  0.45593999997E+02  0.45594000000E+02  0.51100000000E-03 0.  1.
         11   -1    0    0    0    0 -0.00000000000E+00 -0.00000000000E+00 -0.45593999997E+02  0.45594000000E+02  0.51100000000E-03 0. -1.
    9900012    2    1    2    0    0  0.22910926627E+02 -0.31224817275E+02 -0.19588862304E+02  0.47787270754E+02  0.19999998675E+02 0.  0.
        -12    1    1    2    0    0 -0.22910926627E+02  0.31224817275E+02  0.19588862304E+02  0.43400729246E+02  0.00000000000E+00 0.  1.
         11    1    3    3    0    0  0.79935225279E+01 -0.15756411346E+02 -0.58548366989E+01  0.18612899128E+02  0.51100000000E-03 0. -1.
        -11    1    3    3    0    0  0.24981990227E+01 -0.12788516690E+02 -0.72165168873E+01  0.14895142622E+02  0.51100000000E-03 0.  1.
         12    1    3    3    0    0  0.12419205077E+02 -0.26798892387E+01 -0.65175087174E+01  0.14279229004E+02  0.00000000000E+00 0. -1.
</event>
<event>
 7    1  0.1322363E-009  0.4778727E+02  0.7816164E-02  0.1312668E+00
        -11   -1    0    0    0    0  0.00000000000E+00  0.00000000000E+00  0.45593999997E+02  0.45594000000E+02  0.51100000000E-03 0.  1.
         11   -1    0    0    0    0 -0.00000000000E+00 -0.00000000000E+00 -0.45593999997E+02  0.45594000000E+02  0.51100000000E-03 0. -1.
    9900012    2    1    2    0    0  0.66179616153E+01  0.42886506539E+02 -0.75714488524E+00  0.47787272731E+02  0.20000007692E+02 0.  0.
        -12    1    1    2    0    0 -0.66179616153E+01 -0.42886506539E+02  0.75714488524E+00  0.43400727269E+02  0.00000000000E+00 0.  1.
         11    1    3    3    0    0  0.11965913119E+00  0.23243979086E+02 -0.27499787641E+01  0.23406393689E+02  0.51100000000E-03 0. -1.
        -11    1    3    3    0    0  0.91022362291E+01  0.10636703559E+02 -0.20915993971E+01  0.14155032860E+02  0.51100000000E-03 0.  1.
         12    1    3    3    0    0 -0.26039337450E+01  0.90058238940E+01  0.40844332760E+01  0.10225846182E+02  0.00000000000E+00 0. -1.
</event>
<event>
 7    1  0.1322363E-009  0.4778727E+02  0.7816164E-02  0.1312668E+00
        -11   -1    0    0    0    0  0.00000000000E+00  0.00000000000E+00  0.45593999997E+02  0.45594000000E+02  0.51100000000E-03 0.  1.
         11   -1    0    0    0    0 -0.00000000000E+00 -0.00000000000E+00 -0.45593999997E+02  0.45594000000E+02  0.51100000000E-03 0. -1.
    9900012    2    1    2    0    0  0.42957332057E+02  0.61411073860E+01  0.76023570749E+00  0.47787268028E+02  0.19999986248E+02 0.  0.
        -12    1    1    2    0    0 -0.42957332057E+02 -0.61411073860E+01 -0.76023570749E+00  0.43400731972E+02  0.00000000000E+00 0.  1.
         11    1    3    3    0    0  0.58438302563E+01  0.13242915450E+01  0.58552222421E+01  0.83778116430E+01  0.51100000000E-03 0. -1.
        -11    1    3    3    0    0  0.19750789567E+02 -0.26267183471E+01 -0.33287177980E+00  0.19927472034E+02  0.51100000000E-03 0.  1.
         12    1    3    3    0    0  0.17362712233E+02  0.74435341881E+01 -0.47621147548E+01  0.19481984351E+02  0.00000000000E+00 0. -1.
</event>
<event>
 7    1  0.1322363E-009  0.4778728E+02  0.7816164E-02  0.1312668E+00
        -11   -1    0    0    0    0  0.00000000000E+00  0.00000000000E+00  0.45593999997E+02  0.45594000000E+02  0.51100000000E-03 0.  1.
         11   -1    0    0    0    0 -0.00000000000E+00 -0.00000000000E+00 -0.45593999997E+02  0.45594000000E+02  0.51100000000E-03 0. -1.
    9900012    2    1    2    0    0 -0.37175018557E+02  0.17800298816E+02 -0.13593745886E+02  0.47787279155E+02  0.20000036979E+02 0.  0.
        -12    1    1    2    0    0  0.37175018557E+02 -0.17800298816E+02  0.13593745886E+02  0.43400720845E+02  0.00000000000E+00 0.  1.
         11    1    3    3    0    0 -0.23027883367E+02  0.12715952728E+02 -0.60336782926E+01  0.26988592778E+02  0.51100000000E-03 0. -1.
        -11    1    3    3    0    0 -0.78564315922E+01 -0.12101517361E+01  0.15108537441E+01  0.80913944339E+01  0.51100000000E-03 0.  1.
        -12    1    3    3    0    0 -0.62907035977E+01  0.62944978242E+01 -0.90709213377E+01  0.12707291943E+02  0.00000000000E+00 0.  1.
</event>
<event>
 7    1  0.1322363E-009  0.4778727E+02  0.7816164E-02  0.1312668E+00
        -11   -1    0    0    0    0  0.00000000000E+00  0.00000000000E+00  0.45593999997E+02  0.45594000000E+02  0.51100000000E-03 0.  1.
         11   -1    0    0    0    0 -0.00000000000E+00 -0.00000000000E+00 -0.45593999997E+02  0.45594000000E+02  0.51100000000E-03 0. -1.
    9900012    2    1    2    0    0  0.39036369768E+02 -0.14154951789E+02 -0.12626262155E+02  0.47787270503E+02  0.19999997533E+02 0.  0.
        -12    1    1    2    0    0 -0.39036369768E+02  0.14154951789E+02  0.12626262155E+02  0.43400729497E+02  0.00000000000E+00 0.  1.
         11    1    3    3    0    0  0.21015612138E+02  0.21835818369E+01 -0.19830491027E+01  0.21221603784E+02  0.51100000000E-03 0. -1.
        -11    1    3    3    0    0  0.52287104496E+01 -0.45447204617E+01 -0.34330605066E+01  0.77317398911E+01  0.51100000000E-03 0.  1.
         12    1    3    3    0    0  0.12792047181E+02 -0.11793813164E+02 -0.72101525461E+01  0.18833926828E+02  0.00000000000E+00 0. -1.
</event>
<event>
 7    1  0.1322363E-009  0.4778727E+02  0.7816164E-02  0.1312668E+00
        -11   -1    0    0    0    0  0.00000000000E+00  0.00000000000E+00  0.45593999997E+02  0.45594000000E+02  0.51100000000E-03 0.  1.
         11   -1    0    0    0    0 -0.00000000000E+00 -0.00000000000E+00 -0.45593999997E+02  0.45594000000E+02  0.51100000000E-03 0. -1.
    9900012    2    1    2    0    0  0.83270987954E+01 -0.24820969556E+02 -0.34615055467E+02  0.47787272252E+02  0.20000005508E+02 0.  0.
        -12    1    1    2    0    0 -0.83270987954E+01  0.24820969556E+02  0.34615055467E+02  0.43400727748E+02  0.00000000000E+00 0.  1.
         11    1    3    3    0    0  0.72976796439E+01 -0.51213063947E+01 -0.48117067386E+01  0.10130963892E+02  0.51100000000E-03 0. -1.
        -11    1    3    3    0    0  0.63724115867E+01 -0.95196004454E+01 -0.16276682626E+02  0.19903789077E+02  0.51100000000E-03 0.  1.
        -12    1    3    3    0    0 -0.53429924353E+01 -0.10180062716E+02 -0.13526666102E+02  0.17752519283E+02  0.00000000000E+00 0.  1.
</event>
<event>
 7    1  0.1322363E-009  0.4778727E+02  0.7816164E-02  0.1312668E+00
        -11   -1    0    0    0    0  0.00000000000E+00  0.00000000000E+00  0.45593999997E+02  0.45594000000E+02  0.51100000000E-03 0.  1.
         11   -1    0    0    0    0 -0.00000000000E+00 -0.00000000000E+00 -0.45593999997E+02  0.45594000000E+02  0.51100000000E-03 0. -1.
    9900012    2    1    2    0    0  0.27329830944E+02 -0.91847522475E+01 -0.32439855878E+02  0.47787267487E+02  0.19999983780E+02 0.  0.
        -12    1    1    2    0    0 -0.27329830944E+02  0.91847522475E+01  0.32439855878E+02  0.43400732513E+02  0.00000000000E+00 0.  1.
         11    1    3    3    0    0  0.52696305350E+01 -0.26836170105E+01 -0.11276546713E+02  0.12733079449E+02  0.51100000000E-03 0. -1.
        -11    1    3    3    0    0  0.76721351471E+01 -0.11736098021E+01  0.12815728525E+01  0.78664761438E+01  0.51100000000E-03 0.  1.
        -12    1    3    3    0    0  0.14388065262E+02 -0.53275254349E+01 -0.22444882018E+02  0.27187711894E+02  0.00000000000E+00 0.  1.
</event>
<event>
 7    1  0.1322363E-009  0.4778726E+02  0.7816164E-02  0.1312668E+00
        -11   -1    0    0    0    0  0.00000000000E+00  0.00000000000E+00  0.45593999997E+02  0.45594000000E+02  0.51100000000E-03 0. -1.
         11   -1    0    0    0    0 -0.00000000000E+00 -0.00000000000E+00 -0.45593999997E+02  0.45594000000E+02  0.51100000000E-03 0.  1.
    9900012    2    1    2    0    0  0.32058572852E+02  0.19243131631E+02  0.22035752342E+02  0.47787255887E+02  0.19999930890E+02 0.  0.
        -12    1    1    2    0    0 -0.32058572852E+02 -0.19243131631E+02 -0.22035752342E+02  0.43400744113E+02  0.00000000000E+00 0.  1.
         11    1    3    3    0    0  0.14843846240E+02  0.60468095517E+01  0.40656467353E+01  0.16535814482E+02  0.51100000000E-03 0. -1.
        -11    1    3    3    0    0  0.46817561994E+01 -0.21301262869E+01  0.67776240794E+01  0.85083763158E+01  0.51100000000E-03 0.  1.
         12    1    3    3    0    0  0.12532970413E+02  0.15326448366E+02  0.11192481528E+02  0.22743065089E+02  0.00000000000E+00 0. -1.
</event>
<event>
 7    1  0.1322363E-009  0.4778727E+02  0.7816164E-02  0.1312668E+00
        -11   -1    0    0    0    0  0.00000000000E+00  0.00000000000E+00  0.45593999997E+02  0.45594000000E+02  0.51100000000E-03 0.  1.
         11   -1    0    0    0    0 -0.00000000000E+00 -0.00000000000E+00 -0.45593999997E+02  0.45594000000E+02  0.51100000000E-03 0. -1.
    9900012    2    1    2    0    0  0.11421225849E+02  0.34233754388E+02  0.24108690643E+02  0.47787270699E+02  0.19999998424E+02 0.  0.
        -12    1    1    2    0    0 -0.11421225849E+02 -0.34233754388E+02 -0.24108690643E+02  0.43400729301E+02  0.00000000000E+00 0.  1.
         11    1    3    3    0    0  0.16343716978E+01  0.17263679217E+01  0.40995930752E+01  0.47390062978E+01  0.51100000000E-03 0.  1.
        -11    1    3    3    0    0  0.70015411711E+00 -0.18578864105E+01 -0.44844017842E+00  0.20354499642E+01  0.51100000000E-03 0. -1.
         12    1    3    3    0    0  0.90867000341E+01  0.34365272876E+02  0.20457537746E+02  0.41012814437E+02  0.00000000000E+00 0. -1.
</event>
<event>
 7    1  0.1322363E-009  0.4778727E+02  0.7816164E-02  0.1312668E+00
        -11   -1    0    0    0    0  0.00000000000E+00  0.00000000000E+00  0.45593999997E+02  0.45594000000E+02  0.51100000000E-03 0.  1.
         11   -1    0    0    0    0 -0.00000000000E+00 -0.00000000000E+00 -0.45593999997E+02  0.45594000000E+02  0.51100000000E-03 0. -1.
    9900012    2    1    2    0    0  0.10532704985E+02  0.38080645955E+02 -0.17959664223E+02  0.47787274089E+02  0.20000013880E+02 0.  0.
        -12    1    1    2    0    0 -0.10532704985E+02 -0.38080645955E+02  0.17959664223E+02  0.43400725911E+02  0.00000000000E+00 0.  1.
         11    1    3    3    0    0 -0.17044346042E+00 -0.15933305996E+01  0.18903442230E+00  0.16135326606E+01  0.51100000000E-03 0.  1.
        -11    1    3    3    0    0 -0.10154302205E+01  0.15950007241E+02 -0.62446203722E+01  0.17158936837E+02  0.51100000000E-03 0. -1.
        -12    1    3    3    0    0  0.11718578665E+02  0.23723969313E+02 -0.11904078273E+02  0.29014804591E+02  0.00000000000E+00 0.  1.
</event>
<event>
 7    1  0.1322363E-009  0.4778727E+02  0.7816164E-02  0.1312668E+00
        -11   -1    0    0    0    0  0.00000000000E+00  0.00000000000E+00  0.45593999997E+02  0.45594000000E+02  0.51100000000E-03 0.  1.
         11   -1    0    0    0    0 -0.00000000000E+00 -0.00000000000E+00 -0.45593999997E+02  0.45594000000E+02  0.51100000000E-03 0. -1.
    9900012    2    1    2    0    0  0.56445535168E+01 -0.23861652185E+02 -0.35810388208E+02  0.47787270363E+02  0.19999996894E+02 0.  0.
        -12    1    1    2    0    0 -0.56445535168E+01  0.23861652185E+02  0.35810388208E+02  0.43400729637E+02  0.00000000000E+00 0.  1.
         11    1    3    3    0    0  0.33069324365E+01 -0.67006235120E+01 -0.59125028378E+01  0.95284756209E+01  0.51100000000E-03 0. -1.
        -11    1    3    3    0    0  0.82811969544E+01 -0.87275713705E+01 -0.92476773960E+01  0.15174592664E+02  0.51100000000E-03 0.  1.
        -12    1    3    3    0    0 -0.59435758741E+01 -0.84334573023E+01 -0.20650207974E+02  0.23084202079E+02  0.00000000000E+00 0.  1.
</event>
<event>
 7    1  0.1322363E-009  0.4778727E+02  0.7816164E-02  0.1312668E+00
        -11   -1    0    0    0    0  0.00000000000E+00  0.00000000000E+00  0.45593999997E+02  0.45594000000E+02  0.51100000000E-03 0.  1.
         11   -1    0    0    0    0 -0.00000000000E+00 -0.00000000000E+00 -0.45593999997E+02  0.45594000000E+02  0.51100000000E-03 0. -1.
    9900012    2    1    2    0    0  0.10916941782E+02  0.32845914912E+02 -0.26183763681E+02  0.47787271610E+02  0.20000002579E+02 0.  0.
        -12    1    1    2    0    0 -0.10916941782E+02 -0.32845914912E+02  0.26183763681E+02  0.43400728390E+02  0.00000000000E+00 0.  1.
         11    1    3    3    0    0  0.19093294313E+01  0.19345790765E+02 -0.48718640212E+01  0.20040963512E+02  0.51100000000E-03 0. -1.
        -11    1    3    3    0    0  0.76411397433E+01  0.98141591671E+01 -0.10621604393E+02  0.16356136979E+02  0.51100000000E-03 0.  1.
        -12    1    3    3    0    0  0.13664726069E+01  0.36859649796E+01 -0.10690295267E+02  0.11390171118E+02  0.00000000000E+00 0.  1.
</event>
<event>
 7    1  0.1322363E-009  0.4778727E+02  0.7816164E-02  0.1312668E+00
        -11   -1    0    0    0    0  0.00000000000E+00  0.00000000000E+00  0.45593999997E+02  0.45594000000E+02  0.51100000000E-03 0.  1.
         11   -1    0    0    0    0 -0.00000000000E+00 -0.00000000000E+00 -0.45593999997E+02  0.45594000000E+02  0.51100000000E-03 0. -1.
    9900012    2    1    2    0    0  0.42759165194E+02  0.97071985079E+00  0.73712030213E+01  0.47787272597E+02  0.20000007079E+02 0.  0.
        -12    1    1    2    0    0 -0.42759165194E+02 -0.97071985079E+00 -0.73712030213E+01  0.43400727403E+02  0.00000000000E+00 0.  1.
         11    1    3    3    0    0  0.25104280328E+02 -0.43256795476E+00 -0.57777514826E+00  0.25114653695E+02  0.51100000000E-03 0. -1.
        -11    1    3    3    0    0  0.99815345494E+01  0.65905917769E+01  0.41303544925E+01  0.12654120294E+02  0.51100000000E-03 0.  1.
        -12    1    3    3    0    0  0.76733503166E+01 -0.51873039713E+01  0.38186236771E+01  0.10018498608E+02  0.00000000000E+00 0.  1.
</event>
<event>
 7    1  0.1322363E-009  0.4778729E+02  0.7816164E-02  0.1312668E+00
        -11   -1    0    0    0    0  0.00000000000E+00  0.00000000000E+00  0.45593999997E+02  0.45594000000E+02  0.51100000000E-03 0. -1.
         11   -1    0    0    0    0 -0.00000000000E+00 -0.00000000000E+00 -0.45593999997E+02  0.45594000000E+02  0.51100000000E-03 0.  1.
    9900012    2    1    2    0    0  0.17605852265E+02  0.32617510549E+02 -0.22577723433E+02  0.47787290054E+02  0.20000086673E+02 0.  0.
        -12    1    1    2    0    0 -0.17605852265E+02 -0.32617510549E+02  0.22577723433E+02  0.43400709946E+02  0.00000000000E+00 0.  1.
         11    1    3    3    0    0  0.13164509981E+02  0.14015820131E+02 -0.11811862575E+02  0.22566958916E+02  0.51100000000E-03 0. -1.
        -11    1    3    3    0    0  0.36500892787E+01  0.10599562009E+02  0.68131712097E+00  0.11231120149E+02  0.51100000000E-03 0.  1.
         12    1    3    3    0    0  0.79125300488E+00  0.80021284089E+01 -0.11447177980E+02  0.13989210989E+02  0.00000000000E+00 0. -1.
</event>
<event>
 7    1  0.1322363E-009  0.4778726E+02  0.7816164E-02  0.1312668E+00
        -11   -1    0    0    0    0  0.00000000000E+00  0.00000000000E+00  0.45593999997E+02  0.45594000000E+02  0.51100000000E-03 0.  1.
         11   -1    0    0    0    0 -0.00000000000E+00 -0.00000000000E+00 -0.45593999997E+02  0.45594000000E+02  0.51100000000E-03 0. -1.
    9900012    2    1    2    0    0  0.74537092079E+00  0.22013147800E+02 -0.37396387417E+02  0.47787262152E+02  0.19999959456E+02 0.  0.
        -12    1    1    2    0    0 -0.74537092079E+00 -0.22013147800E+02  0.37396387417E+02  0.43400737848E+02  0.00000000000E+00 0.  1.
         11    1    3    3    0    0 -0.13745636020E+01  0.35124598325E+01 -0.13470366403E+02  0.13988479920E+02  0.51100000000E-03 0. -1.
        -11    1    3    3    0    0 -0.16510319164E+01  0.69828652351E+01 -0.22504223293E+00  0.71789245398E+01  0.51100000000E-03 0.  1.
        -12    1    3    3    0    0  0.37709664392E+01  0.11517822732E+02 -0.23700978781E+02  0.26619857693E+02  0.00000000000E+00 0.  1.
</event>
<event>
 7    1  0.1322363E-009  0.4778727E+02  0.7816164E-02  0.1312668E+00
        -11   -1    0    0    0    0  0.00000000000E+00  0.00000000000E+00  0.45593999997E+02  0.45594000000E+02  0.51100000000E-03 0.  1.
         11   -1    0    0    0    0 -0.00000000000E+00 -0.00000000000E+00 -0.45593999997E+02  0.45594000000E+02  0.51100000000E-03 0. -1.
    9900012    2    1    2    0    0 -0.20005505689E+02 -0.28694547034E+02  0.25690969223E+02  0.47787272046E+02  0.20000004566E+02 0.  0.
        -12    1    1    2    0    0  0.20005505689E+02  0.28694547034E+02 -0.25690969223E+02  0.43400727954E+02  0.00000000000E+00 0.  1.
         11    1    3    3    0    0 -0.10899693834E+02 -0.91170510167E+01  0.35463828675E+01  0.14645845029E+02  0.51100000000E-03 0. -1.
        -11    1    3    3    0    0  0.10465425402E+01  0.86922797705E+00  0.31958774661E+01  0.34733905055E+01  0.51100000000E-03 0.  1.
        -12    1    3    3    0    0 -0.10152354395E+02 -0.20446723994E+02  0.18948708889E+02  0.29668036511E+02  0.00000000000E+00 0.  1.
</event>
<event>
 7    1  0.1322363E-009  0.4778727E+02  0.7816164E-02  0.1312668E+00
        -11   -1    0    0    0    0  0.00000000000E+00  0.00000000000E+00  0.45593999997E+02  0.45594000000E+02  0.51100000000E-03 0. -1.
         11   -1    0    0    0    0 -0.00000000000E+00 -0.00000000000E+00 -0.45593999997E+02  0.45594000000E+02  0.51100000000E-03 0.  1.
    9900012    2    1    2    0    0  0.68186286908E+01 -0.39708225617E+02  0.16136497658E+02  0.47787269182E+02  0.19999991506E+02 0.  0.
        -12    1    1    2    0    0 -0.68186286908E+01  0.39708225617E+02 -0.16136497658E+02  0.43400730818E+02  0.00000000000E+00 0.  1.
         11    1    3    3    0    0 -0.34113433822E+01 -0.18995433264E+02  0.11003842672E+02  0.22215947028E+02  0.51100000000E-03 0. -1.
        -11    1    3    3    0    0  0.26025754010E+01 -0.45049725354E+00 -0.13567022052E+01  0.29693412785E+01  0.51100000000E-03 0.  1.
        -12    1    3    3    0    0  0.76273966719E+01 -0.20262295100E+02  0.64893571915E+01  0.22601980875E+02  0.00000000000E+00 0.  1.
</event>
<event>
 7    1  0.1322363E-009  0.4778727E+02  0.7816164E-02  0.1312668E+00
        -11   -1    0    0    0    0  0.00000000000E+00  0.00000000000E+00  0.45593999997E+02  0.45594000000E+02  0.51100000000E-03 0. -1.
         11   -1    0    0    0    0 -0.00000000000E+00 -0.00000000000E+00 -0.45593999997E+02  0.45594000000E+02  0.51100000000E-03 0.  1.
    9900012    2    1    2    0    0 -0.29902511126E+01  0.32499370742E+02  0.28608954378E+02  0.47787274534E+02  0.20000015911E+02 0.  0.
        -12    1    1    2    0    0  0.29902511126E+01 -0.32499370742E+02 -0.28608954378E+02  0.43400725466E+02  0.00000000000E+00 0.  1.
         11    1    3    3    0    0  0.24846708995E+00 -0.10808235027E+01  0.34355128992E+01  0.36100781821E+01  0.51100000000E-03 0. -1.
        -11    1    3    3    0    0  0.27778884200E+01  0.23990512933E+01  0.61409167504E+01  0.71542274200E+01  0.51100000000E-03 0.  1.
         12    1    3    3    0    0 -0.60166066226E+01  0.31181142951E+02  0.19032524729E+02  0.37022968932E+02  0.00000000000E+00 0. -1.
</event>
<event>
 7    1  0.1322363E-009  0.4778727E+02  0.7816164E-02  0.1312668E+00
        -11   -1    0    0    0    0  0.00000000000E+00  0.00000000000E+00  0.45593999997E+02  0.45594000000E+02  0.51100000000E-03 0.  1.
         11   -1    0    0    0    0 -0.00000000000E+00 -0.00000000000E+00 -0.45593999997E+02  0.45594000000E+02  0.51100000000E-03 0. -1.
    9900012    2    1    2    0    0  0.49739955831E+01  0.12871610057E+02 -0.41148563877E+02  0.47787270897E+02  0.19999999327E+02 0.  0.
        -12    1    1    2    0    0 -0.49739955831E+01 -0.12871610057E+02  0.41148563877E+02  0.43400729103E+02  0.00000000000E+00 0.  1.
         11    1    3    3    0    0 -0.15884694471E+01  0.15757186151E+02 -0.24145827338E+02  0.28876168871E+02  0.51100000000E-03 0. -1.
        -11    1    3    3    0    0  0.64722672176E+00 -0.21118972221E+01 -0.33593257346E+01  0.40204579289E+01  0.51100000000E-03 0.  1.
        -12    1    3    3    0    0  0.59152383085E+01 -0.77367887099E+00 -0.13643410804E+02  0.14890644097E+02  0.00000000000E+00 0.  1.
</event>
<event>
 7    1  0.1322363E-009  0.4778727E+02  0.7816164E-02  0.1312668E+00
        -11   -1    0    0    0    0  0.00000000000E+00  0.00000000000E+00  0.45593999997E+02  0.45594000000E+02  0.51100000000E-03 0. -1.
         11   -1    0    0    0    0 -0.00000000000E+00 -0.00000000000E+00 -0.45593999997E+02  0.45594000000E+02  0.51100000000E-03 0.  1.
    9900012    2    1    2    0    0 -0.28389570341E+02 -0.15436940478E+02  0.28971650102E+02  0.47787270224E+02  0.19999996258E+02 0.  0.
        -12    1    1    2    0    0  0.28389570341E+02  0.15436940478E+02 -0.28971650102E+02  0.43400729776E+02  0.00000000000E+00 0.  1.
         11    1    3    3    0    0 -0.45370464160E+01  0.22320928160E+01  0.30185970813E+01  0.58888842000E+01  0.51100000000E-03 0. -1.
        -11    1    3    3    0    0 -0.19500303136E+01 -0.91456255378E+01  0.83178627942E+01  0.12515267733E+02  0.51100000000E-03 0.  1.
        -12    1    3    3    0    0 -0.21902493611E+02 -0.85234077565E+01  0.17635190227E+02  0.29383118291E+02  0.00000000000E+00 0.  1.
</event>
<event>
 7    1  0.1322363E-009  0.4778726E+02  0.7816164E-02  0.1312668E+00
        -11   -1    0    0    0    0  0.00000000000E+00  0.00000000000E+00  0.45593999997E+02  0.45594000000E+02  0.51100000000E-03 0.  1.
         11   -1    0    0    0    0 -0.00000000000E+00 -0.00000000000E+00 -0.45593999997E+02  0.45594000000E+02  0.51100000000E-03 0. -1.
    9900012    2    1    2    0    0  0.25819630590E+01  0.12602273920E+02 -0.41450452557E+02  0.47787264310E+02  0.19999969296E+02 0.  0.
        -12    1    1    2    0    0 -0.25819630590E+01 -0.12602273920E+02  0.41450452557E+02  0.43400735690E+02  0.00000000000E+00 0.  1.
         11    1    3    3    0    0  0.21895608774E+01  0.16053448624E+02 -0.21818635398E+02  0.27176464827E+02  0.51100000000E-03 0. -1.
        -11    1    3    3    0    0  0.27037758005E+01 -0.24725657596E+01 -0.97649585620E+01  0.10429688442E+02  0.51100000000E-03 0.  1.
         12    1    3    3    0    0 -0.23113736188E+01 -0.97860894447E+00 -0.98668585969E+01  0.10181111042E+02  0.00000000000E+00 0. -1.
</event>
<event>
 7    1  0.1322363E-009  0.4778727E+02  0.7816164E-02  0.1312668E+00
        -11   -1    0    0    0    0  0.00000000000E+00  0.00000000000E+00  0.45593999997E+02  0.45594000000E+02  0.51100000000E-03 0. -1.
         11   -1    0    0    0    0 -0.00000000000E+00 -0.00000000000E+00 -0.45593999997E+02  0.45594000000E+02  0.51100000000E-03 0.  1.
    9900012    2    1    2    0    0  0.29606299190E+02 -0.17913382241E+02  0.26195445328E+02  0.47787267622E+02  0.19999984397E+02 0.  0.
        -12    1    1    2    0    0 -0.29606299190E+02  0.17913382241E+02 -0.26195445328E+02  0.43400732378E+02  0.00000000000E+00 0.  1.
         11    1    3    3    0    0  0.99139434146E-01  0.11090371382E+01  0.50674986798E+01  0.51883846361E+01  0.51100000000E-03 0. -1.
        -11    1    3    3    0    0  0.11666309414E+02 -0.53620081101E+01  0.18102454968E+01  0.12966529811E+02  0.51100000000E-03 0.  1.
         12    1    3    3    0    0  0.17840850341E+02 -0.13660411269E+02  0.19317701151E+02  0.29632353175E+02  0.00000000000E+00 0. -1.
</event>
<event>
 7    1  0.1322363E-009  0.4778727E+02  0.7816164E-02  0.1312668E+00
        -11   -1    0    0    0    0  0.00000000000E+00  0.00000000000E+00  0.45593999997E+02  0.45594000000E+02  0.51100000000E-03 0.  1.
         11   -1    0    0    0    0 -0.00000000000E+00 -0.00000000000E+00 -0.45593999997E+02  0.45594000000E+02  0.51100000000E-03 0. -1.
    9900012    2    1    2    0    0 -0.22259767008E+02  0.36140699692E+02  0.90540355808E+01  0.47787274640E+02  0.20000016393E+02 0.  0.
        -12    1    1    2    0    0  0.22259767008E+02 -0.36140699692E+02 -0.90540355808E+01  0.43400725360E+02  0.00000000000E+00 0.  1.
         11    1    3    3    0    0 -0.18164117054E+02  0.26456057260E+02  0.69310556492E+00  0.32098886425E+02  0.51100000000E-03 0. -1.
        -11    1    3    3    0    0  0.18827757294E+01  0.14738401485E+01 -0.20769732403E+00  0.24000390976E+01  0.51100000000E-03 0.  1.
        -12    1    3    3    0    0 -0.59784256834E+01  0.82108022832E+01  0.85686273400E+01  0.13288349118E+02  0.00000000000E+00 0.  1.
</event>
<event>
 7    1  0.1322363E-009  0.4778727E+02  0.7816164E-02  0.1312668E+00
        -11   -1    0    0    0    0  0.00000000000E+00  0.00000000000E+00  0.45593999997E+02  0.45594000000E+02  0.51100000000E-03 0.  1.
         11   -1    0    0    0    0 -0.00000000000E+00 -0.00000000000E+00 -0.45593999997E+02  0.45594000000E+02  0.51100000000E-03 0. -1.
    9900012    2    1    2    0    0 -0.12941816674E+02 -0.27831638186E+02 -0.30684402349E+02  0.47787271314E+02  0.20000001229E+02 0.  0.
        -12    1    1    2    0    0  0.12941816674E+02  0.27831638186E+02  0.30684402349E+02  0.43400728686E+02  0.00000000000E+00 0.  1.
         11    1    3    3    0    0 -0.11311517986E+01 -0.97925439206E+01 -0.13958184866E+02  0.17088134650E+02  0.51100000000E-03 0. -1.
        -11    1    3    3    0    0 -0.70113568528E+01 -0.10571104546E+01 -0.11944941828E+01  0.71905093036E+01  0.51100000000E-03 0.  1.
        -12    1    3    3    0    0 -0.47993080221E+01 -0.16981983811E+02 -0.15531723301E+02  0.23508627360E+02  0.00000000000E+00 0.  1.
</event>
<event>
 7    1  0.1322363E-009  0.4778727E+02  0.7816164E-02  0.1312668E+00
        -11   -1    0    0    0    0  0.00000000000E+00  0.00000000000E+00  0.45593999997E+02  0.45594000000E+02  0.51100000000E-03 0.  1.
         11   -1    0    0    0    0 -0.00000000000E+00 -0.00000000000E+00 -0.45593999997E+02  0.45594000000E+02  0.51100000000E-03 0. -1.
    9900012    2    1    2    0    0 -0.13266223764E+02 -0.39551565331E+02 -0.11970977754E+02  0.47787270496E+02  0.19999997500E+02 0.  0.
        -12    1    1    2    0    0  0.13266223764E+02  0.39551565331E+02  0.11970977754E+02  0.43400729504E+02  0.00000000000E+00 0.  1.
         11    1    3    3    0    0 -0.11511314189E+02 -0.25978079982E+02  0.24634495110E+00  0.28415342335E+02  0.51100000000E-03 0. -1.
        -11    1    3    3    0    0  0.12433066889E+01 -0.12076042916E+00 -0.93731127146E+00  0.15617129329E+01  0.51100000000E-03 0.  1.
         12    1    3    3    0    0 -0.29982162636E+01 -0.13452724920E+02 -0.11280011434E+02  0.17810215228E+02  0.00000000000E+00 0. -1.
</event>
<event>
 7    1  0.1322363E-009  0.4778727E+02  0.7816164E-02  0.1312668E+00
        -11   -1    0    0    0    0  0.00000000000E+00  0.00000000000E+00  0.45593999997E+02  0.45594000000E+02  0.51100000000E-03 0. -1.
         11   -1    0    0    0    0 -0.00000000000E+00 -0.00000000000E+00 -0.45593999997E+02  0.45594000000E+02  0.51100000000E-03 0.  1.
    9900012    2    1    2    0    0 -0.20191692866E+02  0.38382489656E+02  0.16441888328E+01  0.47787270399E+02  0.19999997058E+02 0.  0.
        -12    1    1    2    0    0  0.20191692866E+02 -0.38382489656E+02 -0.16441888328E+01  0.43400729601E+02  0.00000000000E+00 0.  1.
         11    1    3    3    0    0 -0.93208805472E+01  0.16789368902E+02 -0.50186643290E+01  0.19848141329E+02  0.51100000000E-03 0. -1.
        -11    1    3    3    0    0 -0.66334303976E+00  0.36586843194E+01 -0.33477843227E+01  0.50033643751E+01  0.51100000000E-03 0.  1.
        -12    1    3    3    0    0 -0.10207469279E+02  0.17934436434E+02  0.10010637485E+02  0.22935764695E+02  0.00000000000E+00 0.  1.
</event>
<event>
 7    1  0.1322363E-009  0.4778728E+02  0.7816164E-02  0.1312668E+00
        -11   -1    0    0    0    0  0.00000000000E+00  0.00000000000E+00  0.45593999997E+02  0.45594000000E+02  0.51100000000E-03 0. -1.
         11   -1    0    0    0    0 -0.00000000000E+00 -0.00000000000E+00 -0.45593999997E+02  0.45594000000E+02  0.51100000000E-03 0.  1.
    9900012    2    1    2    0    0  0.30374410495E+02 -0.10853487265E+00  0.31000102120E+02  0.47787275073E+02  0.20000018369E+02 0.  0.
        -12    1    1    2    0    0 -0.30374410495E+02  0.10853487265E+00 -0.31000102120E+02  0.43400724927E+02  0.00000000000E+00 0.  1.
         11    1    3    3    0    0  0.42518839181E+01 -0.14835111375E+01  0.58253971444E+01  0.73630546853E+01  0.51100000000E-03 0. -1.
        -11    1    3    3    0    0 -0.21696422365E+01 -0.35604831809E+00 -0.41424123649E+00  0.22373452801E+01  0.51100000000E-03 0.  1.
        -12    1    3    3    0    0  0.28292168813E+02  0.17310245829E+01  0.25588946212E+02  0.38186875108E+02  0.00000000000E+00 0.  1.
</event>
<event>
 7    1  0.1322363E-009  0.4778727E+02  0.7816164E-02  0.1312668E+00
        -11   -1    0    0    0    0  0.00000000000E+00  0.00000000000E+00  0.45593999997E+02  0.45594000000E+02  0.51100000000E-03 0.  1.
         11   -1    0    0    0    0 -0.00000000000E+00 -0.00000000000E+00 -0.45593999997E+02  0.45594000000E+02  0.51100000000E-03 0. -1.
    9900012    2    1    2    0    0  0.39464341850E+02 -0.85581353844E+01 -0.15904322731E+02  0.47787269126E+02  0.19999991251E+02 0.  0.
        -12    1    1    2    0    0 -0.39464341850E+02  0.85581353844E+01  0.15904322731E+02  0.43400730874E+02  0.00000000000E+00 0.  1.
         11    1    3    3    0    0  0.25315359423E+02 -0.36921622615E+01 -0.16895874117E+02  0.30658930956E+02  0.51100000000E-03 0. -1.
        -11    1    3    3    0    0  0.14111516019E+02 -0.49384601836E+01 -0.11410517055E+01  0.14994174622E+02  0.51100000000E-03 0.  1.
         12    1    3    3    0    0  0.37466407350E-01  0.72487060657E-01  0.21326030911E+01  0.21341635481E+01  0.00000000000E+00 0. -1.
</event>
<event>
 7    1  0.1322363E-009  0.4778727E+02  0.7816164E-02  0.1312668E+00
        -11   -1    0    0    0    0  0.00000000000E+00  0.00000000000E+00  0.45593999997E+02  0.45594000000E+02  0.51100000000E-03 0.  1.
         11   -1    0    0    0    0 -0.00000000000E+00 -0.00000000000E+00 -0.45593999997E+02  0.45594000000E+02  0.51100000000E-03 0. -1.
    9900012    2    1    2    0    0  0.50457733024E+01  0.28583347517E+02 -0.32266945489E+02  0.47787270113E+02  0.19999995755E+02 0.  0.
        -12    1    1    2    0    0 -0.50457733024E+01 -0.28583347517E+02  0.32266945489E+02  0.43400729887E+02  0.00000000000E+00 0.  1.
         11    1    3    3    0    0  0.29761460625E+01  0.44953622002E+01 -0.11305047643E+02  0.12524768628E+02  0.51100000000E-03 0.  1.
        -11    1    3    3    0    0  0.47253608206E+01  0.67763245102E+00 -0.40555923342E+01  0.62638686182E+01  0.51100000000E-03 0. -1.
         12    1    3    3    0    0 -0.26557335806E+01  0.23410352865E+02 -0.16906305512E+02  0.28998632868E+02  0.00000000000E+00 0. -1.
</event>
<event>
 7    1  0.1322363E-009  0.4778727E+02  0.7816164E-02  0.1312668E+00
        -11   -1    0    0    0    0  0.00000000000E+00  0.00000000000E+00  0.45593999997E+02  0.45594000000E+02  0.51100000000E-03 0.  1.
         11   -1    0    0    0    0 -0.00000000000E+00 -0.00000000000E+00 -0.45593999997E+02  0.45594000000E+02  0.51100000000E-03 0. -1.
    9900012    2    1    2    0    0  0.42586860319E+02  0.47721506556E+01 -0.68709132224E+01  0.47787267953E+02  0.19999985907E+02 0.  0.
        -12    1    1    2    0    0 -0.42586860319E+02 -0.47721506556E+01  0.68709132224E+01  0.43400732047E+02  0.00000000000E+00 0.  1.
         11    1    3    3    0    0  0.16543296708E+02 -0.73355342212E+00  0.44062778025E+01  0.17135753585E+02  0.51100000000E-03 0. -1.
        -11    1    3    3    0    0  0.54335060776E+00  0.18716679615E+01 -0.30353912460E+01  0.36072109889E+01  0.51100000000E-03 0.  1.
         12    1    3    3    0    0  0.25500213003E+02  0.36340361162E+01 -0.82417997789E+01  0.27044303380E+02  0.00000000000E+00 0. -1.
</event>
<event>
 7    1  0.1322363E-009  0.4778727E+02  0.7816164E-02  0.1312668E+00
        -11   -1    0    0    0    0  0.00000000000E+00  0.00000000000E+00  0.45593999997E+02  0.45594000000E+02  0.51100000000E-03 0.  1.
         11   -1    0    0    0    0 -0.00000000000E+00 -0.00000000000E+00 -0.45593999997E+02  0.45594000000E+02  0.51100000000E-03 0. -1.
    9900012    2    1    2    0    0  0.22956627226E+02  0.32432488405E+02 -0.17457097453E+02  0.47787270868E+02  0.19999999194E+02 0.  0.
        -12    1    1    2    0    0 -0.22956627226E+02 -0.32432488405E+02  0.17457097453E+02  0.43400729132E+02  0.00000000000E+00 0.  1.
         11    1    3    3    0    0  0.12381167852E+02  0.43533340033E+01 -0.75932575100E+01  0.15162532579E+02  0.51100000000E-03 0. -1.
        -11    1    3    3    0    0 -0.12549649091E+01  0.50932223931E+01 -0.17395182472E+01  0.55264613689E+01  0.51100000000E-03 0.  1.
         12    1    3    3    0    0  0.11830424283E+02  0.22985932009E+02 -0.81243216955E+01  0.27098276920E+02  0.00000000000E+00 0. -1.
</event>
<event>
 7    1  0.1322363E-009  0.4778726E+02  0.7816164E-02  0.1312668E+00
        -11   -1    0    0    0    0  0.00000000000E+00  0.00000000000E+00  0.45593999997E+02  0.45594000000E+02  0.51100000000E-03 0.  1.
         11   -1    0    0    0    0 -0.00000000000E+00 -0.00000000000E+00 -0.45593999997E+02  0.45594000000E+02  0.51100000000E-03 0. -1.
    9900012    2    1    2    0    0 -0.35719611458E+02  0.57408944834E+01 -0.23974473722E+02  0.47787263803E+02  0.19999966984E+02 0.  0.
        -12    1    1    2    0    0  0.35719611458E+02 -0.57408944834E+01  0.23974473722E+02  0.43400736197E+02  0.00000000000E+00 0.  1.
         11    1    3    3    0    0 -0.17105399508E+01 -0.86391907078E+00 -0.65046511966E+01  0.67810611658E+01  0.51100000000E-03 0. -1.
        -11    1    3    3    0    0 -0.90146560307E+01 -0.20530168580E+01  0.10924649875E+00  0.92461254929E+01  0.51100000000E-03 0.  1.
         12    1    3    3    0    0 -0.24994415477E+02  0.86578304122E+01 -0.17579069024E+02  0.31760077144E+02  0.00000000000E+00 0. -1.
</event>
<event>
 7    1  0.1322363E-009  0.4778727E+02  0.7816164E-02  0.1312668E+00
        -11   -1    0    0    0    0  0.00000000000E+00  0.00000000000E+00  0.45593999997E+02  0.45594000000E+02  0.51100000000E-03 0. -1.
         11   -1    0    0    0    0 -0.00000000000E+00 -0.00000000000E+00 -0.45593999997E+02  0.45594000000E+02  0.51100000000E-03 0.  1.
    9900012    2    1    2    0    0 -0.35268879915E+02  0.82481295240E+01  0.23910202174E+02  0.47787270753E+02  0.19999998673E+02 0.  0.
        -12    1    1    2    0    0  0.35268879915E+02 -0.82481295240E+01 -0.23910202174E+02  0.43400729247E+02  0.00000000000E+00 0.  1.
         11    1    3    3    0    0 -0.22016745662E+02  0.56304964080E+01  0.10567705235E+02  0.25062241990E+02  0.51100000000E-03 0. -1.
        -11    1    3    3    0    0 -0.13701055897E+02 -0.15156370231E+01  0.79396245757E+01  0.15907662523E+02  0.51100000000E-03 0.  1.
        -12    1    3    3    0    0  0.44892164360E+00  0.41332701390E+01  0.54028723640E+01  0.68173662411E+01  0.00000000000E+00 0.  1.
</event>
<event>
 7    1  0.1322363E-009  0.4778727E+02  0.7816164E-02  0.1312668E+00
        -11   -1    0    0    0    0  0.00000000000E+00  0.00000000000E+00  0.45593999997E+02  0.45594000000E+02  0.51100000000E-03 0. -1.
         11   -1    0    0    0    0 -0.00000000000E+00 -0.00000000000E+00 -0.45593999997E+02  0.45594000000E+02  0.51100000000E-03 0.  1.
    9900012    2    1    2    0    0 -0.11332801629E+02 -0.32276982901E+02  0.26709311746E+02  0.47787270146E+02  0.19999995903E+02 0.  0.
        -12    1    1    2    0    0  0.11332801629E+02  0.32276982901E+02 -0.26709311746E+02  0.43400729854E+02  0.00000000000E+00 0.  1.
         11    1    3    3    0    0  0.30799561123E+01 -0.10450719625E+01  0.35785212047E+01  0.48357129085E+01  0.51100000000E-03 0. -1.
        -11    1    3    3    0    0 -0.81447789468E+01 -0.73963488282E+01  0.38370683849E+01  0.11651888007E+02  0.51100000000E-03 0.  1.
        -12    1    3    3    0    0 -0.62679787945E+01 -0.23835562110E+02  0.19293722156E+02  0.31299669230E+02  0.00000000000E+00 0.  1.
</event>
<event>
 7    1  0.1322363E-009  0.4778729E+02  0.7816164E-02  0.1312668E+00
        -11   -1    0    0    0    0  0.00000000000E+00  0.00000000000E+00  0.45593999997E+02  0.45594000000E+02  0.51100000000E-03 0. -1.
         11   -1    0    0    0    0 -0.00000000000E+00 -0.00000000000E+00 -0.45593999997E+02  0.45594000000E+02  0.51100000000E-03 0.  1.
    9900012    2    1    2    0    0  0.15951499663E+02 -0.39354845755E+02 -0.89648080267E+01  0.47787285618E+02  0.20000066446E+02 0.  0.
        -12    1    1    2    0    0 -0.15951499663E+02  0.39354845755E+02  0.89648080267E+01  0.43400714382E+02  0.00000000000E+00 0.  1.
         11    1    3    3    0    0  0.55853932132E+01 -0.13602500700E+02 -0.19127804915E+01  0.14828464928E+02  0.51100000000E-03 0. -1.
        -11    1    3    3    0    0  0.56040717828E+00  0.94983571369E+00  0.26770674636E+01  0.28953297834E+01  0.51100000000E-03 0.  1.
        -12    1    3    3    0    0  0.98056992720E+01 -0.26702180769E+02 -0.97290949989E+01  0.30063490907E+02  0.00000000000E+00 0.  1.
</event>
<event>
 7    1  0.1322363E-009  0.4778728E+02  0.7816164E-02  0.1312668E+00
        -11   -1    0    0    0    0  0.00000000000E+00  0.00000000000E+00  0.45593999997E+02  0.45594000000E+02  0.51100000000E-03 0. -1.
         11   -1    0    0    0    0 -0.00000000000E+00 -0.00000000000E+00 -0.45593999997E+02  0.45594000000E+02  0.51100000000E-03 0.  1.
    9900012    2    1    2    0    0  0.13112613128E+02  0.40630476496E+02  0.78004217243E+01  0.47787276245E+02  0.20000023711E+02 0.  0.
        -12    1    1    2    0    0 -0.13112613128E+02 -0.40630476496E+02 -0.78004217243E+01  0.43400723755E+02  0.00000000000E+00 0.  1.
         11    1    3    3    0    0  0.83258137586E+01  0.10047985392E+02  0.36923363797E+00  0.13054406111E+02  0.51100000000E-03 0. -1.
        -11    1    3    3    0    0 -0.27266677545E+01  0.36694390520E+00  0.10822518771E+01  0.29564563686E+01  0.51100000000E-03 0.  1.
         12    1    3    3    0    0  0.75134671241E+01  0.30215547199E+02  0.63489362092E+01  0.31776413765E+02  0.00000000000E+00 0. -1.
</event>
<event>
 7    1  0.1322363E-009  0.4778727E+02  0.7816164E-02  0.1312668E+00
        -11   -1    0    0    0    0  0.00000000000E+00  0.00000000000E+00  0.45593999997E+02  0.45594000000E+02  0.51100000000E-03 0.  1.
         11   -1    0    0    0    0 -0.00000000000E+00 -0.00000000000E+00 -0.45593999997E+02  0.45594000000E+02  0.51100000000E-03 0. -1.
    9900012    2    1    2    0    0  0.20331346973E+01 -0.50807427348E+01 -0.43054335659E+02  0.47787269562E+02  0.19999993243E+02 0.  0.
        -12    1    1    2    0    0 -0.20331346973E+01  0.50807427348E+01  0.43054335659E+02  0.43400730438E+02  0.00000000000E+00 0.  1.
         11    1    3    3    0    0 -0.37633554512E+01 -0.56611533448E+01 -0.18891176386E+02  0.20077052746E+02  0.51100000000E-03 0. -1.
        -11    1    3    3    0    0  0.64282047881E+01 -0.48660510924E+01 -0.13649664571E+02  0.15852873972E+02  0.51100000000E-03 0.  1.
        -12    1    3    3    0    0 -0.63171463954E+00  0.54464617024E+01 -0.10513494702E+02  0.11857342844E+02  0.00000000000E+00 0.  1.
</event>
<event>
 7    1  0.1322363E-009  0.4778727E+02  0.7816164E-02  0.1312668E+00
        -11   -1    0    0    0    0  0.00000000000E+00  0.00000000000E+00  0.45593999997E+02  0.45594000000E+02  0.51100000000E-03 0.  1.
         11   -1    0    0    0    0 -0.00000000000E+00 -0.00000000000E+00 -0.45593999997E+02  0.45594000000E+02  0.51100000000E-03 0. -1.
    9900012    2    1    2    0    0 -0.31946314980E+02 -0.27687280935E+02 -0.98219485136E+01  0.47787271447E+02  0.20000001834E+02 0.  0.
        -12    1    1    2    0    0  0.31946314980E+02  0.27687280935E+02  0.98219485136E+01  0.43400728553E+02  0.00000000000E+00 0.  1.
         11    1    3    3    0    0 -0.16207625459E+02 -0.19165241477E+02  0.14696103597E+01  0.25142660137E+02  0.51100000000E-03 0.  1.
        -11    1    3    3    0    0 -0.14974614240E+02 -0.96545333537E+01 -0.89621595684E+01  0.19944156796E+02  0.51100000000E-03 0. -1.
        -12    1    3    3    0    0 -0.76407528054E+00  0.11324938957E+01 -0.23293993049E+01  0.27004545136E+01  0.00000000000E+00 0.  1.
</event>
<event>
 7    1  0.1322363E-009  0.4778727E+02  0.7816164E-02  0.1312668E+00
        -11   -1    0    0    0    0  0.00000000000E+00  0.00000000000E+00  0.45593999997E+02  0.45594000000E+02  0.51100000000E-03 0.  1.
         11   -1    0    0    0    0 -0.00000000000E+00 -0.00000000000E+00 -0.45593999997E+02  0.45594000000E+02  0.51100000000E-03 0. -1.
    9900012    2    1    2    0    0 -0.21158527140E+02  0.39047956628E+01 -0.37692076415E+02  0.47787270462E+02  0.19999997346E+02 0.  0.
        -12    1    1    2    0    0  0.21158527140E+02 -0.39047956628E+01  0.37692076415E+02  0.43400729538E+02  0.00000000000E+00 0.  1.
         11    1    3    3    0    0  0.38030679600E+00 -0.20113450831E+01  0.12495455793E+01  0.23982299136E+01  0.51100000000E-03 0. -1.
        -11    1    3    3    0    0 -0.32583088741E+01  0.29319797545E+01 -0.11249917501E+02  0.12073679060E+02  0.51100000000E-03 0.  1.
         12    1    3    3    0    0 -0.18280525062E+02  0.29841609913E+01 -0.27691704493E+02  0.33315361489E+02  0.00000000000E+00 0. -1.
</event>
<event>
 7    1  0.1322363E-009  0.4778727E+02  0.7816164E-02  0.1312668E+00
        -11   -1    0    0    0    0  0.00000000000E+00  0.00000000000E+00  0.45593999997E+02  0.45594000000E+02  0.51100000000E-03 0.  1.
         11   -1    0    0    0    0 -0.00000000000E+00 -0.00000000000E+00 -0.45593999997E+02  0.45594000000E+02  0.51100000000E-03 0. -1.
    9900012    2    1    2    0    0  0.35621101950E+01 -0.43181102387E+02 -0.25153539684E+01  0.47787271457E+02  0.20000001883E+02 0.  0.
        -12    1    1    2    0    0 -0.35621101950E+01  0.43181102387E+02  0.25153539684E+01  0.43400728543E+02  0.00000000000E+00 0.  1.
         11    1    3    3    0    0 -0.11624561597E+01 -0.22809309109E+02  0.67299928826E+00  0.22848825236E+02  0.51100000000E-03 0. -1.
        -11    1    3    3    0    0 -0.24198531365E+01 -0.84625222208E+01  0.35641821744E+01  0.94959657946E+01  0.51100000000E-03 0.  1.
        -12    1    3    3    0    0  0.71444194911E+01 -0.11909271057E+02 -0.67525354311E+01  0.15442480427E+02  0.00000000000E+00 0.  1.
</event>
<event>
 7    1  0.1322363E-009  0.4778728E+02  0.7816164E-02  0.1312668E+00
        -11   -1    0    0    0    0  0.00000000000E+00  0.00000000000E+00  0.45593999997E+02  0.45594000000E+02  0.51100000000E-03 0.  1.
         11   -1    0    0    0    0 -0.00000000000E+00 -0.00000000000E+00 -0.45593999997E+02  0.45594000000E+02  0.51100000000E-03 0. -1.
    9900012    2    1    2    0    0 -0.36980689553E+01 -0.28072963608E+02 -0.32891568055E+02  0.47787282853E+02  0.20000053839E+02 0.  0.
        -12    1    1    2    0    0  0.36980689553E+01  0.28072963608E+02  0.32891568055E+02  0.43400717147E+02  0.00000000000E+00 0.  1.
         11    1    3    3    0    0 -0.36001334758E+01 -0.16041958116E+02 -0.25110608277E+02  0.30014130497E+02  0.51100000000E-03 0. -1.
        -11    1    3    3    0    0 -0.21610666010E+00  0.18890394404E+01 -0.18132157786E+01  0.26273415874E+01  0.51100000000E-03 0.  1.
        -12    1    3    3    0    0  0.11817118057E+00 -0.13920044933E+02 -0.59677440001E+01  0.15145810768E+02  0.00000000000E+00 0.  1.
</event>
<event>
 7    1  0.1322363E-009  0.4778725E+02  0.7816164E-02  0.1312668E+00
        -11   -1    0    0    0    0  0.00000000000E+00  0.00000000000E+00  0.45593999997E+02  0.45594000000E+02  0.51100000000E-03 0.  1.
         11   -1    0    0    0    0 -0.00000000000E+00 -0.00000000000E+00 -0.45593999997E+02  0.45594000000E+02  0.51100000000E-03 0. -1.
    9900012    2    1    2    0    0  0.44267769208E+00 -0.17516109796E+01 -0.43363128008E+02  0.47787251444E+02  0.19999910636E+02 0.  0.
        -12    1    1    2    0    0 -0.44267769208E+00  0.17516109796E+01  0.43363128008E+02  0.43400748556E+02  0.00000000000E+00 0.  1.
         11    1    3    3    0    0 -0.31257129207E+01  0.58378204763E+01 -0.16471066827E+02  0.17752359614E+02  0.51100000000E-03 0. -1.
        -11    1    3    3    0    0  0.41148956866E+01 -0.22070943181E+01 -0.22742062896E+02  0.23216482439E+02  0.51100000000E-03 0.  1.
        -12    1    3    3    0    0 -0.54650507381E+00 -0.53823371378E+01 -0.41499982846E+01  0.68184093910E+01  0.00000000000E+00 0.  1.
</event>
<event>
 7    1  0.1322363E-009  0.4778727E+02  0.7816164E-02  0.1312668E+00
        -11   -1    0    0    0    0  0.00000000000E+00  0.00000000000E+00  0.45593999997E+02  0.45594000000E+02  0.51100000000E-03 0.  1.
         11   -1    0    0    0    0 -0.00000000000E+00 -0.00000000000E+00 -0.45593999997E+02  0.45594000000E+02  0.51100000000E-03 0. -1.
    9900012    2    1    2    0    0  0.20899934177E+02 -0.22977406737E+02 -0.30312615810E+02  0.47787272516E+02  0.20000006708E+02 0.  0.
        -12    1    1    2    0    0 -0.20899934177E+02  0.22977406737E+02  0.30312615810E+02  0.43400727484E+02  0.00000000000E+00 0.  1.
         11    1    3    3    0    0  0.33117837006E+01 -0.42604855147E+01  0.33506029562E+00  0.54066545815E+01  0.51100000000E-03 0.  1.
        -11    1    3    3    0    0  0.51224656493E+01 -0.15383859791E+02 -0.19204084671E+02  0.25133636122E+02  0.51100000000E-03 0. -1.
         12    1    3    3    0    0  0.12465684827E+02 -0.33330614305E+01 -0.11443591434E+02  0.17246981812E+02  0.00000000000E+00 0. -1.
</event>
<event>
 7    1  0.1322363E-009  0.4778727E+02  0.7816164E-02  0.1312668E+00
        -11   -1    0    0    0    0  0.00000000000E+00  0.00000000000E+00  0.45593999997E+02  0.45594000000E+02  0.51100000000E-03 0.  1.
         11   -1    0    0    0    0 -0.00000000000E+00 -0.00000000000E+00 -0.45593999997E+02  0.45594000000E+02  0.51100000000E-03 0. -1.
    9900012    2    1    2    0    0 -0.91487560854E+01 -0.99264599465E+01 -0.41247895335E+02  0.47787271728E+02  0.20000003116E+02 0.  0.
        -12    1    1    2    0    0  0.91487560854E+01  0.99264599465E+01  0.41247895335E+02  0.43400728272E+02  0.00000000000E+00 0.  1.
         11    1    3    3    0    0 -0.40366157973E+01 -0.37318745241E+01 -0.40106220943E+01  0.68048691687E+01  0.51100000000E-03 0. -1.
        -11    1    3    3    0    0 -0.26529238434E+01  0.46295820596E+01 -0.17980690510E+02  0.18755699572E+02  0.51100000000E-03 0.  1.
        -12    1    3    3    0    0 -0.24592164448E+01 -0.10824167482E+02 -0.19256582731E+02  0.22226702987E+02  0.00000000000E+00 0.  1.
</event>
<event>
 7    1  0.1322363E-009  0.4778725E+02  0.7816164E-02  0.1312668E+00
        -11   -1    0    0    0    0  0.00000000000E+00  0.00000000000E+00  0.45593999997E+02  0.45594000000E+02  0.51100000000E-03 0.  1.
         11   -1    0    0    0    0 -0.00000000000E+00 -0.00000000000E+00 -0.45593999997E+02  0.45594000000E+02  0.51100000000E-03 0. -1.
    9900012    2    1    2    0    0  0.15165899061E+02  0.92342496745E+00 -0.40654245235E+02  0.47787252730E+02  0.19999916497E+02 0.  0.
        -12    1    1    2    0    0 -0.15165899061E+02 -0.92342496745E+00  0.40654245235E+02  0.43400747270E+02  0.00000000000E+00 0.  1.
         11    1    3    3    0    0  0.41155293470E+01 -0.13645283687E+01  0.59281280842E+00  0.43761794710E+01  0.51100000000E-03 0. -1.
        -11    1    3    3    0    0  0.76684067955E+01  0.20190458474E+01 -0.15201201155E+02  0.17145189580E+02  0.51100000000E-03 0.  1.
        -12    1    3    3    0    0  0.33819629186E+01  0.26890748870E+00 -0.26045856888E+02  0.26265883680E+02  0.00000000000E+00 0.  1.
</event>
<event>
 7    1  0.1322363E-009  0.4778727E+02  0.7816164E-02  0.1312668E+00
        -11   -1    0    0    0    0  0.00000000000E+00  0.00000000000E+00  0.45593999997E+02  0.45594000000E+02  0.51100000000E-03 0. -1.
         11   -1    0    0    0    0 -0.00000000000E+00 -0.00000000000E+00 -0.45593999997E+02  0.45594000000E+02  0.51100000000E-03 0.  1.
    9900012    2    1    2    0    0  0.11650971702E+02 -0.11085442344E+02  0.40311175186E+02  0.47787273988E+02  0.20000013419E+02 0.  0.
        -12    1    1    2    0    0 -0.11650971702E+02  0.11085442344E+02 -0.40311175186E+02  0.43400726012E+02  0.00000000000E+00 0.  1.
         11    1    3    3    0    0  0.36319875997E+01 -0.12226514692E+02  0.17921590859E+02  0.21996872837E+02  0.51100000000E-03 0. -1.
        -11    1    3    3    0    0  0.15356527667E+01  0.21106228617E+01  0.16076341915E+00  0.26151105946E+01  0.51100000000E-03 0.  1.
        -12    1    3    3    0    0  0.64833313352E+01 -0.96955051333E+00  0.22228820908E+02  0.23175290556E+02  0.00000000000E+00 0.  1.
</event>
<event>
 7    1  0.1322363E-009  0.4778727E+02  0.7816164E-02  0.1312668E+00
        -11   -1    0    0    0    0  0.00000000000E+00  0.00000000000E+00  0.45593999997E+02  0.45594000000E+02  0.51100000000E-03 0.  1.
         11   -1    0    0    0    0 -0.00000000000E+00 -0.00000000000E+00 -0.45593999997E+02  0.45594000000E+02  0.51100000000E-03 0. -1.
    9900012    2    1    2    0    0 -0.20604783193E+02 -0.86229431473E+01 -0.37211703374E+02  0.47787272967E+02  0.20000008767E+02 0.  0.
        -12    1    1    2    0    0  0.20604783193E+02  0.86229431473E+01  0.37211703374E+02  0.43400727033E+02  0.00000000000E+00 0.  1.
         11    1    3    3    0    0 -0.10548404335E+01  0.93454710939E+00  0.72662117745E+00  0.15855741031E+01  0.51100000000E-03 0. -1.
        -11    1    3    3    0    0 -0.61709444115E+01 -0.33746237409E+01 -0.19293853359E+01  0.72932275679E+01  0.51100000000E-03 0.  1.
         12    1    3    3    0    0 -0.13378998348E+02 -0.61828665157E+01 -0.36008939216E+02  0.38908471296E+02  0.00000000000E+00 0. -1.
</event>
<event>
 7    1  0.1322363E-009  0.4778727E+02  0.7816164E-02  0.1312668E+00
        -11   -1    0    0    0    0  0.00000000000E+00  0.00000000000E+00  0.45593999997E+02  0.45594000000E+02  0.51100000000E-03 0.  1.
         11   -1    0    0    0    0 -0.00000000000E+00 -0.00000000000E+00 -0.45593999997E+02  0.45594000000E+02  0.51100000000E-03 0. -1.
    9900012    2    1    2    0    0  0.12978676652E+02 -0.27736578333E+02 -0.30754824566E+02  0.47787273516E+02  0.20000011268E+02 0.  0.
        -12    1    1    2    0    0 -0.12978676652E+02  0.27736578333E+02  0.30754824566E+02  0.43400726484E+02  0.00000000000E+00 0.  1.
         11    1    3    3    0    0  0.42769011593E+01 -0.14482957176E+02 -0.10347546981E+02  0.18306273811E+02  0.51100000000E-03 0. -1.
        -11    1    3    3    0    0  0.99401757784E+01 -0.41202021867E+01 -0.58405279031E+01  0.12243158376E+02  0.51100000000E-03 0.  1.
         12    1    3    3    0    0 -0.12384002857E+01 -0.91334189705E+01 -0.14566749683E+02  0.17237841329E+02  0.00000000000E+00 0. -1.
</event>
<event>
 7    1  0.1322363E-009  0.4778727E+02  0.7816164E-02  0.1312668E+00
        -11   -1    0    0    0    0  0.00000000000E+00  0.00000000000E+00  0.45593999997E+02  0.45594000000E+02  0.51100000000E-03 0.  1.
         11   -1    0    0    0    0 -0.00000000000E+00 -0.00000000000E+00 -0.45593999997E+02  0.45594000000E+02  0.51100000000E-03 0. -1.
    9900012    2    1    2    0    0  0.36841206693E+02 -0.99245755561E+01 -0.20684569539E+02  0.47787272730E+02  0.20000007686E+02 0.  0.
        -12    1    1    2    0    0 -0.36841206693E+02  0.99245755561E+01  0.20684569539E+02  0.43400727270E+02  0.00000000000E+00 0.  1.
         11    1    3    3    0    0  0.90803205711E+01  0.41250401581E+01 -0.11690370968E+02  0.15366618093E+02  0.51100000000E-03 0. -1.
        -11    1    3    3    0    0  0.73932000114E+01 -0.40587789079E+01 -0.18309419889E+01  0.86304948560E+01  0.51100000000E-03 0.  1.
         12    1    3    3    0    0  0.20367686110E+02 -0.99908368063E+01 -0.71632565821E+01  0.23790159781E+02  0.00000000000E+00 0. -1.
</event>
<event>
 7    1  0.1322363E-009  0.4778727E+02  0.7816164E-02  0.1312668E+00
        -11   -1    0    0    0    0  0.00000000000E+00  0.00000000000E+00  0.45593999997E+02  0.45594000000E+02  0.51100000000E-03 0. -1.
         11   -1    0    0    0    0 -0.00000000000E+00 -0.00000000000E+00 -0.45593999997E+02  0.45594000000E+02  0.51100000000E-03 0.  1.
    9900012    2    1    2    0    0 -0.42138717742E+02 -0.50819579706E+01  0.90623060476E+01  0.47787271658E+02  0.20000002797E+02 0.  0.
        -12    1    1    2    0    0  0.42138717742E+02  0.50819579706E+01 -0.90623060476E+01  0.43400728342E+02  0.00000000000E+00 0.  1.
         11    1    3    3    0    0 -0.16369087671E+02 -0.93107113259E+01  0.12435260676E+00  0.18832202218E+02  0.51100000000E-03 0. -1.
        -11    1    3    3    0    0 -0.75806072335E+01  0.24149353110E+01 -0.12106270043E+01  0.80475546963E+01  0.51100000000E-03 0.  1.
        -12    1    3    3    0    0 -0.18189022838E+02  0.18138180443E+01  0.10148580445E+02  0.20907514743E+02  0.00000000000E+00 0.  1.
</event>
<event>
 7    1  0.1322363E-009  0.4778726E+02  0.7816164E-02  0.1312668E+00
        -11   -1    0    0    0    0  0.00000000000E+00  0.00000000000E+00  0.45593999997E+02  0.45594000000E+02  0.51100000000E-03 0. -1.
         11   -1    0    0    0    0 -0.00000000000E+00 -0.00000000000E+00 -0.45593999997E+02  0.45594000000E+02  0.51100000000E-03 0.  1.
    9900012    2    1    2    0    0 -0.24598146484E+02  0.22811569165E+02  0.27535202596E+02  0.47787264059E+02  0.19999968150E+02 0.  0.
        -12    1    1    2    0    0  0.24598146484E+02 -0.22811569165E+02 -0.27535202596E+02  0.43400735941E+02  0.00000000000E+00 0.  1.
         11    1    3    3    0    0 -0.48610859823E+01 -0.98881084298E+00  0.17526244568E+01  0.52611402337E+01  0.51100000000E-03 0. -1.
        -11    1    3    3    0    0 -0.50830881120E+01  0.14467357143E+02  0.67438475335E+01  0.16751766691E+02  0.51100000000E-03 0.  1.
         12    1    3    3    0    0 -0.14653972390E+02  0.93330228657E+01  0.19038730606E+02  0.25774357134E+02  0.00000000000E+00 0. -1.
</event>
<event>
 7    1  0.1322363E-009  0.4778728E+02  0.7816164E-02  0.1312668E+00
        -11   -1    0    0    0    0  0.00000000000E+00  0.00000000000E+00  0.45593999997E+02  0.45594000000E+02  0.51100000000E-03 0.  1.
         11   -1    0    0    0    0 -0.00000000000E+00 -0.00000000000E+00 -0.45593999997E+02  0.45594000000E+02  0.51100000000E-03 0. -1.
    9900012    2    1    2    0    0  0.25410132335E+02  0.29523868279E+02 -0.19138679438E+02  0.47787277954E+02  0.20000031505E+02 0.  0.
        -12    1    1    2    0    0 -0.25410132335E+02 -0.29523868279E+02  0.19138679438E+02  0.43400722046E+02  0.00000000000E+00 0.  1.
         11    1    3    3    0    0  0.75049783284E+01  0.19921855098E+01 -0.31044684732E+01  0.83624893170E+01  0.51100000000E-03 0. -1.
        -11    1    3    3    0    0  0.16698081931E+02  0.28643875996E+02 -0.17257198394E+02  0.37377914186E+02  0.51100000000E-03 0.  1.
        -12    1    3    3    0    0  0.12070720752E+01 -0.11121932264E+01  0.12229874289E+01  0.20468744512E+01  0.00000000000E+00 0.  1.
</event>
<event>
 7    1  0.1322363E-009  0.4778727E+02  0.7816164E-02  0.1312668E+00
        -11   -1    0    0    0    0  0.00000000000E+00  0.00000000000E+00  0.45593999997E+02  0.45594000000E+02  0.51100000000E-03 0. -1.
         11   -1    0    0    0    0 -0.00000000000E+00 -0.00000000000E+00 -0.45593999997E+02  0.45594000000E+02  0.51100000000E-03 0.  1.
    9900012    2    1    2    0    0 -0.85364960575E+01  0.31228398630E+02  0.28905686390E+02  0.47787270149E+02  0.19999995918E+02 0.  0.
        -12    1    1    2    0    0  0.85364960575E+01 -0.31228398630E+02 -0.28905686390E+02  0.43400729851E+02  0.00000000000E+00 0.  1.
         11    1    3    3    0    0 -0.66103490722E+01  0.90719730381E+01  0.72746389062E+01  0.13376015144E+02  0.51100000000E-03 0. -1.
        -11    1    3    3    0    0  0.29016482563E+01  0.20899864480E+02  0.14100066559E+02  0.25377859939E+02  0.51100000000E-03 0.  1.
        -12    1    3    3    0    0 -0.48277952415E+01  0.12565611120E+01  0.75309809248E+01  0.90333950657E+01  0.00000000000E+00 0.  1.
</event>
<event>
 7    1  0.1322363E-009  0.4778727E+02  0.7816164E-02  0.1312668E+00
        -11   -1    0    0    0    0  0.00000000000E+00  0.00000000000E+00  0.45593999997E+02  0.45594000000E+02  0.51100000000E-03 0.  1.
         11   -1    0    0    0    0 -0.00000000000E+00 -0.00000000000E+00 -0.45593999997E+02  0.45594000000E+02  0.51100000000E-03 0. -1.
    9900012    2    1    2    0    0  0.65158582171E+01 -0.22598656161E+02 -0.36475580615E+02  0.47787266714E+02  0.19999980255E+02 0.  0.
        -12    1    1    2    0    0 -0.65158582171E+01  0.22598656161E+02  0.36475580615E+02  0.43400733286E+02  0.00000000000E+00 0.  1.
         11    1    3    3    0    0  0.10005830186E+01 -0.61812405934E+01 -0.33647019371E+01  0.71084541946E+01  0.51100000000E-03 0. -1.
        -11    1    3    3    0    0  0.13472077459E+01 -0.16105426801E+01  0.16474281968E+01  0.26688642453E+01  0.51100000000E-03 0.  1.
         12    1    3    3    0    0  0.41680674526E+01 -0.14806872887E+02 -0.34758306875E+02  0.38009948274E+02  0.00000000000E+00 0. -1.
</event>
<event>
 7    1  0.1322363E-009  0.4778727E+02  0.7816164E-02  0.1312668E+00
        -11   -1    0    0    0    0  0.00000000000E+00  0.00000000000E+00  0.45593999997E+02  0.45594000000E+02  0.51100000000E-03 0.  1.
         11   -1    0    0    0    0 -0.00000000000E+00 -0.00000000000E+00 -0.45593999997E+02  0.45594000000E+02  0.51100000000E-03 0. -1.
    9900012    2    1    2    0    0 -0.25264059918E+00 -0.37185257197E+02 -0.22378923722E+02  0.47787269511E+02  0.19999993008E+02 0.  0.
        -12    1    1    2    0    0  0.25264059918E+00  0.37185257197E+02  0.22378923722E+02  0.43400730489E+02  0.00000000000E+00 0.  1.
         11    1    3    3    0    0 -0.16762405774E+01 -0.21003985250E+02 -0.58914647640E+01  0.21878906193E+02  0.51100000000E-03 0. -1.
        -11    1    3    3    0    0  0.29629688033E+01  0.15576285585E+00 -0.51989995300E+00  0.30122653301E+01  0.51100000000E-03 0.  1.
         12    1    3    3    0    0 -0.15393688251E+01 -0.16337034802E+02 -0.15967559004E+02  0.22896097988E+02  0.00000000000E+00 0. -1.
</event>
<event>
 7    1  0.1322363E-009  0.4778727E+02  0.7816164E-02  0.1312668E+00
        -11   -1    0    0    0    0  0.00000000000E+00  0.00000000000E+00  0.45593999997E+02  0.45594000000E+02  0.51100000000E-03 0.  1.
         11   -1    0    0    0    0 -0.00000000000E+00 -0.00000000000E+00 -0.45593999997E+02  0.45594000000E+02  0.51100000000E-03 0. -1.
    9900012    2    1    2    0    0  0.31443076739E+02  0.14198568919E+01 -0.29882100988E+02  0.47787273879E+02  0.20000012923E+02 0.  0.
        -12    1    1    2    0    0 -0.31443076739E+02 -0.14198568919E+01  0.29882100988E+02  0.43400726121E+02  0.00000000000E+00 0.  1.
         11    1    3    3    0    0  0.76873870218E+01  0.55840260484E+01 -0.36873081756E+01  0.10191835359E+02  0.51100000000E-03 0.  1.
        -11    1    3    3    0    0  0.54213720543E+01 -0.50523116350E+00 -0.14633544233E+02  0.15613684721E+02  0.51100000000E-03 0. -1.
         12    1    3    3    0    0  0.18334317662E+02 -0.36589379930E+01 -0.11561248579E+02  0.21981753799E+02  0.00000000000E+00 0. -1.
</event>
<event>
 7    1  0.1322363E-009  0.4778727E+02  0.7816164E-02  0.1312668E+00
        -11   -1    0    0    0    0  0.00000000000E+00  0.00000000000E+00  0.45593999997E+02  0.45594000000E+02  0.51100000000E-03 0.  1.
         11   -1    0    0    0    0 -0.00000000000E+00 -0.00000000000E+00 -0.45593999997E+02  0.45594000000E+02  0.51100000000E-03 0. -1.
    9900012    2    1    2    0    0 -0.40315548319E+01  0.96837438796E+01 -0.42114071433E+02  0.47787270253E+02  0.19999996393E+02 0.  0.
        -12    1    1    2    0    0  0.40315548319E+01 -0.96837438796E+01  0.42114071433E+02  0.43400729747E+02  0.00000000000E+00 0.  1.
         11    1    3    3    0    0  0.60800781172E+01  0.55510657296E+00 -0.23796064913E+02  0.24566810921E+02  0.51100000000E-03 0. -1.
        -11    1    3    3    0    0 -0.56197678677E+01  0.32919980677E+01 -0.11325885472E+02  0.13065019102E+02  0.51100000000E-03 0.  1.
         12    1    3    3    0    0 -0.44918650815E+01  0.58366392390E+01 -0.69921210480E+01  0.10155440230E+02  0.00000000000E+00 0. -1.
</event>
<event>
 7    1  0.1322363E-009  0.4778728E+02  0.7816164E-02  0.1312668E+00
        -11   -1    0    0    0    0  0.00000000000E+00  0.00000000000E+00  0.45593999997E+02  0.45594000000E+02  0.51100000000E-03 0. -1.
         11   -1    0    0    0    0 -0.00000000000E+00 -0.00000000000E+00 -0.45593999997E+02  0.45594000000E+02  0.51100000000E-03 0.  1.
    9900012    2    1    2    0    0 -0.11287251328E+02  0.17096762110E+02  0.38261223735E+02  0.47787279282E+02  0.20000037558E+02 0.  0.
        -12    1    1    2    0    0  0.11287251328E+02 -0.17096762110E+02 -0.38261223735E+02  0.43400720718E+02  0.00000000000E+00 0.  1.
         11    1    3    3    0    0 -0.93256110847E+01  0.34875059375E+01  0.28178866013E+02  0.29886087228E+02  0.51100000000E-03 0. -1.
        -11    1    3    3    0    0 -0.12145243443E+01  0.22510859682E+01 -0.19504252036E+00  0.25652483827E+01  0.51100000000E-03 0.  1.
         12    1    3    3    0    0 -0.74711589926E+00  0.11358170204E+02  0.10277400242E+02  0.15335943671E+02  0.00000000000E+00 0. -1.
</event>
<event>
 7    1  0.1322363E-009  0.4778727E+02  0.7816164E-02  0.1312668E+00
        -11   -1    0    0    0    0  0.00000000000E+00  0.00000000000E+00  0.45593999997E+02  0.45594000000E+02  0.51100000000E-03 0.  1.
         11   -1    0    0    0    0 -0.00000000000E+00 -0.00000000000E+00 -0.45593999997E+02  0.45594000000E+02  0.51100000000E-03 0. -1.
    9900012    2    1    2    0    0 -0.19810147527E+02  0.13970004577E+02 -0.36000281962E+02  0.47787271040E+02  0.19999999981E+02 0.  0.
        -12    1    1    2    0    0  0.19810147527E+02 -0.13970004577E+02  0.36000281962E+02  0.43400728960E+02  0.00000000000E+00 0.  1.
         11    1    3    3    0    0 -0.74820872311E+01  0.43272578792E+01 -0.37807128640E+01  0.94340118776E+01  0.51100000000E-03 0. -1.
        -11    1    3    3    0    0 -0.77852298133E+01 -0.12825913219E+01 -0.19212805418E+02  0.20769851613E+02  0.51100000000E-03 0.  1.
         12    1    3    3    0    0 -0.45428304831E+01  0.10925338019E+02 -0.13006763680E+02  0.17583407550E+02  0.00000000000E+00 0. -1.
</event>
<event>
 7    1  0.1322363E-009  0.4778727E+02  0.7816164E-02  0.1312668E+00
        -11   -1    0    0    0    0  0.00000000000E+00  0.00000000000E+00  0.45593999997E+02  0.45594000000E+02  0.51100000000E-03 0.  1.
         11   -1    0    0    0    0 -0.00000000000E+00 -0.00000000000E+00 -0.45593999997E+02  0.45594000000E+02  0.51100000000E-03 0. -1.
    9900012    2    1    2    0    0 -0.38624067659E+02 -0.13955169798E+02 -0.14037726111E+02  0.47787272806E+02  0.20000008031E+02 0.  0.
        -12    1    1    2    0    0  0.38624067659E+02  0.13955169798E+02  0.14037726111E+02  0.43400727194E+02  0.00000000000E+00 0.  1.
         11    1    3    3    0    0 -0.48630851573E+01 -0.10218711913E+02 -0.33954768318E+01  0.11815283897E+02  0.51100000000E-03 0. -1.
        -11    1    3    3    0    0 -0.97260372950E+01 -0.89399443366E+00 -0.65215897608E+00  0.97887863958E+01  0.51100000000E-03 0.  1.
         12    1    3    3    0    0 -0.24034945207E+02 -0.28424634517E+01 -0.99900903031E+01  0.26183202513E+02  0.00000000000E+00 0. -1.
</event>
<event>
 7    1  0.1322363E-009  0.4778727E+02  0.7816164E-02  0.1312668E+00
        -11   -1    0    0    0    0  0.00000000000E+00  0.00000000000E+00  0.45593999997E+02  0.45594000000E+02  0.51100000000E-03 0.  1.
         11   -1    0    0    0    0 -0.00000000000E+00 -0.00000000000E+00 -0.45593999997E+02  0.45594000000E+02  0.51100000000E-03 0. -1.
    9900012    2    1    2    0    0  0.32725094452E+02 -0.28348736413E+02 -0.30067694099E+01  0.47787270451E+02  0.19999997295E+02 0.  0.
        -12    1    1    2    0    0 -0.32725094452E+02  0.28348736413E+02  0.30067694099E+01  0.43400729549E+02  0.00000000000E+00 0.  1.
         11    1    3    3    0    0  0.68907060498E+01 -0.37563708710E+01 -0.71099679453E+01  0.10589796808E+02  0.51100000000E-03 0. -1.
        -11    1    3    3    0    0  0.12782621574E+02 -0.58858190311E+01  0.28150637446E+01  0.14351406346E+02  0.51100000000E-03 0.  1.
         12    1    3    3    0    0  0.13051766828E+02 -0.18706546511E+02  0.12881347908E+01  0.22846067297E+02  0.00000000000E+00 0. -1.
</event>
<event>
 7    1  0.1322363E-009  0.4778725E+02  0.7816164E-02  0.1312668E+00
        -11   -1    0    0    0    0  0.00000000000E+00  0.00000000000E+00  0.45593999997E+02  0.45594000000E+02  0.51100000000E-03 0.  1.
         11   -1    0    0    0    0 -0.00000000000E+00 -0.00000000000E+00 -0.45593999997E+02  0.45594000000E+02  0.51100000000E-03 0. -1.
    9900012    2    1    2    0    0  0.83740866386E+01  0.42579901324E+02 -0.67204827954E+00  0.47787251473E+02  0.19999910768E+02 0.  0.
        -12    1    1    2    0    0 -0.83740866386E+01 -0.42579901324E+02  0.67204827954E+00  0.43400748527E+02  0.00000000000E+00 0.  1.
         11    1    3    3    0    0  0.69052778878E+01  0.76085607845E+01  0.20646622156E+01  0.10480261936E+02  0.51100000000E-03 0. -1.
        -11    1    3    3    0    0  0.56458344717E+00 -0.94859515061E+00 -0.72239333931E+00  0.13192572253E+01  0.51100000000E-03 0.  1.
         12    1    3    3    0    0  0.90422530363E+00  0.35919935690E+02 -0.20143171558E+01  0.35987732312E+02  0.00000000000E+00 0. -1.
</event>
<event>
 7    1  0.1322363E-009  0.4778727E+02  0.7816164E-02  0.1312668E+00
        -11   -1    0    0    0    0  0.00000000000E+00  0.00000000000E+00  0.45593999997E+02  0.45594000000E+02  0.51100000000E-03 0.  1.
         11   -1    0    0    0    0 -0.00000000000E+00 -0.00000000000E+00 -0.45593999997E+02  0.45594000000E+02  0.51100000000E-03 0. -1.
    9900012    2    1    2    0    0  0.16842512405E+02  0.39919872812E+02 -0.25213559657E+01  0.47787266074E+02  0.19999977337E+02 0.  0.
        -12    1    1    2    0    0 -0.16842512405E+02 -0.39919872812E+02  0.25213559657E+01  0.43400733926E+02  0.00000000000E+00 0.  1.
         11    1    3    3    0    0  0.10182954072E+02  0.17486028370E+02 -0.65633854960E+01  0.21272794157E+02  0.51100000000E-03 0. -1.
        -11    1    3    3    0    0 -0.18510555029E+01 -0.91667212973E-01 -0.68383937190E+00  0.19754609337E+01  0.51100000000E-03 0.  1.
        -12    1    3    3    0    0  0.85106138351E+01  0.22525511655E+02  0.47258689022E+01  0.24539010983E+02  0.00000000000E+00 0.  1.
</event>
<event>
 7    1  0.1322363E-009  0.4778727E+02  0.7816164E-02  0.1312668E+00
        -11   -1    0    0    0    0  0.00000000000E+00  0.00000000000E+00  0.45593999997E+02  0.45594000000E+02  0.51100000000E-03 0. -1.
         11   -1    0    0    0    0 -0.00000000000E+00 -0.00000000000E+00 -0.45593999997E+02  0.45594000000E+02  0.51100000000E-03 0.  1.
    9900012    2    1    2    0    0  0.68437119667E+01 -0.16517823740E+02  0.39546785435E+02  0.47787272669E+02  0.20000007408E+02 0.  0.
        -12    1    1    2    0    0 -0.68437119667E+01  0.16517823740E+02 -0.39546785435E+02  0.43400727331E+02  0.00000000000E+00 0.  1.
         11    1    3    3    0    0  0.72036536562E+00 -0.34158261207E+01  0.17244301123E+02  0.17594110259E+02  0.51100000000E-03 0. -1.
        -11    1    3    3    0    0  0.10164265171E+02 -0.70376824606E+01  0.10028757361E+02  0.15919083998E+02  0.51100000000E-03 0.  1.
        -12    1    3    3    0    0 -0.40409185696E+01 -0.60643151591E+01  0.12273726951E+02  0.14274078412E+02  0.00000000000E+00 0.  1.
</event>
<event>
 7    1  0.1322363E-009  0.4778727E+02  0.7816164E-02  0.1312668E+00
        -11   -1    0    0    0    0  0.00000000000E+00  0.00000000000E+00  0.45593999997E+02  0.45594000000E+02  0.51100000000E-03 0. -1.
         11   -1    0    0    0    0 -0.00000000000E+00 -0.00000000000E+00 -0.45593999997E+02  0.45594000000E+02  0.51100000000E-03 0.  1.
    9900012    2    1    2    0    0 -0.41735905787E+02 -0.11667099797E+02 -0.23698045422E+01  0.47787273934E+02  0.20000013174E+02 0.  0.
        -12    1    1    2    0    0  0.41735905787E+02  0.11667099797E+02  0.23698045422E+01  0.43400726066E+02  0.00000000000E+00 0.  1.
         11    1    3    3    0    0 -0.23902139494E+02 -0.86256281893E+01  0.28099379797E+01  0.25565787407E+02  0.51100000000E-03 0. -1.
        -11    1    3    3    0    0  0.72429422419E+00  0.44806438519E-01  0.19671674983E+01  0.20967493812E+01  0.51100000000E-03 0.  1.
        -12    1    3    3    0    0 -0.18558060517E+02 -0.30862780463E+01 -0.71469100201E+01  0.20124737145E+02  0.00000000000E+00 0.  1.
</event>
<event>
 7    1  0.1322363E-009  0.4778727E+02  0.7816164E-02  0.1312668E+00
        -11   -1    0    0    0    0  0.00000000000E+00  0.00000000000E+00  0.45593999997E+02  0.45594000000E+02  0.51100000000E-03 0. -1.
         11   -1    0    0    0    0 -0.00000000000E+00 -0.00000000000E+00 -0.45593999997E+02  0.45594000000E+02  0.51100000000E-03 0.  1.
    9900012    2    1    2    0    0  0.37721528166E+02  0.19509890356E+02  0.89483990979E+01  0.47787270107E+02  0.19999995725E+02 0.  0.
        -12    1    1    2    0    0 -0.37721528166E+02 -0.19509890356E+02 -0.89483990979E+01  0.43400729893E+02  0.00000000000E+00 0.  1.
         11    1    3    3    0    0 -0.25170019653E+00 -0.81030183702E-01 -0.84623349404E-01  0.27763330490E+00  0.51100000000E-03 0. -1.
        -11    1    3    3    0    0  0.39184410625E+01  0.53301222638E+01 -0.47032412611E+01  0.81169490776E+01  0.51100000000E-03 0.  1.
         12    1    3    3    0    0  0.34054787300E+02  0.14260798276E+02  0.13736263708E+02  0.39392687724E+02  0.00000000000E+00 0. -1.
</event>
<event>
 7    1  0.1322363E-009  0.4778727E+02  0.7816164E-02  0.1312668E+00
        -11   -1    0    0    0    0  0.00000000000E+00  0.00000000000E+00  0.45593999997E+02  0.45594000000E+02  0.51100000000E-03 0. -1.
         11   -1    0    0    0    0 -0.00000000000E+00 -0.00000000000E+00 -0.45593999997E+02  0.45594000000E+02  0.51100000000E-03 0.  1.
    9900012    2    1    2    0    0  0.35252118571E+02  0.15857613349E+02  0.19734421284E+02  0.47787272491E+02  0.20000006595E+02 0.  0.
        -12    1    1    2    0    0 -0.35252118571E+02 -0.15857613349E+02 -0.19734421284E+02  0.43400727509E+02  0.00000000000E+00 0.  1.
         11    1    3    3    0    0  0.18184831415E+01 -0.16625874482E+01 -0.73158116502E+00  0.25702702622E+01  0.51100000000E-03 0. -1.
        -11    1    3    3    0    0  0.12183483378E+02  0.13563819515E+02  0.12823932202E+02  0.22290529479E+02  0.51100000000E-03 0.  1.
         12    1    3    3    0    0  0.21250152052E+02  0.39563812818E+01  0.76420702473E+01  0.22926472750E+02  0.00000000000E+00 0. -1.
</event>
<event>
 7    1  0.1322363E-009  0.4778728E+02  0.7816164E-02  0.1312668E+00
        -11   -1    0    0    0    0  0.00000000000E+00  0.00000000000E+00  0.45593999997E+02  0.45594000000E+02  0.51100000000E-03 0.  1.
         11   -1    0    0    0    0 -0.00000000000E+00 -0.00000000000E+00 -0.45593999997E+02  0.45594000000E+02  0.51100000000E-03 0. -1.
    9900012    2    1    2    0    0  0.92969087285E+01  0.21182687290E+02 -0.36721710536E+02  0.47787276764E+02  0.20000026078E+02 0.  0.
        -12    1    1    2    0    0 -0.92969087285E+01 -0.21182687290E+02  0.36721710536E+02  0.43400723236E+02  0.00000000000E+00 0.  1.
         11    1    3    3    0    0  0.79242138111E+01  0.17283036628E+02 -0.33870793024E+02  0.38842336953E+02  0.51100000000E-03 0. -1.
        -11    1    3    3    0    0  0.36963608217E+01  0.46296383686E+01 -0.26831623324E+01  0.65035371231E+01  0.51100000000E-03 0.  1.
        -12    1    3    3    0    0 -0.23236659043E+01 -0.72998770689E+00 -0.16775517939E+00  0.24414026884E+01  0.00000000000E+00 0.  1.
</event>
<event>
 7    1  0.1322363E-009  0.4778727E+02  0.7816164E-02  0.1312668E+00
        -11   -1    0    0    0    0  0.00000000000E+00  0.00000000000E+00  0.45593999997E+02  0.45594000000E+02  0.51100000000E-03 0.  1.
         11   -1    0    0    0    0 -0.00000000000E+00 -0.00000000000E+00 -0.45593999997E+02  0.45594000000E+02  0.51100000000E-03 0. -1.
    9900012    2    1    2    0    0  0.16074743398E+02  0.47041161428E+01 -0.40038697436E+02  0.47787269864E+02  0.19999994616E+02 0.  0.
        -12    1    1    2    0    0 -0.16074743398E+02 -0.47041161428E+01  0.40038697436E+02  0.43400730136E+02  0.00000000000E+00 0.  1.
         11    1    3    3    0    0  0.79564040076E+00 -0.41720924874E+01 -0.12067617934E+02  0.12793232673E+02  0.51100000000E-03 0. -1.
        -11    1    3    3    0    0  0.13118645647E+02  0.11217289622E+02 -0.26125434793E+02  0.31312374446E+02  0.51100000000E-03 0.  1.
        -12    1    3    3    0    0  0.21604573502E+01 -0.23410809916E+01 -0.18456447092E+01  0.36816627445E+01  0.00000000000E+00 0.  1.
</event>
<event>
 7    1  0.1322363E-009  0.4778727E+02  0.7816164E-02  0.1312668E+00
        -11   -1    0    0    0    0  0.00000000000E+00  0.00000000000E+00  0.45593999997E+02  0.45594000000E+02  0.51100000000E-03 0. -1.
         11   -1    0    0    0    0 -0.00000000000E+00 -0.00000000000E+00 -0.45593999997E+02  0.45594000000E+02  0.51100000000E-03 0.  1.
    9900012    2    1    2    0    0  0.16375503273E+02  0.31911293089E+02  0.24436362239E+02  0.47787268053E+02  0.19999986360E+02 0.  0.
        -12    1    1    2    0    0 -0.16375503273E+02 -0.31911293089E+02 -0.24436362239E+02  0.43400731947E+02  0.00000000000E+00 0.  1.
         11    1    3    3    0    0  0.13260844119E+01  0.15053355401E+02  0.51047012535E+01  0.15950548074E+02  0.51100000000E-03 0. -1.
        -11    1    3    3    0    0  0.49287351235E+01  0.44803095301E-01  0.10993993882E+01  0.50500610403E+01  0.51100000000E-03 0.  1.
        -12    1    3    3    0    0  0.10120683738E+02  0.16813134593E+02  0.18232261597E+02  0.26786658939E+02  0.00000000000E+00 0.  1.
</event>
<event>
 7    1  0.1322363E-009  0.4778727E+02  0.7816164E-02  0.1312668E+00
        -11   -1    0    0    0    0  0.00000000000E+00  0.00000000000E+00  0.45593999997E+02  0.45594000000E+02  0.51100000000E-03 0.  1.
         11   -1    0    0    0    0 -0.00000000000E+00 -0.00000000000E+00 -0.45593999997E+02  0.45594000000E+02  0.51100000000E-03 0. -1.
    9900012    2    1    2    0    0  0.11374250941E+02 -0.29750258583E+02 -0.29481723228E+02  0.47787268731E+02  0.19999989451E+02 0.  0.
        -12    1    1    2    0    0 -0.11374250941E+02  0.29750258583E+02  0.29481723228E+02  0.43400731269E+02  0.00000000000E+00 0.  1.
         11    1    3    3    0    0  0.36242990309E+01 -0.34016875543E+01 -0.12325817615E+02  0.13290327378E+02  0.51100000000E-03 0. -1.
        -11    1    3    3    0    0  0.22076908774E+01 -0.40705904021E+01  0.15506205546E+01  0.48834444399E+01  0.51100000000E-03 0.  1.
        -12    1    3    3    0    0  0.55422610326E+01 -0.22277980626E+02 -0.18706526168E+02  0.29613496913E+02  0.00000000000E+00 0.  1.
</event>
<event>
 7    1  0.1322363E-009  0.4778727E+02  0.7816164E-02  0.1312668E+00
        -11   -1    0    0    0    0  0.00000000000E+00  0.00000000000E+00  0.45593999997E+02  0.45594000000E+02  0.51100000000E-03 0.  1.
         11   -1    0    0    0    0 -0.00000000000E+00 -0.00000000000E+00 -0.45593999997E+02  0.45594000000E+02  0.51100000000E-03 0. -1.
    9900012    2    1    2    0    0  0.21732987971E+02 -0.19196251004E+02 -0.32292483514E+02  0.47787270625E+02  0.19999998090E+02 0.  0.
        -12    1    1    2    0    0 -0.21732987971E+02  0.19196251004E+02  0.32292483514E+02  0.43400729375E+02  0.00000000000E+00 0.  1.
         11    1    3    3    0    0  0.45571565730E+01 -0.12617021359E+02 -0.11280067789E+02  0.17527031511E+02  0.51100000000E-03 0. -1.
        -11    1    3    3    0    0  0.48713115478E+01 -0.23900871312E+01 -0.14976350759E+02  0.15929007345E+02  0.51100000000E-03 0.  1.
         12    1    3    3    0    0  0.12304519850E+02 -0.41891425133E+01 -0.60360649659E+01  0.14331231769E+02  0.00000000000E+00 0. -1.
</event>
<event>
 7    1  0.1322363E-009  0.4778727E+02  0.7816164E-02  0.1312668E+00
        -11   -1    0    0    0    0  0.00000000000E+00  0.00000000000E+00  0.45593999997E+02  0.45594000000E+02  0.51100000000E-03 0.  1.
         11   -1    0    0    0    0 -0.00000000000E+00 -0.00000000000E+00 -0.45593999997E+02  0.45594000000E+02  0.51100000000E-03 0. -1.
    9900012    2    1    2    0    0  0.23214280858E+02 -0.13921909449E+02 -0.33924930643E+02  0.47787270541E+02  0.19999997703E+02 0.  0.
        -12    1    1    2    0    0 -0.23214280858E+02  0.13921909449E+02  0.33924930643E+02  0.43400729459E+02  0.00000000000E+00 0.  1.
         11    1    3    3    0    0  0.13734973502E+02 -0.10971529471E+02 -0.23436524835E+02  0.29296666237E+02  0.51100000000E-03 0. -1.
        -11    1    3    3    0    0  0.94498086007E+00 -0.57987432977E+01 -0.22496250914E+01  0.62912022675E+01  0.51100000000E-03 0.  1.
         12    1    3    3    0    0  0.85343264961E+01  0.28483633187E+01 -0.82387807164E+01  0.12199402036E+02  0.00000000000E+00 0. -1.
</event>
<event>
 7    1  0.1322363E-009  0.4778727E+02  0.7816164E-02  0.1312668E+00
        -11   -1    0    0    0    0  0.00000000000E+00  0.00000000000E+00  0.45593999997E+02  0.45594000000E+02  0.51100000000E-03 0.  1.
         11   -1    0    0    0    0 -0.00000000000E+00 -0.00000000000E+00 -0.45593999997E+02  0.45594000000E+02  0.51100000000E-03 0. -1.
    9900012    2    1    2    0    0 -0.36060728381E+02 -0.18246211111E+02 -0.15821595246E+02  0.47787271580E+02  0.20000002442E+02 0.  0.
        -12    1    1    2    0    0  0.36060728381E+02  0.18246211111E+02  0.15821595246E+02  0.43400728420E+02  0.00000000000E+00 0.  1.
         11    1    3    3    0    0  0.11172507628E+01  0.66225764440E+00 -0.58506876310E+00  0.14244789129E+01  0.51100000000E-03 0. -1.
        -11    1    3    3    0    0 -0.69905328143E+01 -0.82069640983E+00 -0.75875895139E+01  0.10349522043E+02  0.51100000000E-03 0.  1.
         12    1    3    3    0    0 -0.30187446329E+02 -0.18087772345E+02 -0.76489369688E+01  0.36013270624E+02  0.00000000000E+00 0. -1.
</event>
<event>
 7    1  0.1750245E-009  0.4778727E+02  0.7816164E-02  0.1312668E+00
        -11   -1    0    0    0    0  0.00000000000E+00  0.00000000000E+00  0.45593999997E+02  0.45594000000E+02  0.51100000000E-03 0. -1.
         11   -1    0    0    0    0 -0.00000000000E+00 -0.00000000000E+00 -0.45593999997E+02  0.45594000000E+02  0.51100000000E-03 0.  1.
    9900012    2    1    2    0    0 -0.31575383273E+02  0.27732094970E+02  0.10842019688E+02  0.47787270615E+02  0.19999998041E+02 0.  0.
        -12    1    1    2    0    0  0.31575383273E+02 -0.27732094970E+02 -0.10842019688E+02  0.43400729385E+02  0.00000000000E+00 0.  1.
         11    1    3    3    0    0 -0.15482190216E+02  0.65301396672E+01  0.49712134358E+01  0.17522953553E+02  0.51100000000E-03 0. -1.
        -11    1    3    3    0    0 -0.10931657227E+01  0.20017938895E+01 -0.34849203272E+01  0.41649561848E+01  0.51100000000E-03 0.  1.
         12    1    3    3    0    0 -0.15000027334E+02  0.19200161413E+02  0.93557265799E+01  0.26099360877E+02  0.00000000000E+00 0. -1.
</event>
<event>
 7    1  0.1322363E-009  0.4778729E+02  0.7816164E-02  0.1312668E+00
        -11   -1    0    0    0    0  0.00000000000E+00  0.00000000000E+00  0.45593999997E+02  0.45594000000E+02  0.51100000000E-03 0.  1.
         11   -1    0    0    0    0 -0.00000000000E+00 -0.00000000000E+00 -0.45593999997E+02  0.45594000000E+02  0.51100000000E-03 0. -1.
    9900012    2    1    2    0    0 -0.35038550881E+01 -0.42944006213E+02  0.52112661294E+01  0.47787286126E+02  0.20000068762E+02 0.  0.
        -12    1    1    2    0    0  0.35038550881E+01  0.42944006213E+02 -0.52112661294E+01  0.43400713874E+02  0.00000000000E+00 0.  1.
         11    1    3    3    0    0  0.52148597279E+01 -0.21590782938E+02  0.46458359260E+01  0.22692299609E+02  0.51100000000E-03 0. -1.
        -11    1    3    3    0    0 -0.45218059470E+01 -0.96916928034E+01  0.51633189290E+01  0.11875836857E+02  0.51100000000E-03 0.  1.
        -12    1    3    3    0    0 -0.41969088690E+01 -0.11661530472E+02 -0.45978887257E+01  0.13219149660E+02  0.00000000000E+00 0.  1.
</event>
<event>
 7    1  0.1322363E-009  0.4778726E+02  0.7816164E-02  0.1312668E+00
        -11   -1    0    0    0    0  0.00000000000E+00  0.00000000000E+00  0.45593999997E+02  0.45594000000E+02  0.51100000000E-03 0.  1.
         11   -1    0    0    0    0 -0.00000000000E+00 -0.00000000000E+00 -0.45593999997E+02  0.45594000000E+02  0.51100000000E-03 0. -1.
    9900012    2    1    2    0    0 -0.10547566821E+02 -0.31326473826E+02 -0.28125172330E+02  0.47787257531E+02  0.19999938389E+02 0.  0.
        -12    1    1    2    0    0  0.10547566821E+02  0.31326473826E+02  0.28125172330E+02  0.43400742469E+02  0.00000000000E+00 0.  1.
         11    1    3    3    0    0 -0.65553830550E-01 -0.77840974991E+01 -0.77410201521E+01  0.10978153963E+02  0.51100000000E-03 0. -1.
        -11    1    3    3    0    0 -0.13421241867E+02 -0.10565470397E+02 -0.90491114582E+01  0.19329907304E+02  0.51100000000E-03 0.  1.
        -12    1    3    3    0    0  0.29392288763E+01 -0.12976905931E+02 -0.11335040719E+02  0.17479196264E+02  0.00000000000E+00 0.  1.
</event>
<event>
 7    1  0.1322363E-009  0.4778727E+02  0.7816164E-02  0.1312668E+00
        -11   -1    0    0    0    0  0.00000000000E+00  0.00000000000E+00  0.45593999997E+02  0.45594000000E+02  0.51100000000E-03 0.  1.
         11   -1    0    0    0    0 -0.00000000000E+00 -0.00000000000E+00 -0.45593999997E+02  0.45594000000E+02  0.51100000000E-03 0. -1.
    9900012    2    1    2    0    0 -0.16240824390E+01  0.61630137594E+01 -0.42930209139E+02  0.47787271445E+02  0.20000001827E+02 0.  0.
        -12    1    1    2    0    0  0.16240824390E+01 -0.61630137594E+01  0.42930209139E+02  0.43400728555E+02  0.00000000000E+00 0.  1.
         11    1    3    3    0    0  0.11201663822E+01  0.57036437293E+01 -0.16179936315E+02  0.17192343177E+02  0.51100000000E-03 0. -1.
        -11    1    3    3    0    0 -0.91501742633E+00  0.49336321819E+00  0.17502779533E+01  0.20357154345E+01  0.51100000000E-03 0.  1.
        -12    1    3    3    0    0 -0.18292313949E+01 -0.33993188135E-01 -0.28500550778E+02  0.28559212833E+02  0.00000000000E+00 0.  1.
</event>
<event>
 7    1  0.1322363E-009  0.4778726E+02  0.7816164E-02  0.1312668E+00
        -11   -1    0    0    0    0  0.00000000000E+00  0.00000000000E+00  0.45593999997E+02  0.45594000000E+02  0.51100000000E-03 0. -1.
         11   -1    0    0    0    0 -0.00000000000E+00 -0.00000000000E+00 -0.45593999997E+02  0.45594000000E+02  0.51100000000E-03 0.  1.
    9900012    2    1    2    0    0 -0.37036844722E+02 -0.20112963041E+02  0.10361698424E+02  0.47787263331E+02  0.19999964829E+02 0.  0.
        -12    1    1    2    0    0  0.37036844722E+02  0.20112963041E+02 -0.10361698424E+02  0.43400736669E+02  0.00000000000E+00 0.  1.
         11    1    3    3    0    0 -0.15239255258E+01  0.19098599076E+01 -0.24617058676E+01  0.34684160526E+01  0.51100000000E-03 0.  1.
        -11    1    3    3    0    0 -0.10331646012E+02 -0.76826645379E+01  0.73596105746E+01  0.14830040856E+02  0.51100000000E-03 0. -1.
         12    1    3    3    0    0 -0.25181273184E+02 -0.14340158411E+02  0.54637937170E+01  0.29488806422E+02  0.00000000000E+00 0. -1.
</event>
<event>
 7    1  0.1322363E-009  0.4778727E+02  0.7816164E-02  0.1312668E+00
        -11   -1    0    0    0    0  0.00000000000E+00  0.00000000000E+00  0.45593999997E+02  0.45594000000E+02  0.51100000000E-03 0. -1.
         11   -1    0    0    0    0 -0.00000000000E+00 -0.00000000000E+00 -0.45593999997E+02  0.45594000000E+02  0.51100000000E-03 0.  1.
    9900012    2    1    2    0    0  0.38090806992E+02 -0.34100680543E+01  0.20520358363E+02  0.47787271333E+02  0.20000001317E+02 0.  0.
        -12    1    1    2    0    0 -0.38090806992E+02  0.34100680543E+01 -0.20520358363E+02  0.43400728667E+02  0.00000000000E+00 0.  1.
         11    1    3    3    0    0  0.23809638234E+02 -0.19346089398E+01  0.12137902237E+02  0.26794966982E+02  0.51100000000E-03 0. -1.
        -11    1    3    3    0    0  0.21874196467E+01  0.46810666348E+01  0.45658036465E+01  0.68951978035E+01  0.51100000000E-03 0.  1.
         12    1    3    3    0    0  0.12093749111E+02 -0.61565257493E+01  0.38166524794E+01  0.14097106548E+02  0.00000000000E+00 0. -1.
</event>
<event>
 7    1  0.1322363E-009  0.4778727E+02  0.7816164E-02  0.1312668E+00
        -11   -1    0    0    0    0  0.00000000000E+00  0.00000000000E+00  0.45593999997E+02  0.45594000000E+02  0.51100000000E-03 0.  1.
         11   -1    0    0    0    0 -0.00000000000E+00 -0.00000000000E+00 -0.45593999997E+02  0.45594000000E+02  0.51100000000E-03 0. -1.
    9900012    2    1    2    0    0  0.21642585319E+02  0.27745876825E+02 -0.25404483790E+02  0.47787274468E+02  0.20000015607E+02 0.  0.
        -12    1    1    2    0    0 -0.21642585319E+02 -0.27745876825E+02  0.25404483790E+02  0.43400725532E+02  0.00000000000E+00 0.  1.
         11    1    3    3    0    0  0.12571183646E+02  0.20128188432E+02 -0.14048828298E+02  0.27578038448E+02  0.51100000000E-03 0. -1.
        -11    1    3    3    0    0  0.30195093837E+01  0.97812805851E+01 -0.61820973581E+01  0.11958646027E+02  0.51100000000E-03 0.  1.
        -12    1    3    3    0    0  0.60518922888E+01 -0.21635921919E+01 -0.51735581347E+01  0.82505899923E+01  0.00000000000E+00 0.  1.
</event>
<event>
 7    1  0.1322363E-009  0.4778727E+02  0.7816164E-02  0.1312668E+00
        -11   -1    0    0    0    0  0.00000000000E+00  0.00000000000E+00  0.45593999997E+02  0.45594000000E+02  0.51100000000E-03 0.  1.
         11   -1    0    0    0    0 -0.00000000000E+00 -0.00000000000E+00 -0.45593999997E+02  0.45594000000E+02  0.51100000000E-03 0. -1.
    9900012    2    1    2    0    0 -0.83992037989E+01  0.21955824729E+02 -0.36483127446E+02  0.47787268990E+02  0.19999990632E+02 0.  0.
        -12    1    1    2    0    0  0.83992037989E+01 -0.21955824729E+02  0.36483127446E+02  0.43400731010E+02  0.00000000000E+00 0.  1.
         11    1    3    3    0    0 -0.14010990086E+02  0.18081806690E+02 -0.26354968414E+02  0.34897620789E+02  0.51100000000E-03 0. -1.
        -11    1    3    3    0    0  0.23725665378E+01  0.35578371972E+01 -0.35792073093E+01  0.55765583223E+01  0.51100000000E-03 0.  1.
         12    1    3    3    0    0  0.32392197492E+01  0.31618084176E+00 -0.65489517220E+01  0.73130898781E+01  0.00000000000E+00 0. -1.
</event>
<event>
 7    1  0.1322363E-009  0.4778728E+02  0.7816164E-02  0.1312668E+00
        -11   -1    0    0    0    0  0.00000000000E+00  0.00000000000E+00  0.45593999997E+02  0.45594000000E+02  0.51100000000E-03 0. -1.
         11   -1    0    0    0    0 -0.00000000000E+00 -0.00000000000E+00 -0.45593999997E+02  0.45594000000E+02  0.51100000000E-03 0.  1.
    9900012    2    1    2    0    0  0.35878061246E+02 -0.24036453742E+02  0.43169732083E+01  0.47787278291E+02  0.20000033038E+02 0.  0.
        -12    1    1    2    0    0 -0.35878061246E+02  0.24036453742E+02 -0.43169732083E+01  0.43400721709E+02  0.00000000000E+00 0.  1.
         11    1    3    3    0    0  0.54598689091E+01 -0.32592666710E+01  0.47900658391E+01  0.79610124194E+01  0.51100000000E-03 0. -1.
        -11    1    3    3    0    0  0.86987541910E+01 -0.56246600064E+01  0.67651091970E+01  0.12372219986E+02  0.51100000000E-03 0.  1.
        -12    1    3    3    0    0  0.21719438146E+02 -0.15152527064E+02 -0.72382018278E+01  0.27454045886E+02  0.00000000000E+00 0.  1.
</event>
<event>
 7    1  0.1322363E-009  0.4778727E+02  0.7816164E-02  0.1312668E+00
        -11   -1    0    0    0    0  0.00000000000E+00  0.00000000000E+00  0.45593999997E+02  0.45594000000E+02  0.51100000000E-03 0. -1.
         11   -1    0    0    0    0 -0.00000000000E+00 -0.00000000000E+00 -0.45593999997E+02  0.45594000000E+02  0.51100000000E-03 0.  1.
    9900012    2    1    2    0    0  0.20329126163E+02 -0.27056276800E+02 -0.27171820876E+02  0.47787270346E+02  0.19999996813E+02 0.  0.
        -12    1    1    2    0    0 -0.20329126163E+02  0.27056276800E+02  0.27171820876E+02  0.43400729654E+02  0.00000000000E+00 0.  1.
         11    1    3    3    0    0  0.14465161153E+02 -0.23402533276E+02 -0.26825064152E+02  0.38425297890E+02  0.51100000000E-03 0. -1.
        -11    1    3    3    0    0  0.74132156734E+00 -0.20279510040E+01 -0.27318027147E+01  0.34820811699E+01  0.51100000000E-03 0.  1.
        -12    1    3    3    0    0  0.51226434424E+01 -0.16257925207E+01  0.23850459906E+01  0.58798912860E+01  0.00000000000E+00 0.  1.
</event>
<event>
 7    1  0.1322363E-009  0.4778727E+02  0.7816164E-02  0.1312668E+00
        -11   -1    0    0    0    0  0.00000000000E+00  0.00000000000E+00  0.45593999997E+02  0.45594000000E+02  0.51100000000E-03 0. -1.
         11   -1    0    0    0    0 -0.00000000000E+00 -0.00000000000E+00 -0.45593999997E+02  0.45594000000E+02  0.51100000000E-03 0.  1.
    9900012    2    1    2    0    0  0.12399737194E+02 -0.18545544642E+02  0.37228117252E+02  0.47787269330E+02  0.19999992185E+02 0.  0.
        -12    1    1    2    0    0 -0.12399737194E+02  0.18545544642E+02 -0.37228117252E+02  0.43400730670E+02  0.00000000000E+00 0.  1.
         11    1    3    3    0    0  0.30471409222E+01 -0.11521365782E+02  0.25555857279E+02  0.28198027924E+02  0.51100000000E-03 0. -1.
        -11    1    3    3    0    0 -0.88768902455E+00 -0.43109511403E+01  0.92299697505E+00  0.44971341113E+01  0.51100000000E-03 0.  1.
         12    1    3    3    0    0  0.10240285296E+02 -0.27132277195E+01  0.10749262998E+02  0.15092107295E+02  0.00000000000E+00 0. -1.
</event>
<event>
 7    1  0.1322363E-009  0.4778727E+02  0.7816164E-02  0.1312668E+00
        -11   -1    0    0    0    0  0.00000000000E+00  0.00000000000E+00  0.45593999997E+02  0.45594000000E+02  0.51100000000E-03 0. -1.
         11   -1    0    0    0    0 -0.00000000000E+00 -0.00000000000E+00 -0.45593999997E+02  0.45594000000E+02  0.51100000000E-03 0.  1.
    9900012    2    1    2    0    0  0.62306554913E+01 -0.40824473428E+02  0.13347827705E+02  0.47787271861E+02  0.20000003723E+02 0.  0.
        -12    1    1    2    0    0 -0.62306554913E+01  0.40824473428E+02 -0.13347827705E+02  0.43400728139E+02  0.00000000000E+00 0.  1.
         11    1    3    3    0    0  0.30530078807E+00 -0.16626482608E+02  0.96974561807E+01  0.19250293221E+02  0.51100000000E-03 0. -1.
        -11    1    3    3    0    0  0.43168817950E+01 -0.24679299678E+02  0.60717346080E+00  0.25061363908E+02  0.51100000000E-03 0.  1.
        -12    1    3    3    0    0  0.16084729083E+01  0.48130885738E+00  0.30431980634E+01  0.34756147320E+01  0.00000000000E+00 0.  1.
</event>
<event>
 7    1  0.1322363E-009  0.4778728E+02  0.7816164E-02  0.1312668E+00
        -11   -1    0    0    0    0  0.00000000000E+00  0.00000000000E+00  0.45593999997E+02  0.45594000000E+02  0.51100000000E-03 0.  1.
         11   -1    0    0    0    0 -0.00000000000E+00 -0.00000000000E+00 -0.45593999997E+02  0.45594000000E+02  0.51100000000E-03 0. -1.
    9900012    2    1    2    0    0 -0.47198737671E+01 -0.41739555237E+02 -0.10915817320E+02  0.47787277108E+02  0.20000027646E+02 0.  0.
        -12    1    1    2    0    0  0.47198737671E+01  0.41739555237E+02  0.10915817320E+02  0.43400722892E+02  0.00000000000E+00 0.  1.
         11    1    3    3    0    0 -0.68515358071E+01 -0.19683625544E+02 -0.12180150194E+02  0.24140105975E+02  0.51100000000E-03 0. -1.
        -11    1    3    3    0    0 -0.17462962950E+01 -0.17018768277E+02 -0.25941878909E+00  0.17110094178E+02  0.51100000000E-03 0.  1.
        -12    1    3    3    0    0  0.38779583351E+01 -0.50371614169E+01  0.15237516630E+01  0.65370769553E+01  0.00000000000E+00 0.  1.
</event>
<event>
 7    1  0.1322363E-009  0.4778727E+02  0.7816164E-02  0.1312668E+00
        -11   -1    0    0    0    0  0.00000000000E+00  0.00000000000E+00  0.45593999997E+02  0.45594000000E+02  0.51100000000E-03 0.  1.
         11   -1    0    0    0    0 -0.00000000000E+00 -0.00000000000E+00 -0.45593999997E+02  0.45594000000E+02  0.51100000000E-03 0. -1.
    9900012    2    1    2    0    0  0.10104880074E+02 -0.29009628202E+02 -0.30658704312E+02  0.47787270976E+02  0.19999999689E+02 0.  0.
        -12    1    1    2    0    0 -0.10104880074E+02  0.29009628202E+02  0.30658704312E+02  0.43400729024E+02  0.00000000000E+00 0.  1.
         11    1    3    3    0    0  0.11396298921E+02 -0.17675427577E+02 -0.18549890397E+02  0.28042731734E+02  0.51100000000E-03 0. -1.
        -11    1    3    3    0    0  0.92562950857E+00 -0.26190566931E+01  0.17065913671E+01  0.32601690607E+01  0.51100000000E-03 0.  1.
        -12    1    3    3    0    0 -0.22170483559E+01 -0.87151439322E+01 -0.13815405282E+02  0.16484370182E+02  0.00000000000E+00 0.  1.
</event>
<event>
 7    1  0.1322363E-009  0.4778727E+02  0.7816164E-02  0.1312668E+00
        -11   -1    0    0    0    0  0.00000000000E+00  0.00000000000E+00  0.45593999997E+02  0.45594000000E+02  0.51100000000E-03 0.  1.
         11   -1    0    0    0    0 -0.00000000000E+00 -0.00000000000E+00 -0.45593999997E+02  0.45594000000E+02  0.51100000000E-03 0. -1.
    9900012    2    1    2    0    0  0.21772968012E+02  0.25024822578E+02 -0.27987847405E+02  0.47787268630E+02  0.19999988989E+02 0.  0.
        -12    1    1    2    0    0 -0.21772968012E+02 -0.25024822578E+02  0.27987847405E+02  0.43400731370E+02  0.00000000000E+00 0.  1.
         11    1    3    3    0    0  0.20806453864E+01  0.41924450175E+01 -0.12348408312E+02  0.13205637756E+02  0.51100000000E-03 0. -1.
        -11    1    3    3    0    0  0.69357862924E+01  0.12525927543E+01 -0.61702707137E+01  0.93673027624E+01  0.51100000000E-03 0.  1.
        -12    1    3    3    0    0  0.12756536333E+02  0.19579784807E+02 -0.94691683795E+01  0.25214328111E+02  0.00000000000E+00 0.  1.
</event>
<event>
 7    1  0.1322363E-009  0.4778728E+02  0.7816164E-02  0.1312668E+00
        -11   -1    0    0    0    0  0.00000000000E+00  0.00000000000E+00  0.45593999997E+02  0.45594000000E+02  0.51100000000E-03 0.  1.
         11   -1    0    0    0    0 -0.00000000000E+00 -0.00000000000E+00 -0.45593999997E+02  0.45594000000E+02  0.51100000000E-03 0. -1.
    9900012    2    1    2    0    0  0.22303790225E+02  0.11443683067E+02 -0.35428886095E+02  0.47787275231E+02  0.20000019088E+02 0.  0.
        -12    1    1    2    0    0 -0.22303790225E+02 -0.11443683067E+02  0.35428886095E+02  0.43400724769E+02  0.00000000000E+00 0.  1.
         11    1    3    3    0    0  0.12382476516E+02  0.11781943481E+02 -0.31499050959E+02  0.35837551932E+02  0.51100000000E-03 0. -1.
        -11    1    3    3    0    0  0.67712988148E+01  0.21778444923E+01 -0.33992012450E+01  0.78834043178E+01  0.51100000000E-03 0.  1.
         12    1    3    3    0    0  0.31500148942E+01 -0.25161049066E+01 -0.53063389084E+00  0.40663189817E+01  0.00000000000E+00 0. -1.
</event>
<event>
 7    1  0.1322363E-009  0.4778727E+02  0.7816164E-02  0.1312668E+00
        -11   -1    0    0    0    0  0.00000000000E+00  0.00000000000E+00  0.45593999997E+02  0.45594000000E+02  0.51100000000E-03 0.  1.
         11   -1    0    0    0    0 -0.00000000000E+00 -0.00000000000E+00 -0.45593999997E+02  0.45594000000E+02  0.51100000000E-03 0. -1.
    9900012    2    1    2    0    0 -0.48772179556E+01  0.49302026907E+01 -0.42843075359E+02  0.47787271207E+02  0.20000000740E+02 0.  0.
        -12    1    1    2    0    0  0.48772179556E+01 -0.49302026907E+01  0.42843075359E+02  0.43400728793E+02  0.00000000000E+00 0.  1.
         11    1    3    3    0    0  0.21477629454E+01  0.21324276447E+01 -0.58298437802E+01  0.65686537503E+01  0.51100000000E-03 0.  1.
        -11    1    3    3    0    0  0.39516087781E+01  0.21512627077E+01 -0.22847039531E+02  0.23285840306E+02  0.51100000000E-03 0. -1.
         12    1    3    3    0    0 -0.10976589679E+02  0.64651233833E+00 -0.14166192048E+02  0.17932777151E+02  0.00000000000E+00 0. -1.
</event>
<event>
 7    1  0.1322363E-009  0.4778727E+02  0.7816164E-02  0.1312668E+00
        -11   -1    0    0    0    0  0.00000000000E+00  0.00000000000E+00  0.45593999997E+02  0.45594000000E+02  0.51100000000E-03 0.  1.
         11   -1    0    0    0    0 -0.00000000000E+00 -0.00000000000E+00 -0.45593999997E+02  0.45594000000E+02  0.51100000000E-03 0. -1.
    9900012    2    1    2    0    0  0.33386625949E+02 -0.27219658585E+02  0.52959302682E+01  0.47787268633E+02  0.19999989007E+02 0.  0.
        -12    1    1    2    0    0 -0.33386625949E+02  0.27219658585E+02 -0.52959302682E+01  0.43400731367E+02  0.00000000000E+00 0.  1.
         11    1    3    3    0    0  0.86344643523E+00 -0.76913199874E-01  0.20173348146E+01  0.21956992968E+01  0.51100000000E-03 0. -1.
        -11    1    3    3    0    0  0.60789524174E+01 -0.52134153902E+00  0.52036536079E+01  0.80189444832E+01  0.51100000000E-03 0.  1.
         12    1    3    3    0    0  0.26444227097E+02 -0.26621403846E+02 -0.19250581543E+01  0.37572624853E+02  0.00000000000E+00 0. -1.
</event>
<event>
 7    1  0.1322363E-009  0.4778727E+02  0.7816164E-02  0.1312668E+00
        -11   -1    0    0    0    0  0.00000000000E+00  0.00000000000E+00  0.45593999997E+02  0.45594000000E+02  0.51100000000E-03 0.  1.
         11   -1    0    0    0    0 -0.00000000000E+00 -0.00000000000E+00 -0.45593999997E+02  0.45594000000E+02  0.51100000000E-03 0. -1.
    9900012    2    1    2    0    0  0.39105542286E+02 -0.35352531401E+01  0.18490044507E+02  0.47787271917E+02  0.20000003980E+02 0.  0.
        -12    1    1    2    0    0 -0.39105542286E+02  0.35352531401E+01 -0.18490044507E+02  0.43400728083E+02  0.00000000000E+00 0.  1.
         11    1    3    3    0    0  0.94424006309E+01 -0.50013383196E+00 -0.79201538649E+00  0.94887487141E+01  0.51100000000E-03 0. -1.
        -11    1    3    3    0    0  0.16690337109E+02  0.24484172669E+01  0.17146560466E+02  0.24053412148E+02  0.51100000000E-03 0.  1.
        -12    1    3    3    0    0  0.12972804546E+02 -0.54835365750E+01  0.21354994279E+01  0.14245111055E+02  0.00000000000E+00 0.  1.
</event>
<event>
 7    1  0.1322363E-009  0.4778728E+02  0.7816164E-02  0.1312668E+00
        -11   -1    0    0    0    0  0.00000000000E+00  0.00000000000E+00  0.45593999997E+02  0.45594000000E+02  0.51100000000E-03 0.  1.
         11   -1    0    0    0    0 -0.00000000000E+00 -0.00000000000E+00 -0.45593999997E+02  0.45594000000E+02  0.51100000000E-03 0. -1.
    9900012    2    1    2    0    0 -0.41583926768E+02  0.49169124515E+01 -0.11411556642E+02  0.47787278595E+02  0.20000034424E+02 0.  0.
        -12    1    1    2    0    0  0.41583926768E+02 -0.49169124515E+01  0.11411556642E+02  0.43400721405E+02  0.00000000000E+00 0.  1.
         11    1    3    3    0    0 -0.52863416429E+01  0.76015305964E+01 -0.50174804197E+00  0.92725631155E+01  0.51100000000E-03 0. -1.
        -11    1    3    3    0    0 -0.12686649213E+02  0.21314462786E+00 -0.67280342220E+01  0.14361857249E+02  0.51100000000E-03 0.  1.
         12    1    3    3    0    0 -0.23610935912E+02 -0.28977627727E+01 -0.41817743782E+01  0.24152858230E+02  0.00000000000E+00 0. -1.
</event>
<event>
 7    1  0.1322363E-009  0.4778727E+02  0.7816164E-02  0.1312668E+00
        -11   -1    0    0    0    0  0.00000000000E+00  0.00000000000E+00  0.45593999997E+02  0.45594000000E+02  0.51100000000E-03 0. -1.
         11   -1    0    0    0    0 -0.00000000000E+00 -0.00000000000E+00 -0.45593999997E+02  0.45594000000E+02  0.51100000000E-03 0.  1.
    9900012    2    1    2    0    0  0.36015396650E+00 -0.39794350484E+02  0.17317716203E+02  0.47787270331E+02  0.19999996746E+02 0.  0.
        -12    1    1    2    0    0 -0.36015396650E+00  0.39794350484E+02 -0.17317716203E+02  0.43400729669E+02  0.00000000000E+00 0.  1.
         11    1    3    3    0    0 -0.47651916957E+01 -0.30867512549E+01  0.37610622823E+01  0.68103358918E+01  0.51100000000E-03 0.  1.
        -11    1    3    3    0    0 -0.14647412191E+01 -0.22136494879E+02  0.46326439925E+01  0.22663434493E+02  0.51100000000E-03 0. -1.
        -12    1    3    3    0    0  0.65900868813E+01 -0.14571104350E+02  0.89240099281E+01  0.18313499946E+02  0.00000000000E+00 0.  1.
</event>
<event>
 7    1  0.1322363E-009  0.4778727E+02  0.7816164E-02  0.1312668E+00
        -11   -1    0    0    0    0  0.00000000000E+00  0.00000000000E+00  0.45593999997E+02  0.45594000000E+02  0.51100000000E-03 0. -1.
         11   -1    0    0    0    0 -0.00000000000E+00 -0.00000000000E+00 -0.45593999997E+02  0.45594000000E+02  0.51100000000E-03 0.  1.
    9900012    2    1    2    0    0  0.34711732734E+02 -0.22628204881E+02  0.12910602286E+02  0.47787266171E+02  0.19999977780E+02 0.  0.
        -12    1    1    2    0    0 -0.34711732734E+02  0.22628204881E+02 -0.12910602286E+02  0.43400733829E+02  0.00000000000E+00 0.  1.
         11    1    3    3    0    0  0.22160743614E+02 -0.17115817105E+02  0.11392289408E+02  0.30229687576E+02  0.51100000000E-03 0. -1.
        -11    1    3    3    0    0  0.37002330098E+00 -0.62135380660E+00  0.41140640270E+01  0.41771426688E+01  0.51100000000E-03 0.  1.
        -12    1    3    3    0    0  0.12180965819E+02 -0.48910339687E+01 -0.25957511488E+01  0.13380435927E+02  0.00000000000E+00 0.  1.
</event>
<event>
 7    1  0.1322363E-009  0.4778727E+02  0.7816164E-02  0.1312668E+00
        -11   -1    0    0    0    0  0.00000000000E+00  0.00000000000E+00  0.45593999997E+02  0.45594000000E+02  0.51100000000E-03 0. -1.
         11   -1    0    0    0    0 -0.00000000000E+00 -0.00000000000E+00 -0.45593999997E+02  0.45594000000E+02  0.51100000000E-03 0.  1.
    9900012    2    1    2    0    0  0.34117054955E+02  0.21014901341E+02  0.16674048031E+02  0.47787269650E+02  0.19999993642E+02 0.  0.
        -12    1    1    2    0    0 -0.34117054955E+02 -0.21014901341E+02 -0.16674048031E+02  0.43400730350E+02  0.00000000000E+00 0.  1.
         11    1    3    3    0    0  0.47376421267E+01 -0.19418246411E+01  0.16588345142E+01  0.53821620251E+01  0.51100000000E-03 0. -1.
        -11    1    3    3    0    0  0.60194604789E+01  0.11897747035E+02  0.20516863370E+01  0.13490726669E+02  0.51100000000E-03 0.  1.
        -12    1    3    3    0    0  0.23359952350E+02  0.11058978947E+02  0.12963527180E+02  0.28914380956E+02  0.00000000000E+00 0.  1.
</event>
<event>
 7    1  0.1322363E-009  0.4778727E+02  0.7816164E-02  0.1312668E+00
        -11   -1    0    0    0    0  0.00000000000E+00  0.00000000000E+00  0.45593999997E+02  0.45594000000E+02  0.51100000000E-03 0.  1.
         11   -1    0    0    0    0 -0.00000000000E+00 -0.00000000000E+00 -0.45593999997E+02  0.45594000000E+02  0.51100000000E-03 0. -1.
    9900012    2    1    2    0    0 -0.13001903468E+02  0.42968711843E+01 -0.41183867712E+02  0.47787267800E+02  0.19999985206E+02 0.  0.
        -12    1    1    2    0    0  0.13001903468E+02 -0.42968711843E+01  0.41183867712E+02  0.43400732200E+02  0.00000000000E+00 0.  1.
         11    1    3    3    0    0 -0.59818453926E+01 -0.39320156578E+01 -0.22661722430E+02  0.23765455712E+02  0.51100000000E-03 0. -1.
        -11    1    3    3    0    0 -0.11073068776E+01  0.74506685677E+01 -0.15722231644E+02  0.17433506783E+02  0.51100000000E-03 0.  1.
        -12    1    3    3    0    0 -0.59127511978E+01  0.77821827443E+00 -0.27999136387E+01  0.65883053052E+01  0.00000000000E+00 0.  1.
</event>
<event>
 7    1  0.1322363E-009  0.4778728E+02  0.7816164E-02  0.1312668E+00
        -11   -1    0    0    0    0  0.00000000000E+00  0.00000000000E+00  0.45593999997E+02  0.45594000000E+02  0.51100000000E-03 0.  1.
         11   -1    0    0    0    0 -0.00000000000E+00 -0.00000000000E+00 -0.45593999997E+02  0.45594000000E+02  0.51100000000E-03 0. -1.
    9900012    2    1    2    0    0 -0.33888230683E+02  0.10737244706E+02 -0.24898233960E+02  0.47787278151E+02  0.20000032400E+02 0.  0.
        -12    1    1    2    0    0  0.33888230683E+02 -0.10737244706E+02  0.24898233960E+02  0.43400721849E+02  0.00000000000E+00 0.  1.
         11    1    3    3    0    0 -0.28968518425E+01  0.33619634753E+01 -0.53241522171E+01  0.69311720581E+01  0.51100000000E-03 0. -1.
        -11    1    3    3    0    0  0.13365665932E+01 -0.15403041483E+01 -0.24956546094E+01  0.32229240323E+01  0.51100000000E-03 0.  1.
         12    1    3    3    0    0 -0.32327945434E+02  0.89155853792E+01 -0.17078427134E+02  0.37633182060E+02  0.00000000000E+00 0. -1.
</event>
<event>
 7    1  0.1322363E-009  0.4778727E+02  0.7816164E-02  0.1312668E+00
        -11   -1    0    0    0    0  0.00000000000E+00  0.00000000000E+00  0.45593999997E+02  0.45594000000E+02  0.51100000000E-03 0. -1.
         11   -1    0    0    0    0 -0.00000000000E+00 -0.00000000000E+00 -0.45593999997E+02  0.45594000000E+02  0.51100000000E-03 0.  1.
    9900012    2    1    2    0    0 -0.40986662924E+02  0.23677045509E+01  0.14075187103E+02  0.47787268964E+02  0.19999990515E+02 0.  0.
        -12    1    1    2    0    0  0.40986662924E+02 -0.23677045509E+01 -0.14075187103E+02  0.43400731036E+02  0.00000000000E+00 0.  1.
         11    1    3    3    0    0 -0.23821435366E+02 -0.45987678541E+01  0.96245134765E+01  0.26100588280E+02  0.51100000000E-03 0. -1.
        -11    1    3    3    0    0  0.24015799981E+00 -0.38390072604E+00 -0.17451372604E+01  0.18029309335E+01  0.51100000000E-03 0.  1.
         12    1    3    3    0    0 -0.17405385558E+02  0.73503731310E+01  0.61958108868E+01  0.19883749750E+02  0.00000000000E+00 0. -1.
</event>
<event>
 7    1  0.1322363E-009  0.4778727E+02  0.7816164E-02  0.1312668E+00
        -11   -1    0    0    0    0  0.00000000000E+00  0.00000000000E+00  0.45593999997E+02  0.45594000000E+02  0.51100000000E-03 0.  1.
         11   -1    0    0    0    0 -0.00000000000E+00 -0.00000000000E+00 -0.45593999997E+02  0.45594000000E+02  0.51100000000E-03 0. -1.
    9900012    2    1    2    0    0 -0.35808816470E+02 -0.21413156129E+02 -0.11951097793E+02  0.47787270388E+02  0.19999997006E+02 0.  0.
        -12    1    1    2    0    0  0.35808816470E+02  0.21413156129E+02  0.11951097793E+02  0.43400729612E+02  0.00000000000E+00 0.  1.
         11    1    3    3    0    0 -0.18810874118E+02 -0.40644582789E+01 -0.42909955896E+01  0.19717541672E+02  0.51100000000E-03 0. -1.
        -11    1    3    3    0    0 -0.73768560511E+01 -0.95543418080E+00 -0.47873026736E+01  0.88458536514E+01  0.51100000000E-03 0.  1.
        -12    1    3    3    0    0 -0.96210863012E+01 -0.16393263670E+02 -0.28727995301E+01  0.19223875065E+02  0.00000000000E+00 0.  1.
</event>
<event>
 7    1  0.1322363E-009  0.4778730E+02  0.7816164E-02  0.1312668E+00
        -11   -1    0    0    0    0  0.00000000000E+00  0.00000000000E+00  0.45593999997E+02  0.45594000000E+02  0.51100000000E-03 0. -1.
         11   -1    0    0    0    0 -0.00000000000E+00 -0.00000000000E+00 -0.45593999997E+02  0.45594000000E+02  0.51100000000E-03 0.  1.
    9900012    2    1    2    0    0 -0.40580722806E+02 -0.59440626412E+01  0.14194862439E+02  0.47787296506E+02  0.20000116087E+02 0.  0.
        -12    1    1    2    0    0  0.40580722806E+02  0.59440626412E+01 -0.14194862439E+02  0.43400703494E+02  0.00000000000E+00 0.  1.
         11    1    3    3    0    0 -0.17459703961E+02 -0.83713472664E+01 -0.19705261722E+01  0.19462879826E+02  0.51100000000E-03 0.  1.
        -11    1    3    3    0    0 -0.10922322577E+02  0.14943273815E+01  0.76634819910E+01  0.13426060527E+02  0.51100000000E-03 0. -1.
        -12    1    3    3    0    0 -0.12198696268E+02  0.93295724368E+00  0.85019066203E+01  0.14898356152E+02  0.00000000000E+00 0.  1.
</event>
<event>
 7    1  0.1322363E-009  0.4778728E+02  0.7816164E-02  0.1312668E+00
        -11   -1    0    0    0    0  0.00000000000E+00  0.00000000000E+00  0.45593999997E+02  0.45594000000E+02  0.51100000000E-03 0. -1.
         11   -1    0    0    0    0 -0.00000000000E+00 -0.00000000000E+00 -0.45593999997E+02  0.45594000000E+02  0.51100000000E-03 0.  1.
    9900012    2    1    2    0    0  0.25658082984E+02  0.34887321918E+02  0.28565728006E+01  0.47787280407E+02  0.20000042689E+02 0.  0.
        -12    1    1    2    0    0 -0.25658082984E+02 -0.34887321918E+02 -0.28565728006E+01  0.43400719593E+02  0.00000000000E+00 0.  1.
         11    1    3    3    0    0  0.11720513412E+02  0.25232321871E+02  0.64817605384E+00  0.27829132830E+02  0.51100000000E-03 0. -1.
        -11    1    3    3    0    0  0.77490653581E+01  0.99005691672E+01 -0.16208260091E+01  0.12676606840E+02  0.51100000000E-03 0.  1.
        -12    1    3    3    0    0  0.61885042134E+01 -0.24556911986E+00  0.38292227558E+01  0.72815407371E+01  0.00000000000E+00 0.  1.
</event>
<event>
 7    1  0.1322363E-009  0.4778727E+02  0.7816164E-02  0.1312668E+00
        -11   -1    0    0    0    0  0.00000000000E+00  0.00000000000E+00  0.45593999997E+02  0.45594000000E+02  0.51100000000E-03 0.  1.
         11   -1    0    0    0    0 -0.00000000000E+00 -0.00000000000E+00 -0.45593999997E+02  0.45594000000E+02  0.51100000000E-03 0. -1.
    9900012    2    1    2    0    0 -0.13119033469E+02  0.23624814990E+02 -0.33961482106E+02  0.47787272019E+02  0.20000004442E+02 0.  0.
        -12    1    1    2    0    0  0.13119033469E+02 -0.23624814990E+02  0.33961482106E+02  0.43400727981E+02  0.00000000000E+00 0.  1.
         11    1    3    3    0    0 -0.31986339012E+01  0.38186951454E+01 -0.10745196837E+02  0.11843688056E+02  0.51100000000E-03 0. -1.
        -11    1    3    3    0    0 -0.57282558664E+01  0.41838941824E+01  0.63838758058E+00  0.71221783721E+01  0.51100000000E-03 0.  1.
        -12    1    3    3    0    0 -0.41921437018E+01  0.15622225662E+02 -0.23854672849E+02  0.28821405590E+02  0.00000000000E+00 0.  1.
</event>
<event>
 7    1  0.1322363E-009  0.4778726E+02  0.7816164E-02  0.1312668E+00
        -11   -1    0    0    0    0  0.00000000000E+00  0.00000000000E+00  0.45593999997E+02  0.45594000000E+02  0.51100000000E-03 0.  1.
         11   -1    0    0    0    0 -0.00000000000E+00 -0.00000000000E+00 -0.45593999997E+02  0.45594000000E+02  0.51100000000E-03 0. -1.
    9900012    2    1    2    0    0  0.40545458379E+02 -0.12343855765E+02 -0.93444635395E+01  0.47787263035E+02  0.19999963481E+02 0.  0.
        -12    1    1    2    0    0 -0.40545458379E+02  0.12343855765E+02  0.93444635395E+01  0.43400736965E+02  0.00000000000E+00 0.  1.
         11    1    3    3    0    0  0.28797553003E+02 -0.94437739560E+01  0.19000873776E+01  0.30366004969E+02  0.51100000000E-03 0. -1.
        -11    1    3    3    0    0  0.42224801233E+01 -0.37440685338E+01 -0.38094769895E+01  0.68087812986E+01  0.51100000000E-03 0.  1.
         12    1    3    3    0    0  0.75254252523E+01  0.84398672514E+00 -0.74350739276E+01  0.10612476767E+02  0.00000000000E+00 0. -1.
</event>
<event>
 7    1  0.1322363E-009  0.4778727E+02  0.7816164E-02  0.1312668E+00
        -11   -1    0    0    0    0  0.00000000000E+00  0.00000000000E+00  0.45593999997E+02  0.45594000000E+02  0.51100000000E-03 0. -1.
         11   -1    0    0    0    0 -0.00000000000E+00 -0.00000000000E+00 -0.45593999997E+02  0.45594000000E+02  0.51100000000E-03 0.  1.
    9900012    2    1    2    0    0  0.12114451021E+02  0.32963756798E+02  0.25500073477E+02  0.47787274971E+02  0.20000017901E+02 0.  0.
        -12    1    1    2    0    0 -0.12114451021E+02 -0.32963756798E+02 -0.25500073477E+02  0.43400725029E+02  0.00000000000E+00 0.  1.
         11    1    3    3    0    0 -0.44519793924E+00  0.11520414910E+02  0.66576877463E+01  0.13313262834E+02  0.51100000000E-03 0. -1.
        -11    1    3    3    0    0 -0.72105023277E+00  0.47857569750E+01  0.10561113137E+02  0.11617249856E+02  0.51100000000E-03 0.  1.
         12    1    3    3    0    0  0.13280699193E+02  0.16657584912E+02  0.82812725938E+01  0.22856762280E+02  0.00000000000E+00 0. -1.
</event>
<event>
 7    1  0.1322363E-009  0.4778728E+02  0.7816164E-02  0.1312668E+00
        -11   -1    0    0    0    0  0.00000000000E+00  0.00000000000E+00  0.45593999997E+02  0.45594000000E+02  0.51100000000E-03 0.  1.
         11   -1    0    0    0    0 -0.00000000000E+00 -0.00000000000E+00 -0.45593999997E+02  0.45594000000E+02  0.51100000000E-03 0. -1.
    9900012    2    1    2    0    0  0.37272419557E+02 -0.72559064563E+01 -0.21017626782E+02  0.47787284871E+02  0.20000063041E+02 0.  0.
        -12    1    1    2    0    0 -0.37272419557E+02  0.72559064563E+01  0.21017626782E+02  0.43400715129E+02  0.00000000000E+00 0.  1.
         11    1    3    3    0    0  0.19332695446E+02 -0.49194789325E+01 -0.11889216777E+02  0.23223002864E+02  0.51100000000E-03 0. -1.
        -11    1    3    3    0    0  0.70485414735E+00 -0.43137682699E+01 -0.51706811941E+01  0.67706248107E+01  0.51100000000E-03 0.  1.
         12    1    3    3    0    0  0.17234869964E+02  0.19773407461E+01 -0.39577288113E+01  0.17793657197E+02  0.00000000000E+00 0. -1.
</event>
<event>
 7    1  0.1322363E-009  0.4778726E+02  0.7816164E-02  0.1312668E+00
        -11   -1    0    0    0    0  0.00000000000E+00  0.00000000000E+00  0.45593999997E+02  0.45594000000E+02  0.51100000000E-03 0.  1.
         11   -1    0    0    0    0 -0.00000000000E+00 -0.00000000000E+00 -0.45593999997E+02  0.45594000000E+02  0.51100000000E-03 0. -1.
    9900012    2    1    2    0    0  0.32022122273E+02  0.96983723755E+01 -0.27643251135E+02  0.47787261817E+02  0.19999957926E+02 0.  0.
        -12    1    1    2    0    0 -0.32022122273E+02 -0.96983723755E+01  0.27643251135E+02  0.43400738183E+02  0.00000000000E+00 0.  1.
         11    1    3    3    0    0  0.17790451916E+02  0.50140492675E+01 -0.11005942199E+02  0.21512127588E+02  0.51100000000E-03 0. -1.
        -11    1    3    3    0    0  0.44313965151E+01 -0.46520472705E+01 -0.31072104472E+01  0.71367762965E+01  0.51100000000E-03 0.  1.
        -12    1    3    3    0    0  0.98002738416E+01  0.93363703786E+01 -0.13530098489E+02  0.19138357932E+02  0.00000000000E+00 0.  1.
</event>
<event>
 7    1  0.1322363E-009  0.4778727E+02  0.7816164E-02  0.1312668E+00
        -11   -1    0    0    0    0  0.00000000000E+00  0.00000000000E+00  0.45593999997E+02  0.45594000000E+02  0.51100000000E-03 0.  1.
         11   -1    0    0    0    0 -0.00000000000E+00 -0.00000000000E+00 -0.45593999997E+02  0.45594000000E+02  0.51100000000E-03 0. -1.
    9900012    2    1    2    0    0  0.33481609373E+02  0.24363437557E+00 -0.27614226327E+02  0.47787273975E+02  0.20000013360E+02 0.  0.
        -12    1    1    2    0    0 -0.33481609373E+02 -0.24363437557E+00  0.27614226327E+02  0.43400726025E+02  0.00000000000E+00 0.  1.
         11    1    3    3    0    0  0.18887738940E+02  0.78343666800E+01 -0.80184630335E+01  0.21964055482E+02  0.51100000000E-03 0.  1.
        -11    1    3    3    0    0  0.24006478401E+01 -0.28386676861E+01 -0.47784376232E+01  0.60543051347E+01  0.51100000000E-03 0. -1.
        -12    1    3    3    0    0  0.12193222593E+02 -0.47520646184E+01 -0.14817325670E+02  0.19768913358E+02  0.00000000000E+00 0.  1.
</event>
<event>
 7    1  0.1322363E-009  0.4778727E+02  0.7816164E-02  0.1312668E+00
        -11   -1    0    0    0    0  0.00000000000E+00  0.00000000000E+00  0.45593999997E+02  0.45594000000E+02  0.51100000000E-03 0. -1.
         11   -1    0    0    0    0 -0.00000000000E+00 -0.00000000000E+00 -0.45593999997E+02  0.45594000000E+02  0.51100000000E-03 0.  1.
    9900012    2    1    2    0    0  0.32932855237E+01  0.42766690923E+02  0.66172443986E+01  0.47787268376E+02  0.19999987834E+02 0.  0.
        -12    1    1    2    0    0 -0.32932855237E+01 -0.42766690923E+02 -0.66172443986E+01  0.43400731624E+02  0.00000000000E+00 0.  1.
         11    1    3    3    0    0 -0.22391538223E+01  0.12937358929E+02  0.21359190585E+01  0.13302301169E+02  0.51100000000E-03 0. -1.
        -11    1    3    3    0    0  0.96837321708E+01  0.19624607663E+02 -0.15256973966E+01  0.21936901502E+02  0.51100000000E-03 0.  1.
         12    1    3    3    0    0 -0.41512928248E+01  0.10204724331E+02  0.60070227368E+01  0.12548065705E+02  0.00000000000E+00 0. -1.
</event>
<event>
 7    1  0.1322363E-009  0.4778728E+02  0.7816164E-02  0.1312668E+00
        -11   -1    0    0    0    0  0.00000000000E+00  0.00000000000E+00  0.45593999997E+02  0.45594000000E+02  0.51100000000E-03 0.  1.
         11   -1    0    0    0    0 -0.00000000000E+00 -0.00000000000E+00 -0.45593999997E+02  0.45594000000E+02  0.51100000000E-03 0. -1.
    9900012    2    1    2    0    0 -0.92881544441E+01 -0.18452222755E+02 -0.38168947516E+02  0.47787275443E+02  0.20000020056E+02 0.  0.
        -12    1    1    2    0    0  0.92881544441E+01  0.18452222755E+02  0.38168947516E+02  0.43400724557E+02  0.00000000000E+00 0.  1.
         11    1    3    3    0    0 -0.85368692442E+01 -0.93003177875E+01 -0.15509374448E+02  0.19997868473E+02  0.51100000000E-03 0. -1.
        -11    1    3    3    0    0 -0.56966909344E+01 -0.59718386571E+01 -0.62333756088E+01  0.10342635848E+02  0.51100000000E-03 0.  1.
         12    1    3    3    0    0  0.49454057344E+01 -0.31800663105E+01 -0.16426197459E+02  0.17446771122E+02  0.00000000000E+00 0. -1.
</event>
<event>
 7    1  0.1322363E-009  0.4778727E+02  0.7816164E-02  0.1312668E+00
        -11   -1    0    0    0    0  0.00000000000E+00  0.00000000000E+00  0.45593999997E+02  0.45594000000E+02  0.51100000000E-03 0.  1.
         11   -1    0    0    0    0 -0.00000000000E+00 -0.00000000000E+00 -0.45593999997E+02  0.45594000000E+02  0.51100000000E-03 0. -1.
    9900012    2    1    2    0    0 -0.19724489438E+02 -0.31130246902E+02 -0.22923257632E+02  0.47787268483E+02  0.19999988321E+02 0.  0.
        -12    1    1    2    0    0  0.19724489438E+02  0.31130246902E+02  0.22923257632E+02  0.43400731517E+02  0.00000000000E+00 0.  1.
         11    1    3    3    0    0 -0.11712200260E+02 -0.13131490955E+02 -0.15501865058E+02  0.23450362687E+02  0.51100000000E-03 0. -1.
        -11    1    3    3    0    0 -0.31862020380E+00  0.15579052208E+01  0.78810493791E+00  0.17747386190E+01  0.51100000000E-03 0.  1.
        -12    1    3    3    0    0 -0.76936689743E+01 -0.19556661168E+02 -0.82094975126E+01  0.22562167177E+02  0.00000000000E+00 0.  1.
</event>
<event>
 7    1  0.1322363E-009  0.4778727E+02  0.7816164E-02  0.1312668E+00
        -11   -1    0    0    0    0  0.00000000000E+00  0.00000000000E+00  0.45593999997E+02  0.45594000000E+02  0.51100000000E-03 0.  1.
         11   -1    0    0    0    0 -0.00000000000E+00 -0.00000000000E+00 -0.45593999997E+02  0.45594000000E+02  0.51100000000E-03 0. -1.
    9900012    2    1    2    0    0  0.27396674537E+02  0.81135906834E+01 -0.32668257817E+02  0.47787271916E+02  0.20000003973E+02 0.  0.
        -12    1    1    2    0    0 -0.27396674537E+02 -0.81135906834E+01  0.32668257817E+02  0.43400728084E+02  0.00000000000E+00 0.  1.
         11    1    3    3    0    0 -0.31104339710E+01  0.12282793059E+01 -0.48743784841E+01  0.59112634359E+01  0.51100000000E-03 0. -1.
        -11    1    3    3    0    0  0.10313564325E+02  0.15719813934E+01 -0.87901758461E+01  0.13642137891E+02  0.51100000000E-03 0.  1.
         12    1    3    3    0    0  0.20193544183E+02  0.53133299841E+01 -0.19003703487E+02  0.28233870588E+02  0.00000000000E+00 0. -1.
</event>
<event>
 7    1  0.1322363E-009  0.4778727E+02  0.7816164E-02  0.1312668E+00
        -11   -1    0    0    0    0  0.00000000000E+00  0.00000000000E+00  0.45593999997E+02  0.45594000000E+02  0.51100000000E-03 0.  1.
         11   -1    0    0    0    0 -0.00000000000E+00 -0.00000000000E+00 -0.45593999997E+02  0.45594000000E+02  0.51100000000E-03 0. -1.
    9900012    2    1    2    0    0 -0.42101547513E+02 -0.39612219507E+01  0.97668763555E+01  0.47787268945E+02  0.19999990430E+02 0.  0.
        -12    1    1    2    0    0  0.42101547513E+02  0.39612219507E+01 -0.97668763555E+01  0.43400731055E+02  0.00000000000E+00 0.  1.
         11    1    3    3    0    0 -0.13564909511E+02  0.29477974967E+01  0.58568964442E+01  0.15066503123E+02  0.51100000000E-03 0. -1.
        -11    1    3    3    0    0 -0.10100299397E+01 -0.27689002590E+01 -0.28236825747E+01  0.40816850280E+01  0.51100000000E-03 0.  1.
        -12    1    3    3    0    0 -0.27526608062E+02 -0.41401191884E+01  0.67336624860E+01  0.28639080795E+02  0.00000000000E+00 0.  1.
</event>
<event>
 7    1  0.1322363E-009  0.4778727E+02  0.7816164E-02  0.1312668E+00
        -11   -1    0    0    0    0  0.00000000000E+00  0.00000000000E+00  0.45593999997E+02  0.45594000000E+02  0.51100000000E-03 0.  1.
         11   -1    0    0    0    0 -0.00000000000E+00 -0.00000000000E+00 -0.45593999997E+02  0.45594000000E+02  0.51100000000E-03 0. -1.
    9900012    2    1    2    0    0  0.12232515287E+02  0.16845706886E+02 -0.38081632385E+02  0.47787274247E+02  0.20000014604E+02 0.  0.
        -12    1    1    2    0    0 -0.12232515287E+02 -0.16845706886E+02  0.38081632385E+02  0.43400725753E+02  0.00000000000E+00 0.  1.
         11    1    3    3    0    0  0.90599601475E+00 -0.95038762712E+00 -0.41148060482E+01  0.43192238303E+01  0.51100000000E-03 0. -1.
        -11    1    3    3    0    0 -0.23869946402E+01 -0.14417491866E+01 -0.74421068076E+01  0.79474107812E+01  0.51100000000E-03 0.  1.
         12    1    3    3    0    0  0.13713513912E+02  0.19237843699E+02 -0.26524719530E+02  0.35520639636E+02  0.00000000000E+00 0. -1.
</event>
<event>
 7    1  0.1322363E-009  0.4778727E+02  0.7816164E-02  0.1312668E+00
        -11   -1    0    0    0    0  0.00000000000E+00  0.00000000000E+00  0.45593999997E+02  0.45594000000E+02  0.51100000000E-03 0.  1.
         11   -1    0    0    0    0 -0.00000000000E+00 -0.00000000000E+00 -0.45593999997E+02  0.45594000000E+02  0.51100000000E-03 0. -1.
    9900012    2    1    2    0    0  0.91333941240E+01  0.14408903484E+02 -0.39907241014E+02  0.47787271052E+02  0.20000000034E+02 0.  0.
        -12    1    1    2    0    0 -0.91333941240E+01 -0.14408903484E+02  0.39907241014E+02  0.43400728948E+02  0.00000000000E+00 0.  1.
         11    1    3    3    0    0  0.53425485575E+01  0.62131140277E+01 -0.28719340971E+02  0.29865467635E+02  0.51100000000E-03 0. -1.
        -11    1    3    3    0    0  0.59155939890E+01  0.97220657200E+01 -0.92676749974E+01  0.14676600908E+02  0.51100000000E-03 0.  1.
         12    1    3    3    0    0 -0.21247484225E+01 -0.15262762634E+01 -0.19202250459E+01  0.32452025080E+01  0.00000000000E+00 0. -1.
</event>
<event>
 7    1  0.1322363E-009  0.4778730E+02  0.7816164E-02  0.1312668E+00
        -11   -1    0    0    0    0  0.00000000000E+00  0.00000000000E+00  0.45593999997E+02  0.45594000000E+02  0.51100000000E-03 0.  1.
         11   -1    0    0    0    0 -0.00000000000E+00 -0.00000000000E+00 -0.45593999997E+02  0.45594000000E+02  0.51100000000E-03 0. -1.
    9900012    2    1    2    0    0  0.38681788425E+02 -0.31290614537E+01 -0.19430627784E+02  0.47787296349E+02  0.20000115374E+02 0.  0.
        -12    1    1    2    0    0 -0.38681788425E+02  0.31290614537E+01  0.19430627784E+02  0.43400703651E+02  0.00000000000E+00 0.  1.
         11    1    3    3    0    0  0.18828192232E+02 -0.34456503370E+01 -0.16294228075E+02  0.25137127875E+02  0.51100000000E-03 0. -1.
        -11    1    3    3    0    0  0.18813912626E+02  0.25301267234E+01 -0.49352154542E+01  0.19614311137E+02  0.51100000000E-03 0.  1.
        -12    1    3    3    0    0  0.10396835664E+01 -0.22135378401E+01  0.17988157454E+01  0.30358573375E+01  0.00000000000E+00 0.  1.
</event>
<event>
 7    1  0.1322363E-009  0.4778727E+02  0.7816164E-02  0.1312668E+00
        -11   -1    0    0    0    0  0.00000000000E+00  0.00000000000E+00  0.45593999997E+02  0.45594000000E+02  0.51100000000E-03 0.  1.
         11   -1    0    0    0    0 -0.00000000000E+00 -0.00000000000E+00 -0.45593999997E+02  0.45594000000E+02  0.51100000000E-03 0. -1.
    9900012    2    1    2    0    0  0.27467214137E+02 -0.76092711919E+01 -0.32730323776E+02  0.47787274718E+02  0.20000016749E+02 0.  0.
        -12    1    1    2    0    0 -0.27467214137E+02  0.76092711919E+01  0.32730323776E+02  0.43400725282E+02  0.00000000000E+00 0.  1.
         11    1    3    3    0    0  0.12575753510E+02 -0.10120165749E+02 -0.19043231696E+02  0.24964214485E+02  0.51100000000E-03 0. -1.
        -11    1    3    3    0    0  0.52877261773E+01 -0.35299547385E+01 -0.77297470253E+01  0.10008477303E+02  0.51100000000E-03 0.  1.
        -12    1    3    3    0    0  0.96037344487E+01  0.60408492959E+01 -0.59573450546E+01  0.12814582930E+02  0.00000000000E+00 0.  1.
</event>
<event>
 7    1  0.1322363E-009  0.4778728E+02  0.7816164E-02  0.1312668E+00
        -11   -1    0    0    0    0  0.00000000000E+00  0.00000000000E+00  0.45593999997E+02  0.45594000000E+02  0.51100000000E-03 0.  1.
         11   -1    0    0    0    0 -0.00000000000E+00 -0.00000000000E+00 -0.45593999997E+02  0.45594000000E+02  0.51100000000E-03 0. -1.
    9900012    2    1    2    0    0  0.76899494604E+01  0.27849121230E+02 -0.32386940042E+02  0.47787276950E+02  0.20000026925E+02 0.  0.
        -12    1    1    2    0    0 -0.76899494604E+01 -0.27849121230E+02  0.32386940042E+02  0.43400723050E+02  0.00000000000E+00 0.  1.
         11    1    3    3    0    0 -0.19967126362E+01  0.20115380795E+01 -0.87979164141E+00  0.29676894026E+01  0.51100000000E-03 0.  1.
        -11    1    3    3    0    0  0.11655375894E+02  0.26940357911E+02 -0.27511341996E+02  0.40230642678E+02  0.51100000000E-03 0. -1.
         12    1    3    3    0    0 -0.19687137977E+01 -0.11027747604E+01 -0.39958064052E+01  0.45889448697E+01  0.00000000000E+00 0. -1.
</event>
<event>
 7    1  0.1322363E-009  0.4778728E+02  0.7816164E-02  0.1312668E+00
        -11   -1    0    0    0    0  0.00000000000E+00  0.00000000000E+00  0.45593999997E+02  0.45594000000E+02  0.51100000000E-03 0. -1.
         11   -1    0    0    0    0 -0.00000000000E+00 -0.00000000000E+00 -0.45593999997E+02  0.45594000000E+02  0.51100000000E-03 0.  1.
    9900012    2    1    2    0    0  0.31075897585E+02  0.26016196637E+02  0.15526397495E+02  0.47787275152E+02  0.20000018726E+02 0.  0.
        -12    1    1    2    0    0 -0.31075897585E+02 -0.26016196637E+02 -0.15526397495E+02  0.43400724848E+02  0.00000000000E+00 0.  1.
         11    1    3    3    0    0  0.16910324983E+02  0.52222700061E+01  0.10666020861E+02  0.20663862086E+02  0.51100000000E-03 0. -1.
        -11    1    3    3    0    0 -0.88832459748E+00  0.34217236476E+01 -0.35196269816E+00  0.35526316039E+01  0.51100000000E-03 0.  1.
        -12    1    3    3    0    0  0.15053897200E+02  0.17372202983E+02  0.52123393323E+01  0.23570781462E+02  0.00000000000E+00 0.  1.
</event>
<event>
 7    1  0.1322363E-009  0.4778728E+02  0.7816164E-02  0.1312668E+00
        -11   -1    0    0    0    0  0.00000000000E+00  0.00000000000E+00  0.45593999997E+02  0.45594000000E+02  0.51100000000E-03 0.  1.
         11   -1    0    0    0    0 -0.00000000000E+00 -0.00000000000E+00 -0.45593999997E+02  0.45594000000E+02  0.51100000000E-03 0. -1.
    9900012    2    1    2    0    0  0.35012079088E+02  0.25631524622E+02 -0.89560729248E+00  0.47787275940E+02  0.20000022320E+02 0.  0.
        -12    1    1    2    0    0 -0.35012079088E+02 -0.25631524622E+02  0.89560729248E+00  0.43400724060E+02  0.00000000000E+00 0.  1.
         11    1    3    3    0    0  0.79618883962E+01  0.17925924377E+02 -0.75383162452E+00  0.19629026822E+02  0.51100000000E-03 0. -1.
        -11    1    3    3    0    0  0.93381941670E+01  0.20038324663E+01 -0.49407233908E-01  0.95508981876E+01  0.51100000000E-03 0.  1.
         12    1    3    3    0    0  0.17711996525E+02  0.57017677780E+01 -0.92368434050E-01  0.18607350930E+02  0.00000000000E+00 0. -1.
</event>
<event>
 7    1  0.1322363E-009  0.4778728E+02  0.7816164E-02  0.1312668E+00
        -11   -1    0    0    0    0  0.00000000000E+00  0.00000000000E+00  0.45593999997E+02  0.45594000000E+02  0.51100000000E-03 0.  1.
         11   -1    0    0    0    0 -0.00000000000E+00 -0.00000000000E+00 -0.45593999997E+02  0.45594000000E+02  0.51100000000E-03 0. -1.
    9900012    2    1    2    0    0  0.57518931543E+01 -0.35371405915E+02 -0.24482680983E+02  0.47787282271E+02  0.20000051187E+02 0.  0.
        -12    1    1    2    0    0 -0.57518931543E+01  0.35371405915E+02  0.24482680983E+02  0.43400717729E+02  0.00000000000E+00 0.  1.
         11    1    3    3    0    0  0.97568116436E+01 -0.17243414082E+02 -0.13051838323E+02  0.23725117207E+02  0.51100000000E-03 0. -1.
        -11    1    3    3    0    0 -0.16433882691E+01 -0.16848764242E+02 -0.12629825728E+02  0.21120939365E+02  0.51100000000E-03 0.  1.
        -12    1    3    3    0    0 -0.23615302202E+01 -0.12792275920E+01  0.11989830685E+01  0.29412256988E+01  0.00000000000E+00 0.  1.
</event>
<event>
 7    1  0.1322363E-009  0.4778727E+02  0.7816164E-02  0.1312668E+00
        -11   -1    0    0    0    0  0.00000000000E+00  0.00000000000E+00  0.45593999997E+02  0.45594000000E+02  0.51100000000E-03 0. -1.
         11   -1    0    0    0    0 -0.00000000000E+00 -0.00000000000E+00 -0.45593999997E+02  0.45594000000E+02  0.51100000000E-03 0.  1.
    9900012    2    1    2    0    0  0.18483063765E+02  0.36119706185E+02  0.15406717689E+02  0.47787265318E+02  0.19999973889E+02 0.  0.
        -12    1    1    2    0    0 -0.18483063765E+02 -0.36119706185E+02 -0.15406717689E+02  0.43400734682E+02  0.00000000000E+00 0.  1.
         11    1    3    3    0    0  0.20949533834E+01  0.39012317085E+00  0.40436233461E+01  0.45707675278E+01  0.51100000000E-03 0. -1.
        -11    1    3    3    0    0  0.10118995367E+02  0.27780941589E+02  0.14061163810E+02  0.32739748178E+02  0.51100000000E-03 0.  1.
         12    1    3    3    0    0  0.62691150150E+01  0.79486414247E+01 -0.26980694674E+01  0.10476749611E+02  0.00000000000E+00 0. -1.
</event>
<event>
 7    1  0.1322363E-009  0.4778729E+02  0.7816164E-02  0.1312668E+00
        -11   -1    0    0    0    0  0.00000000000E+00  0.00000000000E+00  0.45593999997E+02  0.45594000000E+02  0.51100000000E-03 0.  1.
         11   -1    0    0    0    0 -0.00000000000E+00 -0.00000000000E+00 -0.45593999997E+02  0.45594000000E+02  0.51100000000E-03 0. -1.
    9900012    2    1    2    0    0  0.39389070984E+02  0.39131233184E+01 -0.17799172878E+02  0.47787285694E+02  0.20000066793E+02 0.  0.
        -12    1    1    2    0    0 -0.39389070984E+02 -0.39131233184E+01  0.17799172878E+02  0.43400714306E+02  0.00000000000E+00 0.  1.
         11    1    3    3    0    0  0.11469161024E+02  0.64562076189E+01 -0.74227513937E+01  0.15110311378E+02  0.51100000000E-03 0. -1.
        -11    1    3    3    0    0  0.11340054423E+02  0.51405833173E+01 -0.21423679061E+01  0.12633771079E+02  0.51100000000E-03 0.  1.
        -12    1    3    3    0    0  0.16579855537E+02 -0.76836676178E+01 -0.82340535785E+01  0.20043203238E+02  0.00000000000E+00 0.  1.
</event>
<event>
 7    1  0.1322363E-009  0.4778727E+02  0.7816164E-02  0.1312668E+00
        -11   -1    0    0    0    0  0.00000000000E+00  0.00000000000E+00  0.45593999997E+02  0.45594000000E+02  0.51100000000E-03 0.  1.
         11   -1    0    0    0    0 -0.00000000000E+00 -0.00000000000E+00 -0.45593999997E+02  0.45594000000E+02  0.51100000000E-03 0. -1.
    9900012    2    1    2    0    0 -0.16766046039E+02  0.37213008091E+02 -0.14755178483E+02  0.47787267714E+02  0.19999984813E+02 0.  0.
        -12    1    1    2    0    0  0.16766046039E+02 -0.37213008091E+02  0.14755178483E+02  0.43400732286E+02  0.00000000000E+00 0.  1.
         11    1    3    3    0    0 -0.62477420184E+01  0.60292735147E+01  0.20249987521E+01  0.89155504401E+01  0.51100000000E-03 0. -1.
        -11    1    3    3    0    0 -0.22169250591E+01  0.74787179381E+01  0.13219648205E+01  0.79116098212E+01  0.51100000000E-03 0.  1.
         12    1    3    3    0    0 -0.83013789614E+01  0.23705016638E+02 -0.18102142055E+02  0.30960107452E+02  0.00000000000E+00 0. -1.
</event>
<event>
 7    1  0.1322363E-009  0.4778727E+02  0.7816164E-02  0.1312668E+00
        -11   -1    0    0    0    0  0.00000000000E+00  0.00000000000E+00  0.45593999997E+02  0.45594000000E+02  0.51100000000E-03 0.  1.
         11   -1    0    0    0    0 -0.00000000000E+00 -0.00000000000E+00 -0.45593999997E+02  0.45594000000E+02  0.51100000000E-03 0. -1.
    9900012    2    1    2    0    0 -0.29302428504E+02  0.11025853351E+02 -0.30056972235E+02  0.47787270303E+02  0.19999996618E+02 0.  0.
        -12    1    1    2    0    0  0.29302428504E+02 -0.11025853351E+02  0.30056972235E+02  0.43400729697E+02  0.00000000000E+00 0.  1.
         11    1    3    3    0    0 -0.14971288797E+02  0.17499318977E+01 -0.19628047234E+02  0.24747969379E+02  0.51100000000E-03 0. -1.
        -11    1    3    3    0    0  0.16571725446E+01  0.20649440373E+01 -0.29730665286E+01  0.39811229024E+01  0.51100000000E-03 0.  1.
        -12    1    3    3    0    0 -0.15988312251E+02  0.72109774158E+01 -0.74558584716E+01  0.19058178021E+02  0.00000000000E+00 0.  1.
</event>
<event>
 7    1  0.1322363E-009  0.4778727E+02  0.7816164E-02  0.1312668E+00
        -11   -1    0    0    0    0  0.00000000000E+00  0.00000000000E+00  0.45593999997E+02  0.45594000000E+02  0.51100000000E-03 0. -1.
         11   -1    0    0    0    0 -0.00000000000E+00 -0.00000000000E+00 -0.45593999997E+02  0.45594000000E+02  0.51100000000E-03 0.  1.
    9900012    2    1    2    0    0 -0.36309281806E+02  0.21838317101E+02 -0.93993220393E+01  0.47787270814E+02  0.19999998949E+02 0.  0.
        -12    1    1    2    0    0  0.36309281806E+02 -0.21838317101E+02  0.93993220393E+01  0.43400729186E+02  0.00000000000E+00 0.  1.
         11    1    3    3    0    0 -0.20382963254E+02  0.10002051325E+02 -0.21515935643E+00  0.22705781544E+02  0.51100000000E-03 0. -1.
        -11    1    3    3    0    0 -0.56546723563E+00 -0.20772334397E+01  0.49241053136E+00  0.22084203291E+01  0.51100000000E-03 0.  1.
        -12    1    3    3    0    0 -0.15360851317E+02  0.13913499216E+02 -0.96765732142E+01  0.22873068941E+02  0.00000000000E+00 0.  1.
</event>
<event>
 7    1  0.1322363E-009  0.4778729E+02  0.7816164E-02  0.1312668E+00
        -11   -1    0    0    0    0  0.00000000000E+00  0.00000000000E+00  0.45593999997E+02  0.45594000000E+02  0.51100000000E-03 0.  1.
         11   -1    0    0    0    0 -0.00000000000E+00 -0.00000000000E+00 -0.45593999997E+02  0.45594000000E+02  0.51100000000E-03 0. -1.
    9900012    2    1    2    0    0 -0.12930418862E+01  0.39856422259E+02 -0.17129375906E+02  0.47787287200E+02  0.20000073660E+02 0.  0.
        -12    1    1    2    0    0  0.12930418862E+01 -0.39856422259E+02  0.17129375906E+02  0.43400712800E+02  0.00000000000E+00 0.  1.
         11    1    3    3    0    0  0.34884369623E+01  0.39988129670E+01 -0.18643146038E+01  0.56245325840E+01  0.51100000000E-03 0. -1.
        -11    1    3    3    0    0  0.10970962861E+01  0.12878990847E+01 -0.55118721709E+01  0.57656777054E+01  0.51100000000E-03 0.  1.
         12    1    3    3    0    0 -0.58785751346E+01  0.34569710207E+02 -0.97531891315E+01  0.36397076911E+02  0.00000000000E+00 0. -1.
</event>
<event>
 7    1  0.1322363E-009  0.4778727E+02  0.7816164E-02  0.1312668E+00
        -11   -1    0    0    0    0  0.00000000000E+00  0.00000000000E+00  0.45593999997E+02  0.45594000000E+02  0.51100000000E-03 0. -1.
         11   -1    0    0    0    0 -0.00000000000E+00 -0.00000000000E+00 -0.45593999997E+02  0.45594000000E+02  0.51100000000E-03 0.  1.
    9900012    2    1    2    0    0 -0.26776572164E+02 -0.32504899295E+02  0.10491427628E+02  0.47787270182E+02  0.19999996070E+02 0.  0.
        -12    1    1    2    0    0  0.26776572164E+02  0.32504899295E+02 -0.10491427628E+02  0.43400729818E+02  0.00000000000E+00 0.  1.
         11    1    3    3    0    0 -0.31616591814E+01 -0.50634208714E+01 -0.21936136068E+01  0.63597374645E+01  0.51100000000E-03 0.  1.
        -11    1    3    3    0    0 -0.15949478107E+02 -0.12115704675E+02  0.13692076518E+02  0.24262092063E+02  0.51100000000E-03 0. -1.
         12    1    3    3    0    0 -0.76654348760E+01 -0.15325773748E+02 -0.10070352829E+01  0.17165440655E+02  0.00000000000E+00 0. -1.
</event>
<event>
 7    1  0.1322363E-009  0.4778727E+02  0.7816164E-02  0.1312668E+00
        -11   -1    0    0    0    0  0.00000000000E+00  0.00000000000E+00  0.45593999997E+02  0.45594000000E+02  0.51100000000E-03 0.  1.
         11   -1    0    0    0    0 -0.00000000000E+00 -0.00000000000E+00 -0.45593999997E+02  0.45594000000E+02  0.51100000000E-03 0. -1.
    9900012    2    1    2    0    0  0.42526592325E+02  0.86666263860E+01 -0.43564665063E-01  0.47787269988E+02  0.19999995183E+02 0.  0.
        -12    1    1    2    0    0 -0.42526592325E+02 -0.86666263860E+01  0.43564665063E-01  0.43400730012E+02  0.00000000000E+00 0.  1.
         11    1    3    3    0    0  0.37649523625E+02  0.98011602744E+01 -0.49253198732E+01  0.39214897016E+02  0.51100000000E-03 0. -1.
        -11    1    3    3    0    0  0.55441657361E+01  0.95648396724E-01  0.32680253738E+01  0.64363741680E+01  0.51100000000E-03 0.  1.
         12    1    3    3    0    0 -0.66709703573E+00 -0.12301822851E+01  0.16137298344E+01  0.21359988034E+01  0.00000000000E+00 0. -1.
</event>
<event>
 7    1  0.1322363E-009  0.4778726E+02  0.7816164E-02  0.1312668E+00
        -11   -1    0    0    0    0  0.00000000000E+00  0.00000000000E+00  0.45593999997E+02  0.45594000000E+02  0.51100000000E-03 0.  1.
         11   -1    0    0    0    0 -0.00000000000E+00 -0.00000000000E+00 -0.45593999997E+02  0.45594000000E+02  0.51100000000E-03 0. -1.
    9900012    2    1    2    0    0  0.41892395776E+02  0.39701099975E+01 -0.10624944613E+02  0.47787262158E+02  0.19999959482E+02 0.  0.
        -12    1    1    2    0    0 -0.41892395776E+02 -0.39701099975E+01  0.10624944613E+02  0.43400737842E+02  0.00000000000E+00 0.  1.
         11    1    3    3    0    0  0.10803074283E+02  0.12190824088E+01 -0.78905453420E+01  0.13433290064E+02  0.51100000000E-03 0. -1.
        -11    1    3    3    0    0  0.26608687228E+02  0.14355752412E+01  0.31598594495E+01  0.26834079531E+02  0.51100000000E-03 0.  1.
        -12    1    3    3    0    0  0.44806342645E+01  0.13154523475E+01 -0.58942587204E+01  0.75198925626E+01  0.00000000000E+00 0.  1.
</event>
<event>
 7    1  0.1322363E-009  0.4778727E+02  0.7816164E-02  0.1312668E+00
        -11   -1    0    0    0    0  0.00000000000E+00  0.00000000000E+00  0.45593999997E+02  0.45594000000E+02  0.51100000000E-03 0. -1.
         11   -1    0    0    0    0 -0.00000000000E+00 -0.00000000000E+00 -0.45593999997E+02  0.45594000000E+02  0.51100000000E-03 0.  1.
    9900012    2    1    2    0    0 -0.33021331713E+02 -0.50854867069E+01  0.27701134576E+02  0.47787269822E+02  0.19999994427E+02 0.  0.
        -12    1    1    2    0    0  0.33021331713E+02  0.50854867069E+01 -0.27701134576E+02  0.43400730178E+02  0.00000000000E+00 0.  1.
         11    1    3    3    0    0 -0.84974364847E+01  0.23090388188E+01  0.15938785803E+02  0.18209420096E+02  0.51100000000E-03 0. -1.
        -11    1    3    3    0    0 -0.44862849990E+01 -0.53688515046E+01  0.28682831779E+01  0.75616379324E+01  0.51100000000E-03 0.  1.
        -12    1    3    3    0    0 -0.20037610229E+02 -0.20256740210E+01  0.88940655955E+01  0.22016211794E+02  0.00000000000E+00 0.  1.
</event>
<event>
 7    1  0.1322363E-009  0.4778727E+02  0.7816164E-02  0.1312668E+00
        -11   -1    0    0    0    0  0.00000000000E+00  0.00000000000E+00  0.45593999997E+02  0.45594000000E+02  0.51100000000E-03 0.  1.
         11   -1    0    0    0    0 -0.00000000000E+00 -0.00000000000E+00 -0.45593999997E+02  0.45594000000E+02  0.51100000000E-03 0. -1.
    9900012    2    1    2    0    0  0.43744031240E+01  0.36252670392E+02 -0.23457021381E+02  0.47787269991E+02  0.19999995195E+02 0.  0.
        -12    1    1    2    0    0 -0.43744031240E+01 -0.36252670392E+02  0.23457021381E+02  0.43400730009E+02  0.00000000000E+00 0.  1.
         11    1    3    3    0    0  0.39761299821E+01  0.21458540986E+02 -0.15675241242E+02  0.26869904710E+02  0.51100000000E-03 0. -1.
        -11    1    3    3    0    0 -0.31640538146E+01  0.20738909834E+01 -0.66608696652E+01  0.76602509953E+01  0.51100000000E-03 0.  1.
         12    1    3    3    0    0  0.35623269565E+01  0.12720238423E+02 -0.11209104743E+01  0.13257114285E+02  0.00000000000E+00 0. -1.
</event>
<event>
 7    1  0.1322363E-009  0.4778728E+02  0.7816164E-02  0.1312668E+00
        -11   -1    0    0    0    0  0.00000000000E+00  0.00000000000E+00  0.45593999997E+02  0.45594000000E+02  0.51100000000E-03 0.  1.
         11   -1    0    0    0    0 -0.00000000000E+00 -0.00000000000E+00 -0.45593999997E+02  0.45594000000E+02  0.51100000000E-03 0. -1.
    9900012    2    1    2    0    0  0.24932969304E+01  0.41602165991E+02 -0.12110568349E+02  0.47787278687E+02  0.20000034847E+02 0.  0.
        -12    1    1    2    0    0 -0.24932969304E+01 -0.41602165991E+02  0.12110568349E+02  0.43400721313E+02  0.00000000000E+00 0.  1.
         11    1    3    3    0    0 -0.38533130191E+01  0.16882740311E+02 -0.30918727144E+01  0.17590753787E+02  0.51100000000E-03 0.  1.
        -11    1    3    3    0    0  0.60503351136E+00 -0.16715684098E+01 -0.22076839766E+00  0.17913529650E+01  0.51100000000E-03 0. -1.
         12    1    3    3    0    0  0.57415764381E+01  0.26390994089E+02 -0.87979272371E+01  0.28405171936E+02  0.00000000000E+00 0. -1.
</event>
<event>
 7    1  0.1322363E-009  0.4778727E+02  0.7816164E-02  0.1312668E+00
        -11   -1    0    0    0    0  0.00000000000E+00  0.00000000000E+00  0.45593999997E+02  0.45594000000E+02  0.51100000000E-03 0. -1.
         11   -1    0    0    0    0 -0.00000000000E+00 -0.00000000000E+00 -0.45593999997E+02  0.45594000000E+02  0.51100000000E-03 0.  1.
    9900012    2    1    2    0    0  0.68014446478E+01 -0.40941271892E+02 -0.12695512506E+02  0.47787269232E+02  0.19999991737E+02 0.  0.
        -12    1    1    2    0    0 -0.68014446478E+01  0.40941271892E+02  0.12695512506E+02  0.43400730768E+02  0.00000000000E+00 0.  1.
         11    1    3    3    0    0  0.12318579102E+01 -0.88940809564E+01  0.19881274376E+01  0.91964558901E+01  0.51100000000E-03 0. -1.
        -11    1    3    3    0    0  0.56838513723E+01 -0.14139554312E+02  0.29851268902E+00  0.15242121658E+02  0.51100000000E-03 0.  1.
        -12    1    3    3    0    0 -0.11426463473E+00 -0.17907636624E+02 -0.14982152633E+02  0.23348691684E+02  0.00000000000E+00 0.  1.
</event>
<event>
 7    1  0.1322363E-009  0.4778727E+02  0.7816164E-02  0.1312668E+00
        -11   -1    0    0    0    0  0.00000000000E+00  0.00000000000E+00  0.45593999997E+02  0.45594000000E+02  0.51100000000E-03 0.  1.
         11   -1    0    0    0    0 -0.00000000000E+00 -0.00000000000E+00 -0.45593999997E+02  0.45594000000E+02  0.51100000000E-03 0. -1.
    9900012    2    1    2    0    0 -0.10362881063E+02  0.41801589849E+01 -0.41937578838E+02  0.47787267842E+02  0.19999985401E+02 0.  0.
        -12    1    1    2    0    0  0.10362881063E+02 -0.41801589849E+01  0.41937578838E+02  0.43400732158E+02  0.00000000000E+00 0.  1.
         11    1    3    3    0    0  0.26826998548E+01  0.35596380042E+01 -0.14114264338E+02  0.14801363427E+02  0.51100000000E-03 0. -1.
        -11    1    3    3    0    0 -0.38347187099E+01 -0.22292898965E+01 -0.10907784081E+01  0.45677783247E+01  0.51100000000E-03 0.  1.
         12    1    3    3    0    0 -0.92108622074E+01  0.28498108773E+01 -0.26732536091E+02  0.28418126091E+02  0.00000000000E+00 0. -1.
</event>
<event>
 7    1  0.1322363E-009  0.4778728E+02  0.7816164E-02  0.1312668E+00
        -11   -1    0    0    0    0  0.00000000000E+00  0.00000000000E+00  0.45593999997E+02  0.45594000000E+02  0.51100000000E-03 0. -1.
         11   -1    0    0    0    0 -0.00000000000E+00 -0.00000000000E+00 -0.45593999997E+02  0.45594000000E+02  0.51100000000E-03 0.  1.
    9900012    2    1    2    0    0  0.19982809456E+02 -0.36387691711E+02  0.12658806369E+02  0.47787283871E+02  0.20000058481E+02 0.  0.
        -12    1    1    2    0    0 -0.19982809456E+02  0.36387691711E+02 -0.12658806369E+02  0.43400716129E+02  0.00000000000E+00 0.  1.
         11    1    3    3    0    0  0.14054736346E+02 -0.22788860446E+02  0.78374018821E+01  0.27897896743E+02  0.51100000000E-03 0. -1.
        -11    1    3    3    0    0  0.41654049142E+01 -0.53895125373E+01 -0.38456428435E+01  0.78221744183E+01  0.51100000000E-03 0.  1.
        -12    1    3    3    0    0  0.17626681960E+01 -0.82093187284E+01  0.86670473302E+01  0.12067212710E+02  0.00000000000E+00 0.  1.
</event>
<event>
 7    1  0.1322363E-009  0.4778727E+02  0.7816164E-02  0.1312668E+00
        -11   -1    0    0    0    0  0.00000000000E+00  0.00000000000E+00  0.45593999997E+02  0.45594000000E+02  0.51100000000E-03 0. -1.
         11   -1    0    0    0    0 -0.00000000000E+00 -0.00000000000E+00 -0.45593999997E+02  0.45594000000E+02  0.51100000000E-03 0.  1.
    9900012    2    1    2    0    0  0.17553393793E+02  0.14358812888E+02  0.37004402570E+02  0.47787274767E+02  0.20000016973E+02 0.  0.
        -12    1    1    2    0    0 -0.17553393793E+02 -0.14358812888E+02 -0.37004402570E+02  0.43400725233E+02  0.00000000000E+00 0.  1.
         11    1    3    3    0    0  0.55227280059E+01  0.45877122502E+01  0.16505017673E+02  0.17998978776E+02  0.51100000000E-03 0. -1.
        -11    1    3    3    0    0  0.13575381568E+02  0.60921207681E+01  0.84855976628E+01  0.17129223220E+02  0.51100000000E-03 0.  1.
        -12    1    3    3    0    0 -0.15447157808E+01  0.36789798694E+01  0.12013787234E+02  0.12659072771E+02  0.00000000000E+00 0.  1.
</event>
<event>
 7    1  0.1322363E-009  0.4778728E+02  0.7816164E-02  0.1312668E+00
        -11   -1    0    0    0    0  0.00000000000E+00  0.00000000000E+00  0.45593999997E+02  0.45594000000E+02  0.51100000000E-03 0.  1.
         11   -1    0    0    0    0 -0.00000000000E+00 -0.00000000000E+00 -0.45593999997E+02  0.45594000000E+02  0.51100000000E-03 0. -1.
    9900012    2    1    2    0    0  0.16955126278E+02 -0.26865530113E+02 -0.29570080320E+02  0.47787278054E+02  0.20000031957E+02 0.  0.
        -12    1    1    2    0    0 -0.16955126278E+02  0.26865530113E+02  0.29570080320E+02  0.43400721946E+02  0.00000000000E+00 0.  1.
         11    1    3    3    0    0  0.25727987576E+01 -0.46778330140E+01 -0.15850846252E+02  0.16725750875E+02  0.51100000000E-03 0. -1.
        -11    1    3    3    0    0  0.75993447945E+01 -0.66677645143E+01 -0.88548458401E+01  0.13439398053E+02  0.51100000000E-03 0.  1.
        -12    1    3    3    0    0  0.67829827256E+01 -0.15519932584E+02 -0.48643882279E+01  0.17622129125E+02  0.00000000000E+00 0.  1.
</event>
<event>
 7    1  0.1322363E-009  0.4778725E+02  0.7816164E-02  0.1312668E+00
        -11   -1    0    0    0    0  0.00000000000E+00  0.00000000000E+00  0.45593999997E+02  0.45594000000E+02  0.51100000000E-03 0.  1.
         11   -1    0    0    0    0 -0.00000000000E+00 -0.00000000000E+00 -0.45593999997E+02  0.45594000000E+02  0.51100000000E-03 0. -1.
    9900012    2    1    2    0    0  0.37571016309E+02 -0.99203723072E+01  0.19329507625E+02  0.47787252101E+02  0.19999913629E+02 0.  0.
        -12    1    1    2    0    0 -0.37571016309E+02  0.99203723072E+01 -0.19329507625E+02  0.43400747899E+02  0.00000000000E+00 0.  1.
         11    1    3    3    0    0  0.73221440566E+01 -0.86905328120E+01  0.31324301009E+01  0.11787759445E+02  0.51100000000E-03 0. -1.
        -11    1    3    3    0    0  0.14180194930E+02 -0.25822764221E+01  0.13307345495E+02  0.19617123239E+02  0.51100000000E-03 0.  1.
        -12    1    3    3    0    0  0.16068677322E+02  0.13524369269E+01  0.28897320286E+01  0.16382369417E+02  0.00000000000E+00 0.  1.
</event>
<event>
 7    1  0.1322363E-009  0.4778727E+02  0.7816164E-02  0.1312668E+00
        -11   -1    0    0    0    0  0.00000000000E+00  0.00000000000E+00  0.45593999997E+02  0.45594000000E+02  0.51100000000E-03 0.  1.
         11   -1    0    0    0    0 -0.00000000000E+00 -0.00000000000E+00 -0.45593999997E+02  0.45594000000E+02  0.51100000000E-03 0. -1.
    9900012    2    1    2    0    0  0.23171729317E+02  0.27493772163E+02 -0.24306104851E+02  0.47787270970E+02  0.19999999660E+02 0.  0.
        -12    1    1    2    0    0 -0.23171729317E+02 -0.27493772163E+02  0.24306104851E+02  0.43400729030E+02  0.00000000000E+00 0.  1.
         11    1    3    3    0    0  0.89742594312E+01  0.10445217208E+02 -0.54782561210E+01  0.14820633767E+02  0.51100000000E-03 0. -1.
        -11    1    3    3    0    0 -0.25659023423E+01  0.26756790319E+01  0.34479223659E+00  0.37231700283E+01  0.51100000000E-03 0.  1.
        -12    1    3    3    0    0  0.16763372228E+02  0.14372875924E+02 -0.19172640966E+02  0.29243467175E+02  0.00000000000E+00 0.  1.
</event>
<event>
 7    1  0.1322363E-009  0.4778727E+02  0.7816164E-02  0.1312668E+00
        -11   -1    0    0    0    0  0.00000000000E+00  0.00000000000E+00  0.45593999997E+02  0.45594000000E+02  0.51100000000E-03 0. -1.
         11   -1    0    0    0    0 -0.00000000000E+00 -0.00000000000E+00 -0.45593999997E+02  0.45594000000E+02  0.51100000000E-03 0.  1.
    9900012    2    1    2    0    0 -0.12549388008E+02  0.38476793105E+02  0.15673941675E+02  0.47787271957E+02  0.20000004162E+02 0.  0.
        -12    1    1    2    0    0  0.12549388008E+02 -0.38476793105E+02 -0.15673941675E+02  0.43400728043E+02  0.00000000000E+00 0.  1.
         11    1    3    3    0    0  0.32745957275E+01  0.15008099996E+02  0.35832220612E+01  0.15773570403E+02  0.51100000000E-03 0. -1.
        -11    1    3    3    0    0 -0.85523240409E+01  0.17414663694E+02  0.45837035326E+01  0.19935473318E+02  0.51100000000E-03 0.  1.
        -12    1    3    3    0    0 -0.72716596948E+01  0.60540294143E+01  0.75070160814E+01  0.12078228236E+02  0.00000000000E+00 0.  1.
</event>
<event>
 7    1  0.1322363E-009  0.4778727E+02  0.7816164E-02  0.1312668E+00
        -11   -1    0    0    0    0  0.00000000000E+00  0.00000000000E+00  0.45593999997E+02  0.45594000000E+02  0.51100000000E-03 0.  1.
         11   -1    0    0    0    0 -0.00000000000E+00 -0.00000000000E+00 -0.45593999997E+02  0.45594000000E+02  0.51100000000E-03 0. -1.
    9900012    2    1    2    0    0  0.21184707531E+00 -0.24982279951E+02 -0.35488934847E+02  0.47787266282E+02  0.19999978285E+02 0.  0.
        -12    1    1    2    0    0 -0.21184707531E+00  0.24982279951E+02  0.35488934847E+02  0.43400733718E+02  0.00000000000E+00 0.  1.
         11    1    3    3    0    0  0.13463402212E+01 -0.23789034100E+02 -0.32140435963E+02  0.40009228930E+02  0.51100000000E-03 0. -1.
        -11    1    3    3    0    0  0.14258480861E+01 -0.26574822253E+01  0.36266935276E+00  0.30375621579E+01  0.51100000000E-03 0.  1.
        -12    1    3    3    0    0 -0.25603412320E+01  0.14642363745E+01 -0.37111682367E+01  0.47404751941E+01  0.00000000000E+00 0.  1.
</event>
<event>
 7    1  0.1322363E-009  0.4778725E+02  0.7816164E-02  0.1312668E+00
        -11   -1    0    0    0    0  0.00000000000E+00  0.00000000000E+00  0.45593999997E+02  0.45594000000E+02  0.51100000000E-03 0.  1.
         11   -1    0    0    0    0 -0.00000000000E+00 -0.00000000000E+00 -0.45593999997E+02  0.45594000000E+02  0.51100000000E-03 0. -1.
    9900012    2    1    2    0    0 -0.18387334604E+02  0.12908403325E+02 -0.37133594872E+02  0.47787253252E+02  0.19999918875E+02 0.  0.
        -12    1    1    2    0    0  0.18387334604E+02 -0.12908403325E+02  0.37133594872E+02  0.43400746748E+02  0.00000000000E+00 0.  1.
         11    1    3    3    0    0 -0.65751047705E+01  0.56480721991E+01 -0.20846189065E+02  0.22576455016E+02  0.51100000000E-03 0. -1.
        -11    1    3    3    0    0 -0.17087117436E+01 -0.30990065021E+01 -0.15914170563E+00  0.35424375035E+01  0.51100000000E-03 0.  1.
         12    1    3    3    0    0 -0.10103518090E+02  0.10359337628E+02 -0.16128264101E+02  0.21668360732E+02  0.00000000000E+00 0. -1.
</event>
<event>
 7    1  0.1322363E-009  0.4778727E+02  0.7816164E-02  0.1312668E+00
        -11   -1    0    0    0    0  0.00000000000E+00  0.00000000000E+00  0.45593999997E+02  0.45594000000E+02  0.51100000000E-03 0.  1.
         11   -1    0    0    0    0 -0.00000000000E+00 -0.00000000000E+00 -0.45593999997E+02  0.45594000000E+02  0.51100000000E-03 0. -1.
    9900012    2    1    2    0    0 -0.23715978368E+02  0.34493788777E+02 -0.11460970445E+02  0.47787274918E+02  0.20000017661E+02 0.  0.
        -12    1    1    2    0    0  0.23715978368E+02 -0.34493788777E+02  0.11460970445E+02  0.43400725082E+02  0.00000000000E+00 0.  1.
         11    1    3    3    0    0  0.10218085735E+01  0.62104991510E+01 -0.52406557266E+01  0.81901688122E+01  0.51100000000E-03 0.  1.
        -11    1    3    3    0    0 -0.92516046371E+01  0.17160162662E+02  0.14510421370E+00  0.19495754062E+02  0.51100000000E-03 0. -1.
        -12    1    3    3    0    0 -0.15486182305E+02  0.11123126964E+02 -0.63654189318E+01  0.20101352044E+02  0.00000000000E+00 0.  1.
</event>
<event>
 7    1  0.1322363E-009  0.4778724E+02  0.7816164E-02  0.1312668E+00
        -11   -1    0    0    0    0  0.00000000000E+00  0.00000000000E+00  0.45593999997E+02  0.45594000000E+02  0.51100000000E-03 0.  1.
         11   -1    0    0    0    0 -0.00000000000E+00 -0.00000000000E+00 -0.45593999997E+02  0.45594000000E+02  0.51100000000E-03 0. -1.
    9900012    2    1    2    0    0 -0.21355852565E+02  0.22959024736E+02 -0.30007284702E+02  0.47787235136E+02  0.19999836277E+02 0.  0.
        -12    1    1    2    0    0  0.21355852565E+02 -0.22959024736E+02  0.30007284702E+02  0.43400764864E+02  0.00000000000E+00 0.  1.
         11    1    3    3    0    0 -0.29246946089E+01  0.13031002764E+02 -0.98084534534E+01  0.16570052233E+02  0.51100000000E-03 0. -1.
        -11    1    3    3    0    0 -0.24265452641E+01 -0.25362789700E+01 -0.27355312870E+01  0.44501645606E+01  0.51100000000E-03 0.  1.
         12    1    3    3    0    0 -0.16004612692E+02  0.12464300943E+02 -0.17463299961E+02  0.26767018342E+02  0.00000000000E+00 0. -1.
</event>
<event>
 7    1  0.1322363E-009  0.4778727E+02  0.7816164E-02  0.1312668E+00
        -11   -1    0    0    0    0  0.00000000000E+00  0.00000000000E+00  0.45593999997E+02  0.45594000000E+02  0.51100000000E-03 0.  1.
         11   -1    0    0    0    0 -0.00000000000E+00 -0.00000000000E+00 -0.45593999997E+02  0.45594000000E+02  0.51100000000E-03 0. -1.
    9900012    2    1    2    0    0 -0.21505959867E+02  0.21395259525E+02 -0.31038041553E+02  0.47787268861E+02  0.19999990044E+02 0.  0.
        -12    1    1    2    0    0  0.21505959867E+02 -0.21395259525E+02  0.31038041553E+02  0.43400731139E+02  0.00000000000E+00 0.  1.
         11    1    3    3    0    0 -0.16374814099E+02  0.95922166144E+01 -0.19777190699E+02  0.27409531710E+02  0.51100000000E-03 0.  1.
        -11    1    3    3    0    0 -0.35845173766E+01  0.12288454971E+02 -0.12828634255E+02  0.18122603221E+02  0.51100000000E-03 0. -1.
        -12    1    3    3    0    0 -0.15466283922E+01 -0.48541205982E+00  0.15677834009E+01  0.22551339303E+01  0.00000000000E+00 0.  1.
</event>
<event>
 7    1  0.1322363E-009  0.4778727E+02  0.7816164E-02  0.1312668E+00
        -11   -1    0    0    0    0  0.00000000000E+00  0.00000000000E+00  0.45593999997E+02  0.45594000000E+02  0.51100000000E-03 0.  1.
         11   -1    0    0    0    0 -0.00000000000E+00 -0.00000000000E+00 -0.45593999997E+02  0.45594000000E+02  0.51100000000E-03 0. -1.
    9900012    2    1    2    0    0 -0.11977993630E+02  0.10946568285E+02 -0.40253243041E+02  0.47787271158E+02  0.20000000520E+02 0.  0.
        -12    1    1    2    0    0  0.11977993630E+02 -0.10946568285E+02  0.40253243041E+02  0.43400728842E+02  0.00000000000E+00 0.  1.
         11    1    3    3    0    0 -0.96498471644E+01  0.66542109549E+01 -0.22650210736E+02  0.25503531528E+02  0.51100000000E-03 0. -1.
        -11    1    3    3    0    0 -0.59320088531E+01  0.69829447761E+01 -0.11556420514E+02  0.14747918570E+02  0.51100000000E-03 0.  1.
        -12    1    3    3    0    0  0.36038623875E+01 -0.26905874458E+01 -0.60466117907E+01  0.75358210607E+01  0.00000000000E+00 0.  1.
</event>
<event>
 7    1  0.1322363E-009  0.4778726E+02  0.7816164E-02  0.1312668E+00
        -11   -1    0    0    0    0  0.00000000000E+00  0.00000000000E+00  0.45593999997E+02  0.45594000000E+02  0.51100000000E-03 0.  1.
         11   -1    0    0    0    0 -0.00000000000E+00 -0.00000000000E+00 -0.45593999997E+02  0.45594000000E+02  0.51100000000E-03 0. -1.
    9900012    2    1    2    0    0 -0.38662778909E+01  0.33528337954E+02 -0.27286023090E+02  0.47787255689E+02  0.19999929987E+02 0.  0.
        -12    1    1    2    0    0  0.38662778909E+01 -0.33528337954E+02  0.27286023090E+02  0.43400744311E+02  0.00000000000E+00 0.  1.
         11    1    3    3    0    0  0.68752079729E+01  0.10684104286E+02 -0.13298858258E+02  0.18392340806E+02  0.51100000000E-03 0. -1.
        -11    1    3    3    0    0 -0.27631597286E+01  0.30448123325E+01 -0.49346545850E+00  0.41411885064E+01  0.51100000000E-03 0.  1.
         12    1    3    3    0    0 -0.79783261352E+01  0.19799421335E+02 -0.13493699373E+02  0.25253726377E+02  0.00000000000E+00 0. -1.
</event>
<event>
 7    1  0.1322363E-009  0.4778727E+02  0.7816164E-02  0.1312668E+00
        -11   -1    0    0    0    0  0.00000000000E+00  0.00000000000E+00  0.45593999997E+02  0.45594000000E+02  0.51100000000E-03 0.  1.
         11   -1    0    0    0    0 -0.00000000000E+00 -0.00000000000E+00 -0.45593999997E+02  0.45594000000E+02  0.51100000000E-03 0. -1.
    9900012    2    1    2    0    0 -0.14486710722E+02 -0.38075796364E+02 -0.14966375107E+02  0.47787269129E+02  0.19999991267E+02 0.  0.
        -12    1    1    2    0    0  0.14486710722E+02  0.38075796364E+02  0.14966375107E+02  0.43400730871E+02  0.00000000000E+00 0.  1.
         11    1    3    3    0    0 -0.48269634227E+01 -0.25595114800E+02 -0.10563293349E+02  0.28106807790E+02  0.51100000000E-03 0. -1.
        -11    1    3    3    0    0 -0.37823800950E+01 -0.12588180370E+02 -0.18580614519E+01  0.13274828693E+02  0.51100000000E-03 0.  1.
        -12    1    3    3    0    0 -0.58773672039E+01  0.10749880557E+00 -0.25450203055E+01  0.64056326462E+01  0.00000000000E+00 0.  1.
</event>
<event>
 7    1  0.1322363E-009  0.4778727E+02  0.7816164E-02  0.1312668E+00
        -11   -1    0    0    0    0  0.00000000000E+00  0.00000000000E+00  0.45593999997E+02  0.45594000000E+02  0.51100000000E-03 0.  1.
         11   -1    0    0    0    0 -0.00000000000E+00 -0.00000000000E+00 -0.45593999997E+02  0.45594000000E+02  0.51100000000E-03 0. -1.
    9900012    2    1    2    0    0  0.21963031637E+02  0.23605716595E+02 -0.29051997137E+02  0.47787272445E+02  0.20000006385E+02 0.  0.
        -12    1    1    2    0    0 -0.21963031637E+02 -0.23605716595E+02  0.29051997137E+02  0.43400727555E+02  0.00000000000E+00 0.  1.
         11    1    3    3    0    0  0.13363411101E+02  0.22130787327E+02 -0.18738988212E+02  0.31929644274E+02  0.51100000000E-03 0. -1.
        -11    1    3    3    0    0  0.46777047837E+01  0.17107576358E+01 -0.10805221775E+02  0.11897917112E+02  0.51100000000E-03 0.  1.
        -12    1    3    3    0    0  0.39219157519E+01 -0.23582836732E+00  0.49221285018E+00  0.39597110594E+01  0.00000000000E+00 0.  1.
</event>
<event>
 7    1  0.1322363E-009  0.4778728E+02  0.7816164E-02  0.1312668E+00
        -11   -1    0    0    0    0  0.00000000000E+00  0.00000000000E+00  0.45593999997E+02  0.45594000000E+02  0.51100000000E-03 0. -1.
         11   -1    0    0    0    0 -0.00000000000E+00 -0.00000000000E+00 -0.45593999997E+02  0.45594000000E+02  0.51100000000E-03 0.  1.
    9900012    2    1    2    0    0  0.39976547925E+02  0.55733394497E+01  0.15951042888E+02  0.47787282657E+02  0.20000052948E+02 0.  0.
        -12    1    1    2    0    0 -0.39976547925E+02 -0.55733394497E+01 -0.15951042888E+02  0.43400717343E+02  0.00000000000E+00 0.  1.
         11    1    3    3    0    0  0.30454843004E+02  0.82182125500E+01  0.62652092047E+01  0.32160368881E+02  0.51100000000E-03 0. -1.
        -11    1    3    3    0    0  0.10698158439E+02 -0.28345130750E+01  0.88631660384E+01  0.14178884683E+02  0.51100000000E-03 0.  1.
        -12    1    3    3    0    0 -0.11764535185E+01  0.18963997466E+00  0.82266764460E+00  0.14480290932E+01  0.00000000000E+00 0.  1.
</event>
<event>
 7    1  0.1322363E-009  0.4778727E+02  0.7816164E-02  0.1312668E+00
        -11   -1    0    0    0    0  0.00000000000E+00  0.00000000000E+00  0.45593999997E+02  0.45594000000E+02  0.51100000000E-03 0.  1.
         11   -1    0    0    0    0 -0.00000000000E+00 -0.00000000000E+00 -0.45593999997E+02  0.45594000000E+02  0.51100000000E-03 0. -1.
    9900012    2    1    2    0    0  0.82710672808E+01  0.42256038920E+02  0.54443009211E+01  0.47787265079E+02  0.19999972800E+02 0.  0.
        -12    1    1    2    0    0 -0.82710672808E+01 -0.42256038920E+02 -0.54443009211E+01  0.43400734921E+02  0.00000000000E+00 0.  1.
         11    1    3    3    0    0  0.17617560041E+01  0.19735264125E+02  0.74489516439E+01  0.21167695084E+02  0.51100000000E-03 0. -1.
        -11    1    3    3    0    0  0.23877493857E+00  0.17227859799E+02 -0.49086416755E+01  0.17915103407E+02  0.51100000000E-03 0.  1.
         12    1    3    3    0    0  0.62705363382E+01  0.52929149960E+01  0.29039909527E+01  0.87044665877E+01  0.00000000000E+00 0. -1.
</event>
<event>
 7    1  0.1322363E-009  0.4778727E+02  0.7816164E-02  0.1312668E+00
        -11   -1    0    0    0    0  0.00000000000E+00  0.00000000000E+00  0.45593999997E+02  0.45594000000E+02  0.51100000000E-03 0.  1.
         11   -1    0    0    0    0 -0.00000000000E+00 -0.00000000000E+00 -0.45593999997E+02  0.45594000000E+02  0.51100000000E-03 0. -1.
    9900012    2    1    2    0    0 -0.26127654484E+02  0.22876817564E+02 -0.26031132028E+02  0.47787274829E+02  0.20000017256E+02 0.  0.
        -12    1    1    2    0    0  0.26127654484E+02 -0.22876817564E+02  0.26031132028E+02  0.43400725171E+02  0.00000000000E+00 0.  1.
         11    1    3    3    0    0 -0.15207055434E+01  0.41588059361E+01 -0.91856965215E+00  0.45223868289E+01  0.51100000000E-03 0. -1.
        -11    1    3    3    0    0  0.13666758682E+01  0.59208769018E+01 -0.61952623422E+01  0.86778950192E+01  0.51100000000E-03 0.  1.
         12    1    3    3    0    0 -0.25973624809E+02  0.12797134726E+02 -0.18917300034E+02  0.34586992981E+02  0.00000000000E+00 0. -1.
</event>
<event>
 7    1  0.1322363E-009  0.4778727E+02  0.7816164E-02  0.1312668E+00
        -11   -1    0    0    0    0  0.00000000000E+00  0.00000000000E+00  0.45593999997E+02  0.45594000000E+02  0.51100000000E-03 0.  1.
         11   -1    0    0    0    0 -0.00000000000E+00 -0.00000000000E+00 -0.45593999997E+02  0.45594000000E+02  0.51100000000E-03 0. -1.
    9900012    2    1    2    0    0  0.16235767846E+02 -0.39709043063E+02  0.65738063359E+01  0.47787272031E+02  0.20000004497E+02 0.  0.
        -12    1    1    2    0    0 -0.16235767846E+02  0.39709043063E+02 -0.65738063359E+01  0.43400727969E+02  0.00000000000E+00 0.  1.
         11    1    3    3    0    0  0.75159748833E+01 -0.21505698451E+02 -0.38541917868E+01  0.23104972169E+02  0.51100000000E-03 0. -1.
        -11    1    3    3    0    0  0.54426989892E+01 -0.19570727361E+01  0.30817489422E+01  0.65536465259E+01  0.51100000000E-03 0.  1.
        -12    1    3    3    0    0  0.32770939730E+01 -0.16246271876E+02  0.73462491804E+01  0.18128653336E+02  0.00000000000E+00 0.  1.
</event>
<event>
 7    1  0.1322363E-009  0.4778726E+02  0.7816164E-02  0.1312668E+00
        -11   -1    0    0    0    0  0.00000000000E+00  0.00000000000E+00  0.45593999997E+02  0.45594000000E+02  0.51100000000E-03 0. -1.
         11   -1    0    0    0    0 -0.00000000000E+00 -0.00000000000E+00 -0.45593999997E+02  0.45594000000E+02  0.51100000000E-03 0.  1.
    9900012    2    1    2    0    0  0.42116938078E+02 -0.64280919338E+01 -0.82744958312E+01  0.47787261294E+02  0.19999955544E+02 0.  0.
        -12    1    1    2    0    0 -0.42116938078E+02  0.64280919338E+01  0.82744958312E+01  0.43400738706E+02  0.00000000000E+00 0.  1.
         11    1    3    3    0    0  0.22269985568E+02 -0.25061716387E+01  0.26345152154E+01  0.22564880327E+02  0.51100000000E-03 0. -1.
        -11    1    3    3    0    0  0.13254193036E+02 -0.91995493555E+00 -0.15334481002E+01  0.13374281792E+02  0.51100000000E-03 0.  1.
        -12    1    3    3    0    0  0.65927594738E+01 -0.30019653595E+01 -0.93755629465E+01  0.11848099175E+02  0.00000000000E+00 0.  1.
</event>
<event>
 7    1  0.1322363E-009  0.4778727E+02  0.7816164E-02  0.1312668E+00
        -11   -1    0    0    0    0  0.00000000000E+00  0.00000000000E+00  0.45593999997E+02  0.45594000000E+02  0.51100000000E-03 0. -1.
         11   -1    0    0    0    0 -0.00000000000E+00 -0.00000000000E+00 -0.45593999997E+02  0.45594000000E+02  0.51100000000E-03 0.  1.
    9900012    2    1    2    0    0 -0.25975917343E+02 -0.10022426218E+02  0.33293031077E+02  0.47787271579E+02  0.20000002439E+02 0.  0.
        -12    1    1    2    0    0  0.25975917343E+02  0.10022426218E+02 -0.33293031077E+02  0.43400728421E+02  0.00000000000E+00 0.  1.
         11    1    3    3    0    0 -0.49380213853E+01  0.23876143182E+01  0.37018085248E+01  0.66172610610E+01  0.51100000000E-03 0. -1.
        -11    1    3    3    0    0 -0.29849787561E+01  0.32432808709E+01  0.70912795560E+01  0.83495637601E+01  0.51100000000E-03 0.  1.
         12    1    3    3    0    0 -0.18052917202E+02 -0.15653321407E+02  0.22499942997E+02  0.32820446758E+02  0.00000000000E+00 0. -1.
</event>
<event>
 7    1  0.1322363E-009  0.4778727E+02  0.7816164E-02  0.1312668E+00
        -11   -1    0    0    0    0  0.00000000000E+00  0.00000000000E+00  0.45593999997E+02  0.45594000000E+02  0.51100000000E-03 0.  1.
         11   -1    0    0    0    0 -0.00000000000E+00 -0.00000000000E+00 -0.45593999997E+02  0.45594000000E+02  0.51100000000E-03 0. -1.
    9900012    2    1    2    0    0 -0.19611589424E+02 -0.30134433429E+02 -0.24308938342E+02  0.47787274187E+02  0.20000014329E+02 0.  0.
        -12    1    1    2    0    0  0.19611589424E+02  0.30134433429E+02  0.24308938342E+02  0.43400725813E+02  0.00000000000E+00 0.  1.
         11    1    3    3    0    0 -0.10682547344E+02 -0.78706277514E+01 -0.57442811414E+01  0.14458919913E+02  0.51100000000E-03 0. -1.
        -11    1    3    3    0    0 -0.88877773893E+00 -0.13951795434E+02 -0.36372595149E+01  0.14445489910E+02  0.51100000000E-03 0.  1.
         12    1    3    3    0    0 -0.80402643407E+01 -0.83120102435E+01 -0.14927397685E+02  0.18882864365E+02  0.00000000000E+00 0. -1.
</event>
<event>
 7    1  0.1322363E-009  0.4778729E+02  0.7816164E-02  0.1312668E+00
        -11   -1    0    0    0    0  0.00000000000E+00  0.00000000000E+00  0.45593999997E+02  0.45594000000E+02  0.51100000000E-03 0.  1.
         11   -1    0    0    0    0 -0.00000000000E+00 -0.00000000000E+00 -0.45593999997E+02  0.45594000000E+02  0.51100000000E-03 0. -1.
    9900012    2    1    2    0    0 -0.16868309704E+02  0.39400679261E+02 -0.68314200055E+01  0.47787289202E+02  0.20000082789E+02 0.  0.
        -12    1    1    2    0    0  0.16868309704E+02 -0.39400679261E+02  0.68314200055E+01  0.43400710798E+02  0.00000000000E+00 0.  1.
         11    1    3    3    0    0 -0.16272243282E+02  0.34269604795E+02 -0.76675219102E+01  0.38703780264E+02  0.51100000000E-03 0. -1.
        -11    1    3    3    0    0 -0.27391865185E+01  0.18710631080E+00 -0.15914365083E+01  0.31734558411E+01  0.51100000000E-03 0.  1.
        -12    1    3    3    0    0  0.21431200966E+01  0.49439681547E+01  0.24275384130E+01  0.59100530970E+01  0.00000000000E+00 0.  1.
</event>
<event>
 7    1  0.1322363E-009  0.4778727E+02  0.7816164E-02  0.1312668E+00
        -11   -1    0    0    0    0  0.00000000000E+00  0.00000000000E+00  0.45593999997E+02  0.45594000000E+02  0.51100000000E-03 0. -1.
         11   -1    0    0    0    0 -0.00000000000E+00 -0.00000000000E+00 -0.45593999997E+02  0.45594000000E+02  0.51100000000E-03 0.  1.
    9900012    2    1    2    0    0  0.87960790000E+01 -0.49495126277E+01  0.42210835989E+02  0.47787270099E+02  0.19999995689E+02 0.  0.
        -12    1    1    2    0    0 -0.87960790000E+01  0.49495126277E+01 -0.42210835989E+02  0.43400729901E+02  0.00000000000E+00 0.  1.
         11    1    3    3    0    0  0.54616714958E+01 -0.10843984264E+01  0.35902315136E+02  0.36331556639E+02  0.51100000000E-03 0. -1.
        -11    1    3    3    0    0 -0.23875539346E+01  0.36081851115E+00  0.11881610473E+01  0.26911578780E+01  0.51100000000E-03 0.  1.
        -12    1    3    3    0    0  0.57219614387E+01 -0.42259327125E+01  0.51203598064E+01  0.87645555817E+01  0.00000000000E+00 0.  1.
</event>
<event>
 7    1  0.1322363E-009  0.4778727E+02  0.7816164E-02  0.1312668E+00
        -11   -1    0    0    0    0  0.00000000000E+00  0.00000000000E+00  0.45593999997E+02  0.45594000000E+02  0.51100000000E-03 0.  1.
         11   -1    0    0    0    0 -0.00000000000E+00 -0.00000000000E+00 -0.45593999997E+02  0.45594000000E+02  0.51100000000E-03 0. -1.
    9900012    2    1    2    0    0  0.23345758446E+02  0.94824276015E+01 -0.35336700020E+02  0.47787271447E+02  0.20000001835E+02 0.  0.
        -12    1    1    2    0    0 -0.23345758446E+02 -0.94824276015E+01  0.35336700020E+02  0.43400728553E+02  0.00000000000E+00 0.  1.
         11    1    3    3    0    0 -0.16073858268E+01  0.15859262051E+00 -0.13949349761E+00  0.16212031065E+01  0.51100000000E-03 0.  1.
        -11    1    3    3    0    0  0.19218382135E+02  0.92654853657E+01 -0.34252385869E+02  0.40353703286E+02  0.51100000000E-03 0. -1.
         12    1    3    3    0    0  0.57347621375E+01  0.58349615221E-01 -0.94482065362E+00  0.58123650539E+01  0.00000000000E+00 0. -1.
</event>
<event>
 7    1  0.1322363E-009  0.4778726E+02  0.7816164E-02  0.1312668E+00
        -11   -1    0    0    0    0  0.00000000000E+00  0.00000000000E+00  0.45593999997E+02  0.45594000000E+02  0.51100000000E-03 0.  1.
         11   -1    0    0    0    0 -0.00000000000E+00 -0.00000000000E+00 -0.45593999997E+02  0.45594000000E+02  0.51100000000E-03 0. -1.
    9900012    2    1    2    0    0  0.18099262334E+02 -0.38534856906E+02 -0.84324040513E+01  0.47787263463E+02  0.19999965435E+02 0.  0.
        -12    1    1    2    0    0 -0.18099262334E+02  0.38534856906E+02  0.84324040513E+01  0.43400736537E+02  0.00000000000E+00 0.  1.
         11    1    3    3    0    0  0.25715152372E+01 -0.19545344675E+01 -0.33406485433E+01  0.46468084263E+01  0.51100000000E-03 0. -1.
        -11    1    3    3    0    0  0.36700985715E+01 -0.44475606186E+01 -0.67151447689E+01  0.88511913610E+01  0.51100000000E-03 0.  1.
         12    1    3    3    0    0  0.11857648526E+02 -0.32132761820E+02  0.16233892609E+01  0.34289263676E+02  0.00000000000E+00 0. -1.
</event>
<event>
 7    1  0.1322363E-009  0.4778727E+02  0.7816164E-02  0.1312668E+00
        -11   -1    0    0    0    0  0.00000000000E+00  0.00000000000E+00  0.45593999997E+02  0.45594000000E+02  0.51100000000E-03 0. -1.
         11   -1    0    0    0    0 -0.00000000000E+00 -0.00000000000E+00 -0.45593999997E+02  0.45594000000E+02  0.51100000000E-03 0.  1.
    9900012    2    1    2    0    0 -0.14151200209E+02 -0.36760869110E+02 -0.18221024457E+02  0.47787266166E+02  0.19999977758E+02 0.  0.
        -12    1    1    2    0    0  0.14151200209E+02  0.36760869110E+02  0.18221024457E+02  0.43400733834E+02  0.00000000000E+00 0.  1.
         11    1    3    3    0    0 -0.50114245745E+01 -0.12271207587E+02 -0.12744613548E+02  0.18388096330E+02  0.51100000000E-03 0. -1.
        -11    1    3    3    0    0  0.27596219748E+01 -0.60904866520E+01  0.44529602464E+00  0.67013304584E+01  0.51100000000E-03 0.  1.
         12    1    3    3    0    0 -0.11899397609E+02 -0.18399174871E+02 -0.59217069333E+01  0.22697839377E+02  0.00000000000E+00 0. -1.
</event>
<event>
 7    1  0.1322363E-009  0.4778727E+02  0.7816164E-02  0.1312668E+00
        -11   -1    0    0    0    0  0.00000000000E+00  0.00000000000E+00  0.45593999997E+02  0.45594000000E+02  0.51100000000E-03 0.  1.
         11   -1    0    0    0    0 -0.00000000000E+00 -0.00000000000E+00 -0.45593999997E+02  0.45594000000E+02  0.51100000000E-03 0. -1.
    9900012    2    1    2    0    0  0.10037322753E+02  0.39375470165E+02 -0.15246239471E+02  0.47787270550E+02  0.19999997745E+02 0.  0.
        -12    1    1    2    0    0 -0.10037322753E+02 -0.39375470165E+02  0.15246239471E+02  0.43400729450E+02  0.00000000000E+00 0.  1.
         11    1    3    3    0    0 -0.25266238611E+01  0.21782951860E+02 -0.20758134737E+01  0.22027024804E+02  0.51100000000E-03 0. -1.
        -11    1    3    3    0    0  0.26960879531E+01  0.12159225567E+01 -0.24465927213E+01  0.38383817059E+01  0.51100000000E-03 0.  1.
         12    1    3    3    0    0  0.98678586605E+01  0.16376595749E+02 -0.10723833276E+02  0.21921864040E+02  0.00000000000E+00 0. -1.
</event>
<event>
 7    1  0.1322363E-009  0.4778727E+02  0.7816164E-02  0.1312668E+00
        -11   -1    0    0    0    0  0.00000000000E+00  0.00000000000E+00  0.45593999997E+02  0.45594000000E+02  0.51100000000E-03 0.  1.
         11   -1    0    0    0    0 -0.00000000000E+00 -0.00000000000E+00 -0.45593999997E+02  0.45594000000E+02  0.51100000000E-03 0. -1.
    9900012    2    1    2    0    0 -0.98392049071E+01 -0.23214740193E+02 -0.35325472236E+02  0.47787273000E+02  0.20000008915E+02 0.  0.
        -12    1    1    2    0    0  0.98392049071E+01  0.23214740193E+02  0.35325472236E+02  0.43400727000E+02  0.00000000000E+00 0.  1.
         11    1    3    3    0    0 -0.70444568311E+01 -0.10357666760E+02 -0.90495876243E+01  0.15453176670E+02  0.51100000000E-03 0. -1.
        -11    1    3    3    0    0 -0.78587011048E+01 -0.94178397054E+01 -0.20659966713E+02  0.24026841503E+02  0.51100000000E-03 0.  1.
        -12    1    3    3    0    0  0.50639530288E+01 -0.34392337279E+01 -0.56159178990E+01  0.83072548271E+01  0.00000000000E+00 0.  1.
</event>
<event>
 7    1  0.1322363E-009  0.4778727E+02  0.7816164E-02  0.1312668E+00
        -11   -1    0    0    0    0  0.00000000000E+00  0.00000000000E+00  0.45593999997E+02  0.45594000000E+02  0.51100000000E-03 0.  1.
         11   -1    0    0    0    0 -0.00000000000E+00 -0.00000000000E+00 -0.45593999997E+02  0.45594000000E+02  0.51100000000E-03 0. -1.
    9900012    2    1    2    0    0  0.23342516499E+02  0.36579113582E+02  0.84779936786E+00  0.47787269699E+02  0.19999993865E+02 0.  0.
        -12    1    1    2    0    0 -0.23342516499E+02 -0.36579113582E+02 -0.84779936786E+00  0.43400730301E+02  0.00000000000E+00 0.  1.
         11    1    3    3    0    0  0.23379820740E+02  0.32138574349E+02  0.14605134521E+01  0.39769801091E+02  0.51100000000E-03 0. -1.
        -11    1    3    3    0    0  0.21703483336E+01  0.12386467311E+01 -0.26370290357E+01  0.36329850000E+01  0.51100000000E-03 0.  1.
         12    1    3    3    0    0 -0.22076525750E+01  0.32018925011E+01  0.20243149515E+01  0.43844836074E+01  0.00000000000E+00 0. -1.
</event>
<event>
 7    1  0.1322363E-009  0.4778727E+02  0.7816164E-02  0.1312668E+00
        -11   -1    0    0    0    0  0.00000000000E+00  0.00000000000E+00  0.45593999997E+02  0.45594000000E+02  0.51100000000E-03 0.  1.
         11   -1    0    0    0    0 -0.00000000000E+00 -0.00000000000E+00 -0.45593999997E+02  0.45594000000E+02  0.51100000000E-03 0. -1.
    9900012    2    1    2    0    0  0.26778707214E+02 -0.29450699143E+00 -0.34153144555E+02  0.47787272155E+02  0.20000005064E+02 0.  0.
        -12    1    1    2    0    0 -0.26778707214E+02  0.29450699143E+00  0.34153144555E+02  0.43400727845E+02  0.00000000000E+00 0.  1.
         11    1    3    3    0    0  0.15227201982E+02 -0.56762043096E+01 -0.14970147905E+02  0.22095074205E+02  0.51100000000E-03 0. -1.
        -11    1    3    3    0    0  0.18317638505E+01  0.14040508861E+01  0.13179701151E+01  0.26577741025E+01  0.51100000000E-03 0.  1.
         12    1    3    3    0    0  0.97197413821E+01  0.39776464320E+01 -0.20500966766E+02  0.23034423848E+02  0.00000000000E+00 0. -1.
</event>
<event>
 7    1  0.1322363E-009  0.4778727E+02  0.7816164E-02  0.1312668E+00
        -11   -1    0    0    0    0  0.00000000000E+00  0.00000000000E+00  0.45593999997E+02  0.45594000000E+02  0.51100000000E-03 0.  1.
         11   -1    0    0    0    0 -0.00000000000E+00 -0.00000000000E+00 -0.45593999997E+02  0.45594000000E+02  0.51100000000E-03 0. -1.
    9900012    2    1    2    0    0 -0.20431505874E+02 -0.30480720789E+02 -0.23175465582E+02  0.47787274464E+02  0.20000015589E+02 0.  0.
        -12    1    1    2    0    0  0.20431505874E+02  0.30480720789E+02  0.23175465582E+02  0.43400725536E+02  0.00000000000E+00 0.  1.
         11    1    3    3    0    0 -0.87333020567E+01 -0.17454488735E+00 -0.36052408116E+01  0.94498038235E+01  0.51100000000E-03 0.  1.
        -11    1    3    3    0    0 -0.96447572494E+01 -0.19701500891E+02 -0.15189490097E+02  0.26681287252E+02  0.51100000000E-03 0. -1.
        -12    1    3    3    0    0 -0.20534465683E+01 -0.10604675011E+02 -0.43807346736E+01  0.11656183388E+02  0.00000000000E+00 0.  1.
</event>
<event>
 7    1  0.1322363E-009  0.4778727E+02  0.7816164E-02  0.1312668E+00
        -11   -1    0    0    0    0  0.00000000000E+00  0.00000000000E+00  0.45593999997E+02  0.45594000000E+02  0.51100000000E-03 0.  1.
         11   -1    0    0    0    0 -0.00000000000E+00 -0.00000000000E+00 -0.45593999997E+02  0.45594000000E+02  0.51100000000E-03 0. -1.
    9900012    2    1    2    0    0  0.24088894699E+02 -0.35921689083E+02 -0.36028736973E+01  0.47787270821E+02  0.19999998981E+02 0.  0.
        -12    1    1    2    0    0 -0.24088894699E+02  0.35921689083E+02  0.36028736973E+01  0.43400729179E+02  0.00000000000E+00 0.  1.
         11    1    3    3    0    0  0.78079890018E+01 -0.13913425044E+02 -0.46576633656E+01  0.16620526977E+02  0.51100000000E-03 0. -1.
        -11    1    3    3    0    0  0.39296384097E+01 -0.44311667857E+00 -0.41965500084E+01  0.57662329693E+01  0.51100000000E-03 0.  1.
        -12    1    3    3    0    0  0.12351267287E+02 -0.21565147361E+02  0.52513396767E+01  0.25400510875E+02  0.00000000000E+00 0.  1.
</event>
<event>
 7    1  0.1322363E-009  0.4778727E+02  0.7816164E-02  0.1312668E+00
        -11   -1    0    0    0    0  0.00000000000E+00  0.00000000000E+00  0.45593999997E+02  0.45594000000E+02  0.51100000000E-03 0. -1.
         11   -1    0    0    0    0 -0.00000000000E+00 -0.00000000000E+00 -0.45593999997E+02  0.45594000000E+02  0.51100000000E-03 0.  1.
    9900012    2    1    2    0    0  0.60566936134E-01  0.36824242938E+02  0.22969432749E+02  0.47787269855E+02  0.19999994578E+02 0.  0.
        -12    1    1    2    0    0 -0.60566936134E-01 -0.36824242938E+02 -0.22969432749E+02  0.43400730145E+02  0.00000000000E+00 0.  1.
         11    1    3    3    0    0 -0.52807172447E+00  0.72630934831E+01  0.92924097514E+00  0.73413129440E+01  0.51100000000E-03 0. -1.
        -11    1    3    3    0    0 -0.39646641665E-01  0.30457718777E+01  0.11515008049E+02  0.11911075048E+02  0.51100000000E-03 0.  1.
         12    1    3    3    0    0  0.62828530226E+00  0.26515377577E+02  0.10525183725E+02  0.28534881863E+02  0.00000000000E+00 0. -1.
</event>
<event>
 7    1  0.1322363E-009  0.4778727E+02  0.7816164E-02  0.1312668E+00
        -11   -1    0    0    0    0  0.00000000000E+00  0.00000000000E+00  0.45593999997E+02  0.45594000000E+02  0.51100000000E-03 0.  1.
         11   -1    0    0    0    0 -0.00000000000E+00 -0.00000000000E+00 -0.45593999997E+02  0.45594000000E+02  0.51100000000E-03 0. -1.
    9900012    2    1    2    0    0 -0.15616306058E+02 -0.39890707387E+02 -0.69631594444E+01  0.47787272585E+02  0.20000007024E+02 0.  0.
        -12    1    1    2    0    0  0.15616306058E+02  0.39890707387E+02  0.69631594444E+01  0.43400727415E+02  0.00000000000E+00 0.  1.
         11    1    3    3    0    0 -0.10134303320E+02 -0.27993748889E+02 -0.56141831593E+01  0.30296421132E+02  0.51100000000E-03 0. -1.
        -11    1    3    3    0    0  0.23372790080E+01 -0.82894204966E+01  0.69376239010E+00  0.86405249751E+01  0.51100000000E-03 0.  1.
        -12    1    3    3    0    0 -0.78192817467E+01 -0.36075380012E+01 -0.20427386752E+01  0.88503264776E+01  0.00000000000E+00 0.  1.
</event>
<event>
 7    1  0.1322363E-009  0.4778727E+02  0.7816164E-02  0.1312668E+00
        -11   -1    0    0    0    0  0.00000000000E+00  0.00000000000E+00  0.45593999997E+02  0.45594000000E+02  0.51100000000E-03 0.  1.
         11   -1    0    0    0    0 -0.00000000000E+00 -0.00000000000E+00 -0.45593999997E+02  0.45594000000E+02  0.51100000000E-03 0. -1.
    9900012    2    1    2    0    0 -0.24837446566E+02 -0.35298548161E+02  0.45538204214E+01  0.47787268040E+02  0.19999986302E+02 0.  0.
        -12    1    1    2    0    0  0.24837446566E+02  0.35298548161E+02 -0.45538204214E+01  0.43400731960E+02  0.00000000000E+00 0.  1.
         11    1    3    3    0    0 -0.61892013625E+01 -0.24694752942E+01 -0.40676489526E+00  0.66760751700E+01  0.51100000000E-03 0. -1.
        -11    1    3    3    0    0 -0.19088783014E+02 -0.19323182822E+02  0.17275721121E+01  0.27216751037E+02  0.51100000000E-03 0.  1.
        -12    1    3    3    0    0  0.44053781086E+00 -0.13505890045E+02  0.32330132046E+01  0.13894441833E+02  0.00000000000E+00 0.  1.
</event>
<event>
 7    1  0.1322363E-009  0.4778728E+02  0.7816164E-02  0.1312668E+00
        -11   -1    0    0    0    0  0.00000000000E+00  0.00000000000E+00  0.45593999997E+02  0.45594000000E+02  0.51100000000E-03 0. -1.
         11   -1    0    0    0    0 -0.00000000000E+00 -0.00000000000E+00 -0.45593999997E+02  0.45594000000E+02  0.51100000000E-03 0.  1.
    9900012    2    1    2    0    0  0.29258942443E+02  0.15294882685E+02  0.28170963560E+02  0.47787281836E+02  0.20000049205E+02 0.  0.
        -12    1    1    2    0    0 -0.29258942443E+02 -0.15294882685E+02 -0.28170963560E+02  0.43400718164E+02  0.00000000000E+00 0.  1.
         11    1    3    3    0    0  0.19546964406E+02  0.24873191927E+01  0.23623186181E+02  0.30762404000E+02  0.51100000000E-03 0. -1.
        -11    1    3    3    0    0  0.32251111426E+00  0.21696639239E+01  0.92607320100E+00  0.23809802175E+01  0.51100000000E-03 0.  1.
         12    1    3    3    0    0  0.93894669229E+01  0.10637899568E+02  0.36217041775E+01  0.14643897619E+02  0.00000000000E+00 0. -1.
</event>
<event>
 7    1  0.1322363E-009  0.4778728E+02  0.7816164E-02  0.1312668E+00
        -11   -1    0    0    0    0  0.00000000000E+00  0.00000000000E+00  0.45593999997E+02  0.45594000000E+02  0.51100000000E-03 0.  1.
         11   -1    0    0    0    0 -0.00000000000E+00 -0.00000000000E+00 -0.45593999997E+02  0.45594000000E+02  0.51100000000E-03 0. -1.
    9900012    2    1    2    0    0 -0.98189777809E+01  0.13918906455E+02 -0.39918340905E+02  0.47787283160E+02  0.20000055240E+02 0.  0.
        -12    1    1    2    0    0  0.98189777809E+01 -0.13918906455E+02  0.39918340905E+02  0.43400716840E+02  0.00000000000E+00 0.  1.
         11    1    3    3    0    0  0.33963709729E+01  0.17412974579E+01 -0.10272715217E+02  0.10958838023E+02  0.51100000000E-03 0. -1.
        -11    1    3    3    0    0 -0.22278129730E+01 -0.25776916266E+01 -0.55569305361E+01  0.65182146335E+01  0.51100000000E-03 0.  1.
         12    1    3    3    0    0 -0.10987535781E+02  0.14755300624E+02 -0.24088695153E+02  0.30310230504E+02  0.00000000000E+00 0. -1.
</event>
<event>
 7    1  0.1322363E-009  0.4778727E+02  0.7816164E-02  0.1312668E+00
        -11   -1    0    0    0    0  0.00000000000E+00  0.00000000000E+00  0.45593999997E+02  0.45594000000E+02  0.51100000000E-03 0.  1.
         11   -1    0    0    0    0 -0.00000000000E+00 -0.00000000000E+00 -0.45593999997E+02  0.45594000000E+02  0.51100000000E-03 0. -1.
    9900012    2    1    2    0    0 -0.36819774842E+02  0.15271985235E+02 -0.17166652178E+02  0.47787270751E+02  0.19999998660E+02 0.  0.
        -12    1    1    2    0    0  0.36819774842E+02 -0.15271985235E+02  0.17166652178E+02  0.43400729249E+02  0.00000000000E+00 0.  1.
         11    1    3    3    0    0 -0.11300051024E+02 -0.11468875038E+01 -0.83217972356E+01  0.14080440816E+02  0.51100000000E-03 0.  1.
        -11    1    3    3    0    0 -0.29096141723E+01  0.31397574037E+01  0.26952778561E+01  0.50585031550E+01  0.51100000000E-03 0. -1.
         12    1    3    3    0    0 -0.22610109646E+02  0.13279115335E+02 -0.11540132798E+02  0.28648326779E+02  0.00000000000E+00 0. -1.
</event>
<event>
 7    1  0.1322363E-009  0.4778727E+02  0.7816164E-02  0.1312668E+00
        -11   -1    0    0    0    0  0.00000000000E+00  0.00000000000E+00  0.45593999997E+02  0.45594000000E+02  0.51100000000E-03 0. -1.
         11   -1    0    0    0    0 -0.00000000000E+00 -0.00000000000E+00 -0.45593999997E+02  0.45594000000E+02  0.51100000000E-03 0.  1.
    9900012    2    1    2    0    0 -0.12889421715E+02  0.41341035580E+02  0.28991255041E+01  0.47787270241E+02  0.19999996335E+02 0.  0.
        -12    1    1    2    0    0  0.12889421715E+02 -0.41341035580E+02 -0.28991255041E+01  0.43400729759E+02  0.00000000000E+00 0.  1.
         11    1    3    3    0    0 -0.41448441261E+01  0.11028861027E+02 -0.80270000949E+01  0.14256515674E+02  0.51100000000E-03 0. -1.
        -11    1    3    3    0    0 -0.37141525381E+01  0.86418562974E+01  0.40961576864E+01  0.10259391668E+02  0.51100000000E-03 0.  1.
         12    1    3    3    0    0 -0.50304250508E+01  0.21670318255E+02  0.68299679126E+01  0.23271362899E+02  0.00000000000E+00 0. -1.
</event>
<event>
 7    1  0.1322363E-009  0.4778727E+02  0.7816164E-02  0.1312668E+00
        -11   -1    0    0    0    0  0.00000000000E+00  0.00000000000E+00  0.45593999997E+02  0.45594000000E+02  0.51100000000E-03 0.  1.
         11   -1    0    0    0    0 -0.00000000000E+00 -0.00000000000E+00 -0.45593999997E+02  0.45594000000E+02  0.51100000000E-03 0. -1.
    9900012    2    1    2    0    0  0.16988253803E+02 -0.39853679175E+02  0.25898157971E+01  0.47787266632E+02  0.19999979881E+02 0.  0.
        -12    1    1    2    0    0 -0.16988253803E+02  0.39853679175E+02 -0.25898157971E+01  0.43400733368E+02  0.00000000000E+00 0.  1.
         11    1    3    3    0    0  0.14795298486E+02 -0.20687088392E+02  0.86705402298E+01  0.26870704337E+02  0.51100000000E-03 0. -1.
        -11    1    3    3    0    0 -0.16489917962E+01 -0.56010310140E+01 -0.96439487113E+00  0.59178357608E+01  0.51100000000E-03 0.  1.
         12    1    3    3    0    0  0.38419471135E+01 -0.13565559768E+02 -0.51163295615E+01  0.14998726534E+02  0.00000000000E+00 0. -1.
</event>
<event>
 7    1  0.1322363E-009  0.4778727E+02  0.7816164E-02  0.1312668E+00
        -11   -1    0    0    0    0  0.00000000000E+00  0.00000000000E+00  0.45593999997E+02  0.45594000000E+02  0.51100000000E-03 0.  1.
         11   -1    0    0    0    0 -0.00000000000E+00 -0.00000000000E+00 -0.45593999997E+02  0.45594000000E+02  0.51100000000E-03 0. -1.
    9900012    2    1    2    0    0 -0.21059965727E+02 -0.27376911455E+01 -0.37849785718E+02  0.47787269728E+02  0.19999993999E+02 0.  0.
        -12    1    1    2    0    0  0.21059965727E+02  0.27376911455E+01  0.37849785718E+02  0.43400730272E+02  0.00000000000E+00 0.  1.
         11    1    3    3    0    0 -0.71057627449E+01 -0.54880075065E+01 -0.20307015161E+02  0.22203264526E+02  0.51100000000E-03 0. -1.
        -11    1    3    3    0    0 -0.33143529540E+01 -0.13916842499E+01  0.10680267493E+01  0.37499869271E+01  0.51100000000E-03 0.  1.
        -12    1    3    3    0    0 -0.10639850028E+02  0.41420006110E+01 -0.18610797306E+02  0.21834018275E+02  0.00000000000E+00 0.  1.
</event>
<event>
 7    1  0.1322363E-009  0.4778726E+02  0.7816164E-02  0.1312668E+00
        -11   -1    0    0    0    0  0.00000000000E+00  0.00000000000E+00  0.45593999997E+02  0.45594000000E+02  0.51100000000E-03 0.  1.
         11   -1    0    0    0    0 -0.00000000000E+00 -0.00000000000E+00 -0.45593999997E+02  0.45594000000E+02  0.51100000000E-03 0. -1.
    9900012    2    1    2    0    0 -0.48589965723E+01 -0.12874504111E+02 -0.41161405034E+02  0.47787263046E+02  0.19999963530E+02 0.  0.
        -12    1    1    2    0    0  0.48589965723E+01  0.12874504111E+02  0.41161405034E+02  0.43400736954E+02  0.00000000000E+00 0.  1.
         11    1    3    3    0    0  0.16427751209E+01 -0.55431983633E+01 -0.10765800972E+02  0.12219993004E+02  0.51100000000E-03 0. -1.
        -11    1    3    3    0    0 -0.11502786075E+02 -0.34945625460E+01 -0.21979633011E+02  0.25052551216E+02  0.51100000000E-03 0.  1.
         12    1    3    3    0    0  0.50010143819E+01 -0.38367432012E+01 -0.84159710510E+01  0.10514718825E+02  0.00000000000E+00 0. -1.
</event>
<event>
 7    1  0.1322363E-009  0.4778728E+02  0.7816164E-02  0.1312668E+00
        -11   -1    0    0    0    0  0.00000000000E+00  0.00000000000E+00  0.45593999997E+02  0.45594000000E+02  0.51100000000E-03 0. -1.
         11   -1    0    0    0    0 -0.00000000000E+00 -0.00000000000E+00 -0.45593999997E+02  0.45594000000E+02  0.51100000000E-03 0.  1.
    9900012    2    1    2    0    0 -0.19134827380E+02  0.92734650280E+01  0.37834956709E+02  0.47787277406E+02  0.20000029005E+02 0.  0.
        -12    1    1    2    0    0  0.19134827380E+02 -0.92734650280E+01 -0.37834956709E+02  0.43400722594E+02  0.00000000000E+00 0.  1.
         11    1    3    3    0    0 -0.32424119869E+01  0.11737496140E+01 -0.18922619668E+01  0.39333928435E+01  0.51100000000E-03 0. -1.
        -11    1    3    3    0    0 -0.52389321524E+01  0.19251066649E+00  0.12924301004E+02  0.13947079520E+02  0.51100000000E-03 0.  1.
         12    1    3    3    0    0 -0.10653483240E+02  0.79072047474E+01  0.26802917672E+02  0.29906805042E+02  0.00000000000E+00 0. -1.
</event>
<event>
 7    1  0.1322363E-009  0.4778727E+02  0.7816164E-02  0.1312668E+00
        -11   -1    0    0    0    0  0.00000000000E+00  0.00000000000E+00  0.45593999997E+02  0.45594000000E+02  0.51100000000E-03 0. -1.
         11   -1    0    0    0    0 -0.00000000000E+00 -0.00000000000E+00 -0.45593999997E+02  0.45594000000E+02  0.51100000000E-03 0.  1.
    9900012    2    1    2    0    0  0.14736989609E+02 -0.17824998243E+02  0.36724838600E+02  0.47787271950E+02  0.20000004128E+02 0.  0.
        -12    1    1    2    0    0 -0.14736989609E+02  0.17824998243E+02 -0.36724838600E+02  0.43400728050E+02  0.00000000000E+00 0.  1.
         11    1    3    3    0    0 -0.91693414222E+00 -0.84623583997E+01  0.14755392536E+02  0.17034491100E+02  0.51100000000E-03 0. -1.
        -11    1    3    3    0    0 -0.16530212949E+01 -0.19046662829E+01  0.38989851727E+01  0.46435243822E+01  0.51100000000E-03 0.  1.
        -12    1    3    3    0    0  0.17306945046E+02 -0.74579735609E+01  0.18070460891E+02  0.26109256467E+02  0.00000000000E+00 0.  1.
</event>
<event>
 7    1  0.1322363E-009  0.4778727E+02  0.7816164E-02  0.1312668E+00
        -11   -1    0    0    0    0  0.00000000000E+00  0.00000000000E+00  0.45593999997E+02  0.45594000000E+02  0.51100000000E-03 0.  1.
         11   -1    0    0    0    0 -0.00000000000E+00 -0.00000000000E+00 -0.45593999997E+02  0.45594000000E+02  0.51100000000E-03 0. -1.
    9900012    2    1    2    0    0  0.13891391967E+02  0.34893677022E+02 -0.21750490565E+02  0.47787270666E+02  0.19999998275E+02 0.  0.
        -12    1    1    2    0    0 -0.13891391967E+02 -0.34893677022E+02  0.21750490565E+02  0.43400729334E+02  0.00000000000E+00 0.  1.
         11    1    3    3    0    0  0.84692208500E+01  0.18071794404E+02 -0.15024601226E+02  0.24981114808E+02  0.51100000000E-03 0. -1.
        -11    1    3    3    0    0 -0.23820705574E+01  0.81479112357E+00 -0.40916599797E+01  0.48041467886E+01  0.51100000000E-03 0.  1.
         12    1    3    3    0    0  0.78042416747E+01  0.16007091494E+02 -0.26342293588E+01  0.18002009069E+02  0.00000000000E+00 0. -1.
</event>
<event>
 7    1  0.1322363E-009  0.4778728E+02  0.7816164E-02  0.1312668E+00
        -11   -1    0    0    0    0  0.00000000000E+00  0.00000000000E+00  0.45593999997E+02  0.45594000000E+02  0.51100000000E-03 0.  1.
         11   -1    0    0    0    0 -0.00000000000E+00 -0.00000000000E+00 -0.45593999997E+02  0.45594000000E+02  0.51100000000E-03 0. -1.
    9900012    2    1    2    0    0 -0.37039519881E+02  0.39439494381E+00 -0.22617277776E+02  0.47787276107E+02  0.20000023083E+02 0.  0.
        -12    1    1    2    0    0  0.37039519881E+02 -0.39439494381E+00  0.22617277776E+02  0.43400723893E+02  0.00000000000E+00 0.  1.
         11    1    3    3    0    0 -0.27474502103E+02 -0.90336300516E+00 -0.18251018780E+02  0.32996424311E+02  0.51100000000E-03 0. -1.
        -11    1    3    3    0    0 -0.10329396154E+02  0.12605787562E+01 -0.48853526298E-01  0.10406145811E+02  0.51100000000E-03 0.  1.
         12    1    3    3    0    0  0.76437837531E+00  0.37179192817E-01 -0.43174054696E+01  0.43847059858E+01  0.00000000000E+00 0. -1.
</event>
<event>
 7    1  0.1713276E-009  0.4778728E+02  0.7816164E-02  0.1312668E+00
        -11   -1    0    0    0    0  0.00000000000E+00  0.00000000000E+00  0.45593999997E+02  0.45594000000E+02  0.51100000000E-03 0.  1.
         11   -1    0    0    0    0 -0.00000000000E+00 -0.00000000000E+00 -0.45593999997E+02  0.45594000000E+02  0.51100000000E-03 0. -1.
    9900012    2    1    2    0    0  0.38866062437E+02  0.17345832747E+02  0.84955103263E+01  0.47787280897E+02  0.20000044920E+02 0.  0.
        -12    1    1    2    0    0 -0.38866062437E+02 -0.17345832747E+02 -0.84955103263E+01  0.43400719103E+02  0.00000000000E+00 0.  1.
         11    1    3    3    0    0  0.21462310115E+02  0.12649694795E+02  0.62349490211E+01  0.25681123874E+02  0.51100000000E-03 0. -1.
        -11    1    3    3    0    0  0.32391211357E+01  0.49896925761E+01 -0.33972234438E+01  0.68505521766E+01  0.51100000000E-03 0.  1.
         12    1    3    3    0    0  0.14164631186E+02 -0.29355462445E+00  0.56577847490E+01  0.15255604846E+02  0.00000000000E+00 0. -1.
</event>
<event>
 7    1  0.1322363E-009  0.4778727E+02  0.7816164E-02  0.1312668E+00
        -11   -1    0    0    0    0  0.00000000000E+00  0.00000000000E+00  0.45593999997E+02  0.45594000000E+02  0.51100000000E-03 0.  1.
         11   -1    0    0    0    0 -0.00000000000E+00 -0.00000000000E+00 -0.45593999997E+02  0.45594000000E+02  0.51100000000E-03 0. -1.
    9900012    2    1    2    0    0  0.29302309766E+02 -0.29352048359E+02 -0.12784957568E+02  0.47787271429E+02  0.20000001753E+02 0.  0.
        -12    1    1    2    0    0 -0.29302309766E+02  0.29352048359E+02  0.12784957568E+02  0.43400728571E+02  0.00000000000E+00 0.  1.
         11    1    3    3    0    0  0.12376560737E+02 -0.98433689033E+01  0.39248216577E+01  0.16293415613E+02  0.51100000000E-03 0. -1.
        -11    1    3    3    0    0  0.37599022829E+01 -0.93850407239E+00 -0.31785401133E+01  0.50120627075E+01  0.51100000000E-03 0.  1.
         12    1    3    3    0    0  0.13165846746E+02 -0.18570175384E+02 -0.13531239112E+02  0.26481793108E+02  0.00000000000E+00 0. -1.
</event>
<event>
 7    1  0.1322363E-009  0.4778727E+02  0.7816164E-02  0.1312668E+00
        -11   -1    0    0    0    0  0.00000000000E+00  0.00000000000E+00  0.45593999997E+02  0.45594000000E+02  0.51100000000E-03 0. -1.
         11   -1    0    0    0    0 -0.00000000000E+00 -0.00000000000E+00 -0.45593999997E+02  0.45594000000E+02  0.51100000000E-03 0.  1.
    9900012    2    1    2    0    0 -0.23148595475E+02 -0.18124883099E+01  0.36667163400E+02  0.47787268922E+02  0.19999990322E+02 0.  0.
        -12    1    1    2    0    0  0.23148595475E+02  0.18124883099E+01 -0.36667163400E+02  0.43400731078E+02  0.00000000000E+00 0.  1.
         11    1    3    3    0    0 -0.76178638392E+01  0.24281583881E+01  0.21017646128E+02  0.22487090778E+02  0.51100000000E-03 0. -1.
        -11    1    3    3    0    0 -0.60083648975E+01 -0.69048051045E+01  0.11180202760E+02  0.14449003989E+02  0.51100000000E-03 0.  1.
        -12    1    3    3    0    0 -0.95223667388E+01  0.26641584065E+01  0.44693145115E+01  0.10851174154E+02  0.00000000000E+00 0.  1.
</event>
<event>
 7    1  0.1322363E-009  0.4778727E+02  0.7816164E-02  0.1312668E+00
        -11   -1    0    0    0    0  0.00000000000E+00  0.00000000000E+00  0.45593999997E+02  0.45594000000E+02  0.51100000000E-03 0.  1.
         11   -1    0    0    0    0 -0.00000000000E+00 -0.00000000000E+00 -0.45593999997E+02  0.45594000000E+02  0.51100000000E-03 0. -1.
    9900012    2    1    2    0    0 -0.42327706243E+02 -0.14442419370E+01 -0.94817105333E+01  0.47787269762E+02  0.19999994152E+02 0.  0.
        -12    1    1    2    0    0  0.42327706243E+02  0.14442419370E+01  0.94817105333E+01  0.43400730238E+02  0.00000000000E+00 0.  1.
         11    1    3    3    0    0 -0.58239858531E+01  0.70376784755E+01 -0.16267218270E+01  0.92786827570E+01  0.51100000000E-03 0. -1.
        -11    1    3    3    0    0 -0.10136591360E+02 -0.27185168305E+01 -0.40630041491E+01  0.11253835841E+02  0.51100000000E-03 0.  1.
         12    1    3    3    0    0 -0.26367129030E+02 -0.57634035820E+01 -0.37919845572E+01  0.27254751164E+02  0.00000000000E+00 0. -1.
</event>
<event>
 7    1  0.1322363E-009  0.4778726E+02  0.7816164E-02  0.1312668E+00
        -11   -1    0    0    0    0  0.00000000000E+00  0.00000000000E+00  0.45593999997E+02  0.45594000000E+02  0.51100000000E-03 0.  1.
         11   -1    0    0    0    0 -0.00000000000E+00 -0.00000000000E+00 -0.45593999997E+02  0.45594000000E+02  0.51100000000E-03 0. -1.
    9900012    2    1    2    0    0  0.18256471258E+02  0.33517928538E+02 -0.20660918461E+02  0.47787264661E+02  0.19999970896E+02 0.  0.
        -12    1    1    2    0    0 -0.18256471258E+02 -0.33517928538E+02  0.20660918461E+02  0.43400735339E+02  0.00000000000E+00 0.  1.
         11    1    3    3    0    0  0.12831820187E+02  0.17163252726E+02 -0.10547725182E+02  0.23884877229E+02  0.51100000000E-03 0. -1.
        -11    1    3    3    0    0  0.67914388642E+00  0.40508698068E+01  0.31672877114E+01  0.51867614479E+01  0.51100000000E-03 0.  1.
         12    1    3    3    0    0  0.47455071842E+01  0.12303806006E+02 -0.13280480991E+02  0.18715625985E+02  0.00000000000E+00 0. -1.
</event>
<event>
 7    1  0.1322363E-009  0.4778728E+02  0.7816164E-02  0.1312668E+00
        -11   -1    0    0    0    0  0.00000000000E+00  0.00000000000E+00  0.45593999997E+02  0.45594000000E+02  0.51100000000E-03 0. -1.
         11   -1    0    0    0    0 -0.00000000000E+00 -0.00000000000E+00 -0.45593999997E+02  0.45594000000E+02  0.51100000000E-03 0.  1.
    9900012    2    1    2    0    0 -0.21288295100E+02  0.33921670764E+02  0.16725768922E+02  0.47787278788E+02  0.20000035306E+02 0.  0.
        -12    1    1    2    0    0  0.21288295100E+02 -0.33921670764E+02 -0.16725768922E+02  0.43400721212E+02  0.00000000000E+00 0.  1.
         11    1    3    3    0    0 -0.30189354058E+01 -0.10591245469E+01 -0.15486739494E+01  0.35544489099E+01  0.51100000000E-03 0.  1.
        -11    1    3    3    0    0 -0.73027622190E+01  0.17297844695E+02  0.45913456372E+01  0.19329413394E+02  0.51100000000E-03 0. -1.
        -12    1    3    3    0    0 -0.10966597476E+02  0.17682950616E+02  0.13683097234E+02  0.24903416484E+02  0.00000000000E+00 0.  1.
</event>
<event>
 7    1  0.1322363E-009  0.4778727E+02  0.7816164E-02  0.1312668E+00
        -11   -1    0    0    0    0  0.00000000000E+00  0.00000000000E+00  0.45593999997E+02  0.45594000000E+02  0.51100000000E-03 0.  1.
         11   -1    0    0    0    0 -0.00000000000E+00 -0.00000000000E+00 -0.45593999997E+02  0.45594000000E+02  0.51100000000E-03 0. -1.
    9900012    2    1    2    0    0 -0.31548694013E+02  0.21976232131E+01 -0.29723292157E+02  0.47787265694E+02  0.19999975604E+02 0.  0.
        -12    1    1    2    0    0  0.31548694013E+02 -0.21976232131E+01  0.29723292157E+02  0.43400734306E+02  0.00000000000E+00 0.  1.
         11    1    3    3    0    0 -0.17106828884E+01 -0.11826716254E+00 -0.10370647535E+02  0.10511458206E+02  0.51100000000E-03 0. -1.
        -11    1    3    3    0    0 -0.92690501030E+01 -0.13024640820E+01 -0.89357604281E+00  0.94026688181E+01  0.51100000000E-03 0.  1.
         12    1    3    3    0    0 -0.20568961021E+02  0.36183544576E+01 -0.18459068579E+02  0.27873138669E+02  0.00000000000E+00 0. -1.
</event>
<event>
 7    1  0.1322363E-009  0.4778728E+02  0.7816164E-02  0.1312668E+00
        -11   -1    0    0    0    0  0.00000000000E+00  0.00000000000E+00  0.45593999997E+02  0.45594000000E+02  0.51100000000E-03 0. -1.
         11   -1    0    0    0    0 -0.00000000000E+00 -0.00000000000E+00 -0.45593999997E+02  0.45594000000E+02  0.51100000000E-03 0.  1.
    9900012    2    1    2    0    0 -0.27731353074E+01 -0.14958208225E+02  0.40647067122E+02  0.47787281822E+02  0.20000049141E+02 0.  0.
        -12    1    1    2    0    0  0.27731353074E+01  0.14958208225E+02 -0.40647067122E+02  0.43400718178E+02  0.00000000000E+00 0.  1.
         11    1    3    3    0    0  0.78506029204E+00 -0.74309706955E+01  0.78527245282E+01  0.10839784496E+02  0.51100000000E-03 0. -1.
        -11    1    3    3    0    0  0.12988067619E+01  0.40213027593E+01  0.56884583080E+01  0.70863483593E+01  0.51100000000E-03 0.  1.
        -12    1    3    3    0    0 -0.48570023614E+01 -0.11548540289E+02  0.27105884285E+02  0.29861148967E+02  0.00000000000E+00 0.  1.
</event>
<event>
 7    1  0.1322363E-009  0.4778727E+02  0.7816164E-02  0.1312668E+00
        -11   -1    0    0    0    0  0.00000000000E+00  0.00000000000E+00  0.45593999997E+02  0.45594000000E+02  0.51100000000E-03 0.  1.
         11   -1    0    0    0    0 -0.00000000000E+00 -0.00000000000E+00 -0.45593999997E+02  0.45594000000E+02  0.51100000000E-03 0. -1.
    9900012    2    1    2    0    0  0.17443004193E+02  0.29720939919E+02 -0.26382391176E+02  0.47787271560E+02  0.20000002352E+02 0.  0.
        -12    1    1    2    0    0 -0.17443004193E+02 -0.29720939919E+02  0.26382391176E+02  0.43400728440E+02  0.00000000000E+00 0.  1.
         11    1    3    3    0    0  0.83822181072E+00  0.80865035650E+01  0.19722576084E+00  0.81322231875E+01  0.51100000000E-03 0.  1.
        -11    1    3    3    0    0  0.74484518765E+01  0.33659836409E+01 -0.36810308218E+01  0.89643331820E+01  0.51100000000E-03 0. -1.
        -12    1    3    3    0    0  0.91563305055E+01  0.18268452713E+02 -0.22898586115E+02  0.30690715191E+02  0.00000000000E+00 0.  1.
</event>
<event>
 7    1  0.1322363E-009  0.4778727E+02  0.7816164E-02  0.1312668E+00
        -11   -1    0    0    0    0  0.00000000000E+00  0.00000000000E+00  0.45593999997E+02  0.45594000000E+02  0.51100000000E-03 0. -1.
         11   -1    0    0    0    0 -0.00000000000E+00 -0.00000000000E+00 -0.45593999997E+02  0.45594000000E+02  0.51100000000E-03 0.  1.
    9900012    2    1    2    0    0 -0.69783417461E+01 -0.42065748189E+02 -0.80869481370E+01  0.47787272421E+02  0.20000006278E+02 0.  0.
        -12    1    1    2    0    0  0.69783417461E+01  0.42065748189E+02  0.80869481370E+01  0.43400727579E+02  0.00000000000E+00 0.  1.
         11    1    3    3    0    0 -0.80135597925E+00 -0.28174077088E+02 -0.50861765577E+01  0.28640705009E+02  0.51100000000E-03 0. -1.
        -11    1    3    3    0    0  0.12970440562E+01 -0.23079841534E+01 -0.45602407828E+01  0.52730361647E+01  0.51100000000E-03 0.  1.
         12    1    3    3    0    0 -0.74740298230E+01 -0.11583686947E+02  0.15594692035E+01  0.13873531248E+02  0.00000000000E+00 0. -1.
</event>
<event>
 7    1  0.1322363E-009  0.4778727E+02  0.7816164E-02  0.1312668E+00
        -11   -1    0    0    0    0  0.00000000000E+00  0.00000000000E+00  0.45593999997E+02  0.45594000000E+02  0.51100000000E-03 0.  1.
         11   -1    0    0    0    0 -0.00000000000E+00 -0.00000000000E+00 -0.45593999997E+02  0.45594000000E+02  0.51100000000E-03 0. -1.
    9900012    2    1    2    0    0  0.13077426058E+01 -0.37782900650E+02 -0.21315847004E+02  0.47787272981E+02  0.20000008830E+02 0.  0.
        -12    1    1    2    0    0 -0.13077426058E+01  0.37782900650E+02  0.21315847004E+02  0.43400727019E+02  0.00000000000E+00 0.  1.
         11    1    3    3    0    0 -0.44712967958E+01 -0.28054524729E+02 -0.17940285795E+02  0.33599147422E+02  0.51100000000E-03 0. -1.
        -11    1    3    3    0    0 -0.15935028133E+00 -0.46443557049E+01  0.16078889610E+01  0.49173915441E+01  0.51100000000E-03 0.  1.
        -12    1    3    3    0    0  0.59383896829E+01 -0.50840202166E+01 -0.49834501697E+01  0.92707340153E+01  0.00000000000E+00 0.  1.
</event>
<event>
 7    1  0.1322363E-009  0.4778727E+02  0.7816164E-02  0.1312668E+00
        -11   -1    0    0    0    0  0.00000000000E+00  0.00000000000E+00  0.45593999997E+02  0.45594000000E+02  0.51100000000E-03 0. -1.
         11   -1    0    0    0    0 -0.00000000000E+00 -0.00000000000E+00 -0.45593999997E+02  0.45594000000E+02  0.51100000000E-03 0.  1.
    9900012    2    1    2    0    0  0.85190293172E+01  0.32699238095E+02  0.27236171635E+02  0.47787273303E+02  0.20000010298E+02 0.  0.
        -12    1    1    2    0    0 -0.85190293172E+01 -0.32699238095E+02 -0.27236171635E+02  0.43400726697E+02  0.00000000000E+00 0.  1.
         11    1    3    3    0    0  0.21763453167E+01  0.22455172019E+02  0.15327718794E+02  0.27274717103E+02  0.51100000000E-03 0. -1.
        -11    1    3    3    0    0  0.30477223947E+01  0.35310105747E+01 -0.17165841792E+01  0.49702423461E+01  0.51100000000E-03 0.  1.
         12    1    3    3    0    0  0.32949616059E+01  0.67130555011E+01  0.13625037020E+02  0.15542313854E+02  0.00000000000E+00 0. -1.
</event>
<event>
 7    1  0.1322363E-009  0.4778727E+02  0.7816164E-02  0.1312668E+00
        -11   -1    0    0    0    0  0.00000000000E+00  0.00000000000E+00  0.45593999997E+02  0.45594000000E+02  0.51100000000E-03 0. -1.
         11   -1    0    0    0    0 -0.00000000000E+00 -0.00000000000E+00 -0.45593999997E+02  0.45594000000E+02  0.51100000000E-03 0.  1.
    9900012    2    1    2    0    0 -0.29364103419E+02  0.43303406181E+01  0.31664192569E+02  0.47787268318E+02  0.19999987571E+02 0.  0.
        -12    1    1    2    0    0  0.29364103419E+02 -0.43303406181E+01 -0.31664192569E+02  0.43400731682E+02  0.00000000000E+00 0.  1.
         11    1    3    3    0    0 -0.83534515257E+01  0.51105919289E+01  0.48635259510E+01  0.10933992281E+02  0.51100000000E-03 0. -1.
        -11    1    3    3    0    0 -0.22110846630E+02 -0.41107243227E+00  0.27656732835E+02  0.35411204309E+02  0.51100000000E-03 0.  1.
        -12    1    3    3    0    0  0.11001947367E+01 -0.36917887855E+00 -0.85606621734E+00  0.14420717290E+01  0.00000000000E+00 0.  1.
</event>
<event>
 7    1  0.1322363E-009  0.4778728E+02  0.7816164E-02  0.1312668E+00
        -11   -1    0    0    0    0  0.00000000000E+00  0.00000000000E+00  0.45593999997E+02  0.45594000000E+02  0.51100000000E-03 0.  1.
         11   -1    0    0    0    0 -0.00000000000E+00 -0.00000000000E+00 -0.45593999997E+02  0.45594000000E+02  0.51100000000E-03 0. -1.
    9900012    2    1    2    0    0  0.42449527712E+02 -0.89759063668E+01  0.10455319008E+01  0.47787280708E+02  0.20000044060E+02 0.  0.
        -12    1    1    2    0    0 -0.42449527712E+02  0.89759063668E+01 -0.10455319008E+01  0.43400719292E+02  0.00000000000E+00 0.  1.
         11    1    3    3    0    0  0.22552445338E+02 -0.11468773312E+02  0.33440858230E+01  0.25521137558E+02  0.51100000000E-03 0.  1.
        -11    1    3    3    0    0  0.16661206209E+02  0.13585698162E+01  0.19238239845E+01  0.16826841750E+02  0.51100000000E-03 0. -1.
        -12    1    3    3    0    0  0.32358761659E+01  0.11342971292E+01 -0.42223779068E+01  0.54393014005E+01  0.00000000000E+00 0.  1.
</event>
<event>
 7    1  0.1322363E-009  0.4778727E+02  0.7816164E-02  0.1312668E+00
        -11   -1    0    0    0    0  0.00000000000E+00  0.00000000000E+00  0.45593999997E+02  0.45594000000E+02  0.51100000000E-03 0.  1.
         11   -1    0    0    0    0 -0.00000000000E+00 -0.00000000000E+00 -0.45593999997E+02  0.45594000000E+02  0.51100000000E-03 0. -1.
    9900012    2    1    2    0    0 -0.11690075575E+02 -0.41794334116E+02 -0.44605643245E+00  0.47787271924E+02  0.20000004012E+02 0.  0.
        -12    1    1    2    0    0  0.11690075575E+02  0.41794334116E+02  0.44605643245E+00  0.43400728076E+02  0.00000000000E+00 0.  1.
         11    1    3    3    0    0 -0.12828050718E+02 -0.17018685735E+02  0.17159990380E+01  0.21380813884E+02  0.51100000000E-03 0. -1.
        -11    1    3    3    0    0  0.15916311947E+01 -0.89788558394E-01  0.18625511960E+00  0.16050056311E+01  0.51100000000E-03 0.  1.
        -12    1    3    3    0    0 -0.45365605154E+00 -0.24685859822E+02 -0.23483105901E+01  0.24801452409E+02  0.00000000000E+00 0.  1.
</event>
<event>
 7    1  0.1322363E-009  0.4778727E+02  0.7816164E-02  0.1312668E+00
        -11   -1    0    0    0    0  0.00000000000E+00  0.00000000000E+00  0.45593999997E+02  0.45594000000E+02  0.51100000000E-03 0. -1.
         11   -1    0    0    0    0 -0.00000000000E+00 -0.00000000000E+00 -0.45593999997E+02  0.45594000000E+02  0.51100000000E-03 0.  1.
    9900012    2    1    2    0    0  0.38881673396E+02  0.13357060629E+02  0.13907826201E+02  0.47787271615E+02  0.20000002600E+02 0.  0.
        -12    1    1    2    0    0 -0.38881673396E+02 -0.13357060629E+02 -0.13907826201E+02  0.43400728385E+02  0.00000000000E+00 0.  1.
         11    1    3    3    0    0  0.17838921740E+02  0.35512267157E+01  0.89031636955E+00  0.18210738687E+02  0.51100000000E-03 0. -1.
        -11    1    3    3    0    0  0.18018432472E+02  0.27180395465E+01  0.11963916107E+02  0.21798782916E+02  0.51100000000E-03 0.  1.
        -12    1    3    3    0    0  0.30243191846E+01  0.70877943670E+01  0.10535937248E+01  0.77777500124E+01  0.00000000000E+00 0.  1.
</event>
<event>
 7    1  0.1322363E-009  0.4778729E+02  0.7816164E-02  0.1312668E+00
        -11   -1    0    0    0    0  0.00000000000E+00  0.00000000000E+00  0.45593999997E+02  0.45594000000E+02  0.51100000000E-03 0.  1.
         11   -1    0    0    0    0 -0.00000000000E+00 -0.00000000000E+00 -0.45593999997E+02  0.45594000000E+02  0.51100000000E-03 0. -1.
    9900012    2    1    2    0    0  0.18841150374E+02 -0.39088881113E+02  0.83210961370E+00  0.47787285945E+02  0.20000067936E+02 0.  0.
        -12    1    1    2    0    0 -0.18841150374E+02  0.39088881113E+02 -0.83210961370E+00  0.43400714055E+02  0.00000000000E+00 0.  1.
         11    1    3    3    0    0  0.90115664432E+01 -0.22717922599E+02  0.54369630788E+01  0.25037430075E+02  0.51100000000E-03 0. -1.
        -11    1    3    3    0    0  0.57800100813E+00 -0.81584627233E+01  0.24125507904E+01  0.85273091155E+01  0.51100000000E-03 0.  1.
        -12    1    3    3    0    0  0.92515829230E+01 -0.82124957911E+01 -0.70174042554E+01  0.14222546755E+02  0.00000000000E+00 0.  1.
</event>
<event>
 7    1  0.1492422E-009  0.4778727E+02  0.7816164E-02  0.1312668E+00
        -11   -1    0    0    0    0  0.00000000000E+00  0.00000000000E+00  0.45593999997E+02  0.45594000000E+02  0.51100000000E-03 0. -1.
         11   -1    0    0    0    0 -0.00000000000E+00 -0.00000000000E+00 -0.45593999997E+02  0.45594000000E+02  0.51100000000E-03 0.  1.
    9900012    2    1    2    0    0  0.26636335665E+02  0.34075641107E+02 -0.36027370312E+01  0.47787269492E+02  0.19999992922E+02 0.  0.
        -12    1    1    2    0    0 -0.26636335665E+02 -0.34075641107E+02  0.36027370312E+01  0.43400730508E+02  0.00000000000E+00 0.  1.
         11    1    3    3    0    0  0.10796616376E+02  0.11858132969E+02 -0.36489878035E+01  0.16446803791E+02  0.51100000000E-03 0. -1.
        -11    1    3    3    0    0 -0.15183697588E+01  0.97398656947E+01  0.12093412968E+01  0.99314116373E+01  0.51100000000E-03 0.  1.
        -12    1    3    3    0    0  0.17358089048E+02  0.12477642443E+02 -0.11630905245E+01  0.21409054064E+02  0.00000000000E+00 0.  1.
</event>
<event>
 7    1  0.1322363E-009  0.4778727E+02  0.7816164E-02  0.1312668E+00
        -11   -1    0    0    0    0  0.00000000000E+00  0.00000000000E+00  0.45593999997E+02  0.45594000000E+02  0.51100000000E-03 0.  1.
         11   -1    0    0    0    0 -0.00000000000E+00 -0.00000000000E+00 -0.45593999997E+02  0.45594000000E+02  0.51100000000E-03 0. -1.
    9900012    2    1    2    0    0 -0.83926647924E+01  0.12024969057E+02 -0.40848336396E+02  0.47787270865E+02  0.19999999183E+02 0.  0.
        -12    1    1    2    0    0  0.83926647924E+01 -0.12024969057E+02  0.40848336396E+02  0.43400729135E+02  0.00000000000E+00 0.  1.
         11    1    3    3    0    0 -0.46884601652E+01 -0.32698518352E+01 -0.17341127046E+02  0.18258923222E+02  0.51100000000E-03 0. -1.
        -11    1    3    3    0    0 -0.22469126277E+00  0.98762751554E+01 -0.19724233556E+02  0.22059843307E+02  0.51100000000E-03 0.  1.
        -12    1    3    3    0    0 -0.34795133645E+01  0.54185457371E+01 -0.37829757932E+01  0.74685043356E+01  0.00000000000E+00 0.  1.
</event>
<event>
 7    1  0.1322363E-009  0.4778727E+02  0.7816164E-02  0.1312668E+00
        -11   -1    0    0    0    0  0.00000000000E+00  0.00000000000E+00  0.45593999997E+02  0.45594000000E+02  0.51100000000E-03 0. -1.
         11   -1    0    0    0    0 -0.00000000000E+00 -0.00000000000E+00 -0.45593999997E+02  0.45594000000E+02  0.51100000000E-03 0.  1.
    9900012    2    1    2    0    0 -0.50374513228E+01 -0.38286734330E+02  0.19808417190E+02  0.47787270362E+02  0.19999996889E+02 0.  0.
        -12    1    1    2    0    0  0.50374513228E+01  0.38286734330E+02 -0.19808417190E+02  0.43400729638E+02  0.00000000000E+00 0.  1.
         11    1    3    3    0    0  0.45742484151E+00 -0.25293458899E+02  0.13415741203E+02  0.28634776284E+02  0.51100000000E-03 0. -1.
        -11    1    3    3    0    0  0.14182186779E+01 -0.97243495675E+01  0.59599019608E+01  0.11493248034E+02  0.51100000000E-03 0.  1.
        -12    1    3    3    0    0 -0.69130948422E+01 -0.32689258641E+01  0.43277402622E+00  0.76592460438E+01  0.00000000000E+00 0.  1.
</event>
<event>
 7    1  0.1322363E-009  0.4778727E+02  0.7816164E-02  0.1312668E+00
        -11   -1    0    0    0    0  0.00000000000E+00  0.00000000000E+00  0.45593999997E+02  0.45594000000E+02  0.51100000000E-03 0.  1.
         11   -1    0    0    0    0 -0.00000000000E+00 -0.00000000000E+00 -0.45593999997E+02  0.45594000000E+02  0.51100000000E-03 0. -1.
    9900012    2    1    2    0    0  0.24006164441E+01 -0.41417020505E+02  0.12747172887E+02  0.47787274621E+02  0.20000016305E+02 0.  0.
        -12    1    1    2    0    0 -0.24006164441E+01  0.41417020505E+02 -0.12747172887E+02  0.43400725379E+02  0.00000000000E+00 0.  1.
         11    1    3    3    0    0 -0.16234984360E+01 -0.11457098656E+02  0.71775949650E+01  0.13616854502E+02  0.51100000000E-03 0. -1.
        -11    1    3    3    0    0  0.83607739472E+01 -0.26899710403E+02  0.31745579923E+01  0.28347394580E+02  0.51100000000E-03 0.  1.
        -12    1    3    3    0    0 -0.43366590671E+01 -0.30602114462E+01  0.23950199301E+01  0.58230255388E+01  0.00000000000E+00 0.  1.
</event>
<event>
 7    1  0.1322363E-009  0.4778727E+02  0.7816164E-02  0.1312668E+00
        -11   -1    0    0    0    0  0.00000000000E+00  0.00000000000E+00  0.45593999997E+02  0.45594000000E+02  0.51100000000E-03 0. -1.
         11   -1    0    0    0    0 -0.00000000000E+00 -0.00000000000E+00 -0.45593999997E+02  0.45594000000E+02  0.51100000000E-03 0.  1.
    9900012    2    1    2    0    0 -0.12696392460E+02  0.16959067793E+02  0.37878951603E+02  0.47787270324E+02  0.19999996715E+02 0.  0.
        -12    1    1    2    0    0  0.12696392460E+02 -0.16959067793E+02 -0.37878951603E+02  0.43400729676E+02  0.00000000000E+00 0.  1.
         11    1    3    3    0    0 -0.13401645425E+02  0.17761552565E+02  0.22902945120E+02  0.31931516485E+02  0.51100000000E-03 0. -1.
        -11    1    3    3    0    0 -0.71108836395E+00 -0.17646105035E+01  0.19742677762E+01  0.27417568097E+01  0.51100000000E-03 0.  1.
        -12    1    3    3    0    0  0.14163413293E+01  0.96212573100E+00  0.13001738707E+02  0.13113997029E+02  0.00000000000E+00 0.  1.
</event>
<event>
 7    1  0.1322363E-009  0.4778726E+02  0.7816164E-02  0.1312668E+00
        -11   -1    0    0    0    0  0.00000000000E+00  0.00000000000E+00  0.45593999997E+02  0.45594000000E+02  0.51100000000E-03 0. -1.
         11   -1    0    0    0    0 -0.00000000000E+00 -0.00000000000E+00 -0.45593999997E+02  0.45594000000E+02  0.51100000000E-03 0.  1.
    9900012    2    1    2    0    0  0.26614217408E+02  0.20549596610E+02 -0.27441239494E+02  0.47787261365E+02  0.19999955867E+02 0.  0.
        -12    1    1    2    0    0 -0.26614217408E+02 -0.20549596610E+02  0.27441239494E+02  0.43400738635E+02  0.00000000000E+00 0.  1.
         11    1    3    3    0    0  0.12500950701E+01  0.13093414658E+01  0.17507220955E+00  0.18187257347E+01  0.51100000000E-03 0. -1.
        -11    1    3    3    0    0  0.69036032573E+01  0.94104261825E+01 -0.21012452039E+02  0.24036201860E+02  0.51100000000E-03 0.  1.
         12    1    3    3    0    0  0.18460519081E+02  0.98298289619E+01 -0.66038596644E+01  0.21932333771E+02  0.00000000000E+00 0. -1.
</event>
<event>
 7    1  0.1322363E-009  0.4778727E+02  0.7816164E-02  0.1312668E+00
        -11   -1    0    0    0    0  0.00000000000E+00  0.00000000000E+00  0.45593999997E+02  0.45594000000E+02  0.51100000000E-03 0.  1.
         11   -1    0    0    0    0 -0.00000000000E+00 -0.00000000000E+00 -0.45593999997E+02  0.45594000000E+02  0.51100000000E-03 0. -1.
    9900012    2    1    2    0    0 -0.19153057940E+02 -0.65038800395E+00 -0.38940474239E+02  0.47787272276E+02  0.20000005615E+02 0.  0.
        -12    1    1    2    0    0  0.19153057940E+02  0.65038800395E+00  0.38940474239E+02  0.43400727724E+02  0.00000000000E+00 0.  1.
         11    1    3    3    0    0 -0.48626250499E+01  0.26401118367E+01 -0.81757920435E+01  0.98721268572E+01  0.51100000000E-03 0. -1.
        -11    1    3    3    0    0  0.46695947752E-01 -0.68529008480E+01 -0.13882483824E+02  0.15481853505E+02  0.51100000000E-03 0.  1.
        -12    1    3    3    0    0 -0.14337128838E+02  0.35624010074E+01 -0.16882198371E+02  0.22433291914E+02  0.00000000000E+00 0.  1.
</event>
<event>
 7    1  0.1322363E-009  0.4778726E+02  0.7816164E-02  0.1312668E+00
        -11   -1    0    0    0    0  0.00000000000E+00  0.00000000000E+00  0.45593999997E+02  0.45594000000E+02  0.51100000000E-03 0. -1.
         11   -1    0    0    0    0 -0.00000000000E+00 -0.00000000000E+00 -0.45593999997E+02  0.45594000000E+02  0.51100000000E-03 0.  1.
    9900012    2    1    2    0    0 -0.13073536509E+02 -0.39390508397E+02  0.12692305248E+02  0.47787261284E+02  0.19999955498E+02 0.  0.
        -12    1    1    2    0    0  0.13073536509E+02  0.39390508397E+02 -0.12692305248E+02  0.43400738716E+02  0.00000000000E+00 0.  1.
         11    1    3    3    0    0 -0.62393849379E+01 -0.14358867866E+02  0.37111457482E+01  0.16089736288E+02  0.51100000000E-03 0. -1.
        -11    1    3    3    0    0 -0.70921960705E+01 -0.26788089344E+02  0.61969516811E+01  0.28395478271E+02  0.51100000000E-03 0.  1.
        -12    1    3    3    0    0  0.25804449894E+00  0.17564488139E+01  0.27842078183E+01  0.33020467251E+01  0.00000000000E+00 0.  1.
</event>
<event>
 7    1  0.1322363E-009  0.4778727E+02  0.7816164E-02  0.1312668E+00
        -11   -1    0    0    0    0  0.00000000000E+00  0.00000000000E+00  0.45593999997E+02  0.45594000000E+02  0.51100000000E-03 0. -1.
         11   -1    0    0    0    0 -0.00000000000E+00 -0.00000000000E+00 -0.45593999997E+02  0.45594000000E+02  0.51100000000E-03 0.  1.
    9900012    2    1    2    0    0 -0.11483580144E+02  0.29822806790E+02  0.29365812063E+02  0.47787270330E+02  0.19999996742E+02 0.  0.
        -12    1    1    2    0    0  0.11483580144E+02 -0.29822806790E+02 -0.29365812063E+02  0.43400729670E+02  0.00000000000E+00 0.  1.
         11    1    3    3    0    0 -0.14130477776E+01  0.13414526822E+02  0.14311460886E+02  0.19666320115E+02  0.51100000000E-03 0. -1.
        -11    1    3    3    0    0  0.15192734744E+01 -0.15000987410E+01  0.27964039275E+01  0.35182898273E+01  0.51100000000E-03 0.  1.
         12    1    3    3    0    0 -0.11589805840E+02  0.17908378709E+02  0.12257947249E+02  0.24602660388E+02  0.00000000000E+00 0. -1.
</event>
<event>
 7    1  0.1322363E-009  0.4778727E+02  0.7816164E-02  0.1312668E+00
        -11   -1    0    0    0    0  0.00000000000E+00  0.00000000000E+00  0.45593999997E+02  0.45594000000E+02  0.51100000000E-03 0.  1.
         11   -1    0    0    0    0 -0.00000000000E+00 -0.00000000000E+00 -0.45593999997E+02  0.45594000000E+02  0.51100000000E-03 0. -1.
    9900012    2    1    2    0    0  0.54938399332E+01 -0.27727287597E+02 -0.32933852280E+02  0.47787269814E+02  0.19999994388E+02 0.  0.
        -12    1    1    2    0    0 -0.54938399332E+01  0.27727287597E+02  0.32933852280E+02  0.43400730186E+02  0.00000000000E+00 0.  1.
         11    1    3    3    0    0 -0.83480478356E+00 -0.88080865442E+01 -0.15487108455E+02  0.17836193993E+02  0.51100000000E-03 0. -1.
        -11    1    3    3    0    0  0.56603819914E+01 -0.20774992196E+02 -0.13168000320E+02  0.25239581172E+02  0.51100000000E-03 0.  1.
         12    1    3    3    0    0  0.66826272538E+00  0.18557911437E+01 -0.42787435054E+01  0.47114946486E+01  0.00000000000E+00 0. -1.
</event>
<event>
 7    1  0.1322363E-009  0.4778728E+02  0.7816164E-02  0.1312668E+00
        -11   -1    0    0    0    0  0.00000000000E+00  0.00000000000E+00  0.45593999997E+02  0.45594000000E+02  0.51100000000E-03 0.  1.
         11   -1    0    0    0    0 -0.00000000000E+00 -0.00000000000E+00 -0.45593999997E+02  0.45594000000E+02  0.51100000000E-03 0. -1.
    9900012    2    1    2    0    0 -0.13060738421E+01 -0.37879488962E+02 -0.21143825782E+02  0.47787275564E+02  0.20000020606E+02 0.  0.
        -12    1    1    2    0    0  0.13060738421E+01  0.37879488962E+02  0.21143825782E+02  0.43400724436E+02  0.00000000000E+00 0.  1.
         11    1    3    3    0    0 -0.12657661330E+01 -0.33183184947E+01  0.18547818120E+01  0.40066965653E+01  0.51100000000E-03 0. -1.
        -11    1    3    3    0    0  0.75789660641E+00  0.12062560854E+01 -0.46184784927E+00  0.14975862935E+01  0.51100000000E-03 0.  1.
         12    1    3    3    0    0 -0.79820431550E+00 -0.35767426552E+02 -0.22536759745E+02  0.42282992705E+02  0.00000000000E+00 0. -1.
</event>
<event>
 7    1  0.1322363E-009  0.4778727E+02  0.7816164E-02  0.1312668E+00
        -11   -1    0    0    0    0  0.00000000000E+00  0.00000000000E+00  0.45593999997E+02  0.45594000000E+02  0.51100000000E-03 0.  1.
         11   -1    0    0    0    0 -0.00000000000E+00 -0.00000000000E+00 -0.45593999997E+02  0.45594000000E+02  0.51100000000E-03 0. -1.
    9900012    2    1    2    0    0 -0.37905962225E+02  0.20018472855E+02  0.67839568292E+01  0.47787270767E+02  0.19999998736E+02 0.  0.
        -12    1    1    2    0    0  0.37905962225E+02 -0.20018472855E+02 -0.67839568292E+01  0.43400729233E+02  0.00000000000E+00 0.  1.
         11    1    3    3    0    0 -0.20057886757E+02  0.10776088804E+02 -0.35320698050E+00  0.22772080856E+02  0.51100000000E-03 0. -1.
        -11    1    3    3    0    0 -0.16477215523E+02  0.88562892274E+01  0.10437024572E+02  0.21421110439E+02  0.51100000000E-03 0.  1.
         12    1    3    3    0    0 -0.13708599451E+01  0.38609482372E+00 -0.32998607623E+01  0.35940794722E+01  0.00000000000E+00 0. -1.
</event>
<event>
 7    1  0.1322363E-009  0.4778727E+02  0.7816164E-02  0.1312668E+00
        -11   -1    0    0    0    0  0.00000000000E+00  0.00000000000E+00  0.45593999997E+02  0.45594000000E+02  0.51100000000E-03 0. -1.
         11   -1    0    0    0    0 -0.00000000000E+00 -0.00000000000E+00 -0.45593999997E+02  0.45594000000E+02  0.51100000000E-03 0.  1.
    9900012    2    1    2    0    0  0.17571042948E+02 -0.36988154919E+02  0.14379075760E+02  0.47787274496E+02  0.20000015737E+02 0.  0.
        -12    1    1    2    0    0 -0.17571042948E+02  0.36988154919E+02 -0.14379075760E+02  0.43400725504E+02  0.00000000000E+00 0.  1.
         11    1    3    3    0    0  0.60259522703E+01 -0.17043802183E+02  0.13036842731E+02  0.22288170905E+02  0.51100000000E-03 0. -1.
        -11    1    3    3    0    0  0.13105485039E+02 -0.19036059621E+02  0.26601844297E+01  0.23263746161E+02  0.51100000000E-03 0.  1.
         12    1    3    3    0    0 -0.15603943613E+01 -0.90829311482E+00 -0.13179514009E+01  0.22353574301E+01  0.00000000000E+00 0. -1.
</event>
<event>
 7    1  0.1322363E-009  0.4778728E+02  0.7816164E-02  0.1312668E+00
        -11   -1    0    0    0    0  0.00000000000E+00  0.00000000000E+00  0.45593999997E+02  0.45594000000E+02  0.51100000000E-03 0.  1.
         11   -1    0    0    0    0 -0.00000000000E+00 -0.00000000000E+00 -0.45593999997E+02  0.45594000000E+02  0.51100000000E-03 0. -1.
    9900012    2    1    2    0    0  0.41122770147E+02 -0.79757082638E+01 -0.11354680288E+02  0.47787275221E+02  0.20000019043E+02 0.  0.
        -12    1    1    2    0    0 -0.41122770147E+02  0.79757082638E+01  0.11354680288E+02  0.43400724779E+02  0.00000000000E+00 0.  1.
         11    1    3    3    0    0  0.27214477449E+01  0.14103428873E+01  0.26189756754E+01  0.40316719532E+01  0.51100000000E-03 0. -1.
        -11    1    3    3    0    0  0.11951112005E+02 -0.85982213422E+01 -0.74549559535E+01  0.16502571222E+02  0.51100000000E-03 0.  1.
         12    1    3    3    0    0  0.26450210397E+02 -0.78782980888E+00 -0.65187000096E+01  0.27253032046E+02  0.00000000000E+00 0. -1.
</event>
<event>
 7    1  0.1322363E-009  0.4778727E+02  0.7816164E-02  0.1312668E+00
        -11   -1    0    0    0    0  0.00000000000E+00  0.00000000000E+00  0.45593999997E+02  0.45594000000E+02  0.51100000000E-03 0.  1.
         11   -1    0    0    0    0 -0.00000000000E+00 -0.00000000000E+00 -0.45593999997E+02  0.45594000000E+02  0.51100000000E-03 0. -1.
    9900012    2    1    2    0    0 -0.18830108488E+02  0.37942903585E+02 -0.94544342195E+01  0.47787271382E+02  0.20000001539E+02 0.  0.
        -12    1    1    2    0    0  0.18830108488E+02 -0.37942903585E+02  0.94544342195E+01  0.43400728618E+02  0.00000000000E+00 0.  1.
         11    1    3    3    0    0 -0.50705063910E+01  0.19755030035E+02 -0.93307071979E+01  0.22428404843E+02  0.51100000000E-03 0. -1.
        -11    1    3    3    0    0 -0.62545433863E+01  0.15661567615E+02  0.24299486437E+01  0.17038446637E+02  0.51100000000E-03 0.  1.
         12    1    3    3    0    0 -0.75050587108E+01  0.25263059352E+01 -0.25536756653E+01  0.83204199013E+01  0.00000000000E+00 0. -1.
</event>
<event>
 7    1  0.1322363E-009  0.4778727E+02  0.7816164E-02  0.1312668E+00
        -11   -1    0    0    0    0  0.00000000000E+00  0.00000000000E+00  0.45593999997E+02  0.45594000000E+02  0.51100000000E-03 0.  1.
         11   -1    0    0    0    0 -0.00000000000E+00 -0.00000000000E+00 -0.45593999997E+02  0.45594000000E+02  0.51100000000E-03 0. -1.
    9900012    2    1    2    0    0  0.18481085027E+02 -0.39184430347E+02  0.25793907343E+01  0.47787270260E+02  0.19999996425E+02 0.  0.
        -12    1    1    2    0    0 -0.18481085027E+02  0.39184430347E+02 -0.25793907343E+01  0.43400729740E+02  0.00000000000E+00 0.  1.
         11    1    3    3    0    0  0.25436829305E+01 -0.17509612033E+02 -0.40631530479E+01  0.18153954097E+02  0.51100000000E-03 0. -1.
        -11    1    3    3    0    0  0.10727181001E+02 -0.21054990794E+02  0.52975047071E+01  0.24216700972E+02  0.51100000000E-03 0.  1.
        -12    1    3    3    0    0  0.52102210956E+01 -0.61982751923E+00  0.13450390751E+01  0.54166151914E+01  0.00000000000E+00 0.  1.
</event>
<event>
 7    1  0.1322363E-009  0.4778728E+02  0.7816164E-02  0.1312668E+00
        -11   -1    0    0    0    0  0.00000000000E+00  0.00000000000E+00  0.45593999997E+02  0.45594000000E+02  0.51100000000E-03 0. -1.
         11   -1    0    0    0    0 -0.00000000000E+00 -0.00000000000E+00 -0.45593999997E+02  0.45594000000E+02  0.51100000000E-03 0.  1.
    9900012    2    1    2    0    0 -0.15278982558E+02  0.33547137176E+02  0.22907736751E+02  0.47787284295E+02  0.20000060413E+02 0.  0.
        -12    1    1    2    0    0  0.15278982558E+02 -0.33547137176E+02 -0.22907736751E+02  0.43400715705E+02  0.00000000000E+00 0.  1.
         11    1    3    3    0    0 -0.22852478874E+01  0.23652880727E+02  0.13121464042E+02  0.27145053757E+02  0.51100000000E-03 0. -1.
        -11    1    3    3    0    0 -0.90325910660E+01  0.81496106088E+01  0.28965958603E+01  0.12505763562E+02  0.51100000000E-03 0.  1.
         12    1    3    3    0    0 -0.39611436044E+01  0.17446458397E+01  0.68896768487E+01  0.81364669753E+01  0.00000000000E+00 0. -1.
</event>
<event>
 7    1  0.1322363E-009  0.4778727E+02  0.7816164E-02  0.1312668E+00
        -11   -1    0    0    0    0  0.00000000000E+00  0.00000000000E+00  0.45593999997E+02  0.45594000000E+02  0.51100000000E-03 0. -1.
         11   -1    0    0    0    0 -0.00000000000E+00 -0.00000000000E+00 -0.45593999997E+02  0.45594000000E+02  0.51100000000E-03 0.  1.
    9900012    2    1    2    0    0 -0.17946135848E+02  0.28139061632E+02  0.27744419465E+02  0.47787269674E+02  0.19999993751E+02 0.  0.
        -12    1    1    2    0    0  0.17946135848E+02 -0.28139061632E+02 -0.27744419465E+02  0.43400730326E+02  0.00000000000E+00 0.  1.
         11    1    3    3    0    0 -0.30222713766E+01 -0.82362163000E+00  0.65589926465E+00  0.32004188741E+01  0.51100000000E-03 0.  1.
        -11    1    3    3    0    0  0.23564331242E+01  0.12484241135E+01  0.12677383925E+01  0.29527107425E+01  0.51100000000E-03 0. -1.
         12    1    3    3    0    0 -0.17280297595E+02  0.27714259149E+02  0.25820781808E+02  0.41634140057E+02  0.00000000000E+00 0. -1.
</event>
<event>
 7    1  0.1322363E-009  0.4778726E+02  0.7816164E-02  0.1312668E+00
        -11   -1    0    0    0    0  0.00000000000E+00  0.00000000000E+00  0.45593999997E+02  0.45594000000E+02  0.51100000000E-03 0.  1.
         11   -1    0    0    0    0 -0.00000000000E+00 -0.00000000000E+00 -0.45593999997E+02  0.45594000000E+02  0.51100000000E-03 0. -1.
    9900012    2    1    2    0    0 -0.27859789386E+02 -0.69986274433E+01 -0.32534225345E+02  0.47787257270E+02  0.19999937196E+02 0.  0.
        -12    1    1    2    0    0  0.27859789386E+02  0.69986274433E+01  0.32534225345E+02  0.43400742730E+02  0.00000000000E+00 0.  1.
         11    1    3    3    0    0 -0.12915528025E+02 -0.16099965396E+00 -0.46512483396E+01  0.13728470287E+02  0.51100000000E-03 0.  1.
        -11    1    3    3    0    0 -0.17014521502E+01 -0.60106765553E+01 -0.78917525467E+01  0.10064935697E+02  0.51100000000E-03 0. -1.
        -12    1    3    3    0    0 -0.13242809211E+02 -0.82695123403E+00 -0.19991224459E+02  0.23993851285E+02  0.00000000000E+00 0.  1.
</event>
<event>
 7    1  0.1322363E-009  0.4778727E+02  0.7816164E-02  0.1312668E+00
        -11   -1    0    0    0    0  0.00000000000E+00  0.00000000000E+00  0.45593999997E+02  0.45594000000E+02  0.51100000000E-03 0.  1.
         11   -1    0    0    0    0 -0.00000000000E+00 -0.00000000000E+00 -0.45593999997E+02  0.45594000000E+02  0.51100000000E-03 0. -1.
    9900012    2    1    2    0    0  0.86285261183E+01  0.41816486300E+02 -0.77816052168E+01  0.47787269947E+02  0.19999994994E+02 0.  0.
        -12    1    1    2    0    0 -0.86285261183E+01 -0.41816486300E+02  0.77816052168E+01  0.43400730053E+02  0.00000000000E+00 0.  1.
         11    1    3    3    0    0  0.18304520603E+01  0.21169629709E+02 -0.12280921434E+02  0.24542306499E+02  0.51100000000E-03 0. -1.
        -11    1    3    3    0    0  0.97995038584E+00  0.19101376288E+01  0.28337347957E+01  0.35551345506E+01  0.51100000000E-03 0.  1.
        -12    1    3    3    0    0  0.58181236721E+01  0.18736718962E+02  0.16655814213E+01  0.19689828897E+02  0.00000000000E+00 0.  1.
</event>
<event>
 7    1  0.1322363E-009  0.4778727E+02  0.7816164E-02  0.1312668E+00
        -11   -1    0    0    0    0  0.00000000000E+00  0.00000000000E+00  0.45593999997E+02  0.45594000000E+02  0.51100000000E-03 0. -1.
         11   -1    0    0    0    0 -0.00000000000E+00 -0.00000000000E+00 -0.45593999997E+02  0.45594000000E+02  0.51100000000E-03 0.  1.
    9900012    2    1    2    0    0  0.77623245177E+01  0.21988166867E+02  0.36604506882E+02  0.47787273184E+02  0.20000009756E+02 0.  0.
        -12    1    1    2    0    0 -0.77623245177E+01 -0.21988166867E+02 -0.36604506882E+02  0.43400726816E+02  0.00000000000E+00 0.  1.
         11    1    3    3    0    0 -0.10569775884E+01  0.29917048121E+01  0.16999165715E+02  0.17292748034E+02  0.51100000000E-03 0. -1.
        -11    1    3    3    0    0  0.13506231460E+01  0.39505109403E+01 -0.60090121397E+00  0.42180329660E+01  0.51100000000E-03 0.  1.
        -12    1    3    3    0    0  0.74686789601E+01  0.15045951114E+02  0.20206242381E+02  0.26276492184E+02  0.00000000000E+00 0.  1.
</event>
<event>
 7    1  0.1322363E-009  0.4778727E+02  0.7816164E-02  0.1312668E+00
        -11   -1    0    0    0    0  0.00000000000E+00  0.00000000000E+00  0.45593999997E+02  0.45594000000E+02  0.51100000000E-03 0.  1.
         11   -1    0    0    0    0 -0.00000000000E+00 -0.00000000000E+00 -0.45593999997E+02  0.45594000000E+02  0.51100000000E-03 0. -1.
    9900012    2    1    2    0    0 -0.16020031183E+02 -0.35609010283E+02 -0.18946783613E+02  0.47787267037E+02  0.19999981729E+02 0.  0.
        -12    1    1    2    0    0  0.16020031183E+02  0.35609010283E+02  0.18946783613E+02  0.43400732963E+02  0.00000000000E+00 0.  1.
         11    1    3    3    0    0 -0.14516904380E+01 -0.16430382840E+02 -0.87516805540E+01  0.18672353847E+02  0.51100000000E-03 0. -1.
        -11    1    3    3    0    0 -0.33901294015E+01  0.45736670867E+00  0.14266990164E+01  0.37064311689E+01  0.51100000000E-03 0.  1.
         12    1    3    3    0    0 -0.11178211343E+02 -0.19635994151E+02 -0.11621802076E+02  0.25408482022E+02  0.00000000000E+00 0. -1.
</event>
<event>
 7    1  0.1322363E-009  0.4778727E+02  0.7816164E-02  0.1312668E+00
        -11   -1    0    0    0    0  0.00000000000E+00  0.00000000000E+00  0.45593999997E+02  0.45594000000E+02  0.51100000000E-03 0.  1.
         11   -1    0    0    0    0 -0.00000000000E+00 -0.00000000000E+00 -0.45593999997E+02  0.45594000000E+02  0.51100000000E-03 0. -1.
    9900012    2    1    2    0    0 -0.11486187870E+01 -0.33979428644E+02 -0.26975964151E+02  0.47787268002E+02  0.19999986128E+02 0.  0.
        -12    1    1    2    0    0  0.11486187870E+01  0.33979428644E+02  0.26975964151E+02  0.43400731998E+02  0.00000000000E+00 0.  1.
         11    1    3    3    0    0 -0.27477136677E+01 -0.67940877679E+01 -0.53244553973E+01  0.90586635072E+01  0.51100000000E-03 0. -1.
        -11    1    3    3    0    0 -0.72471995414E+01 -0.14887694491E+02 -0.82350666196E+01  0.18492746441E+02  0.51100000000E-03 0.  1.
         12    1    3    3    0    0  0.88462944222E+01 -0.12297646385E+02 -0.13416442134E+02  0.20235858054E+02  0.00000000000E+00 0. -1.
</event>
<event>
 7    1  0.1322363E-009  0.4778728E+02  0.7816164E-02  0.1312668E+00
        -11   -1    0    0    0    0  0.00000000000E+00  0.00000000000E+00  0.45593999997E+02  0.45594000000E+02  0.51100000000E-03 0.  1.
         11   -1    0    0    0    0 -0.00000000000E+00 -0.00000000000E+00 -0.45593999997E+02  0.45594000000E+02  0.51100000000E-03 0. -1.
    9900012    2    1    2    0    0 -0.30701403778E+02 -0.48553324564E+01 -0.30289801346E+02  0.47787279813E+02  0.20000039977E+02 0.  0.
        -12    1    1    2    0    0  0.30701403778E+02  0.48553324564E+01  0.30289801346E+02  0.43400720187E+02  0.00000000000E+00 0.  1.
         11    1    3    3    0    0 -0.10585394750E+02 -0.50149763405E+01 -0.12626477264E+02  0.17222906203E+02  0.51100000000E-03 0. -1.
        -11    1    3    3    0    0 -0.11304049947E+02 -0.72237323768E+01 -0.10285740719E+02  0.16904446666E+02  0.51100000000E-03 0.  1.
        -12    1    3    3    0    0 -0.88119590803E+01  0.73833762608E+01 -0.73775833633E+01  0.13659926944E+02  0.00000000000E+00 0.  1.
</event>
<event>
 7    1  0.1322363E-009  0.4778727E+02  0.7816164E-02  0.1312668E+00
        -11   -1    0    0    0    0  0.00000000000E+00  0.00000000000E+00  0.45593999997E+02  0.45594000000E+02  0.51100000000E-03 0. -1.
         11   -1    0    0    0    0 -0.00000000000E+00 -0.00000000000E+00 -0.45593999997E+02  0.45594000000E+02  0.51100000000E-03 0.  1.
    9900012    2    1    2    0    0  0.22271026285E+02  0.29155287677E+02  0.23186071337E+02  0.47787270566E+02  0.19999997820E+02 0.  0.
        -12    1    1    2    0    0 -0.22271026285E+02 -0.29155287677E+02 -0.23186071337E+02  0.43400729434E+02  0.00000000000E+00 0.  1.
         11    1    3    3    0    0  0.11996409991E+02  0.22005636628E+02  0.18965187323E+02  0.31429925653E+02  0.51100000000E-03 0. -1.
        -11    1    3    3    0    0  0.32205835972E+01  0.69156579250E+01 -0.83651934402E+00  0.76745194062E+01  0.51100000000E-03 0.  1.
        -12    1    3    3    0    0  0.70540326970E+01  0.23399312467E+00  0.50574033578E+01  0.86828255076E+01  0.00000000000E+00 0.  1.
</event>
<event>
 7    1  0.1322363E-009  0.4778727E+02  0.7816164E-02  0.1312668E+00
        -11   -1    0    0    0    0  0.00000000000E+00  0.00000000000E+00  0.45593999997E+02  0.45594000000E+02  0.51100000000E-03 0. -1.
         11   -1    0    0    0    0 -0.00000000000E+00 -0.00000000000E+00 -0.45593999997E+02  0.45594000000E+02  0.51100000000E-03 0.  1.
    9900012    2    1    2    0    0  0.33488646919E+02 -0.24819491229E+02  0.12088306075E+02  0.47787265431E+02  0.19999974407E+02 0.  0.
        -12    1    1    2    0    0 -0.33488646919E+02  0.24819491229E+02 -0.12088306075E+02  0.43400734569E+02  0.00000000000E+00 0.  1.
         11    1    3    3    0    0  0.11655078772E+02 -0.43554398228E+01  0.96767937029E+01  0.15762330217E+02  0.51100000000E-03 0. -1.
        -11    1    3    3    0    0  0.11352453054E+02 -0.40429798224E+01 -0.15351616356E+01  0.12148275503E+02  0.51100000000E-03 0.  1.
         12    1    3    3    0    0  0.10481115093E+02 -0.16421071584E+02  0.39466740074E+01  0.19876659711E+02  0.00000000000E+00 0. -1.
</event>
<event>
 7    1  0.1322363E-009  0.4778727E+02  0.7816164E-02  0.1312668E+00
        -11   -1    0    0    0    0  0.00000000000E+00  0.00000000000E+00  0.45593999997E+02  0.45594000000E+02  0.51100000000E-03 0.  1.
         11   -1    0    0    0    0 -0.00000000000E+00 -0.00000000000E+00 -0.45593999997E+02  0.45594000000E+02  0.51100000000E-03 0. -1.
    9900012    2    1    2    0    0 -0.25685769521E+01 -0.34816577085E+02 -0.25784328186E+02  0.47787271810E+02  0.20000003489E+02 0.  0.
        -12    1    1    2    0    0  0.25685769521E+01  0.34816577085E+02  0.25784328186E+02  0.43400728190E+02  0.00000000000E+00 0.  1.
         11    1    3    3    0    0  0.54486489147E+01 -0.20669273253E+02 -0.70347762923E+01  0.22503215538E+02  0.51100000000E-03 0. -1.
        -11    1    3    3    0    0 -0.34387965217E+01 -0.86454121598E+01 -0.75010431130E+01  0.11951322980E+02  0.51100000000E-03 0.  1.
         12    1    3    3    0    0 -0.45784293451E+01 -0.55018916719E+01 -0.11248508781E+02  0.13332733291E+02  0.00000000000E+00 0. -1.
</event>
<event>
 7    1  0.1322363E-009  0.4778727E+02  0.7816164E-02  0.1312668E+00
        -11   -1    0    0    0    0  0.00000000000E+00  0.00000000000E+00  0.45593999997E+02  0.45594000000E+02  0.51100000000E-03 0.  1.
         11   -1    0    0    0    0 -0.00000000000E+00 -0.00000000000E+00 -0.45593999997E+02  0.45594000000E+02  0.51100000000E-03 0. -1.
    9900012    2    1    2    0    0 -0.76274772425E+01  0.41707840920E+02 -0.92682978119E+01  0.47787265587E+02  0.19999975116E+02 0.  0.
        -12    1    1    2    0    0  0.76274772425E+01 -0.41707840920E+02  0.92682978119E+01  0.43400734413E+02  0.00000000000E+00 0.  1.
         11    1    3    3    0    0 -0.21872468671E+01  0.27178266129E+02 -0.96411176573E+01  0.28920465913E+02  0.51100000000E-03 0. -1.
        -11    1    3    3    0    0  0.29070643469E+01  0.64070092048E+01  0.14033206931E+01  0.71742664640E+01  0.51100000000E-03 0.  1.
         12    1    3    3    0    0 -0.83472947224E+01  0.81225655855E+01 -0.10305008477E+01  0.11692533210E+02  0.00000000000E+00 0. -1.
</event>
<event>
 7    1  0.1322363E-009  0.4778727E+02  0.7816164E-02  0.1312668E+00
        -11   -1    0    0    0    0  0.00000000000E+00  0.00000000000E+00  0.45593999997E+02  0.45594000000E+02  0.51100000000E-03 0. -1.
         11   -1    0    0    0    0 -0.00000000000E+00 -0.00000000000E+00 -0.45593999997E+02  0.45594000000E+02  0.51100000000E-03 0.  1.
    9900012    2    1    2    0    0  0.48995456797E+01  0.13825859342E+01  0.43101117158E+02  0.47787269684E+02  0.19999993795E+02 0.  0.
        -12    1    1    2    0    0 -0.48995456797E+01 -0.13825859342E+01 -0.43101117158E+02  0.43400730316E+02  0.00000000000E+00 0.  1.
         11    1    3    3    0    0  0.61852502696E+01 -0.62958427213E+01  0.15367227366E+02  0.17721360943E+02  0.51100000000E-03 0. -1.
        -11    1    3    3    0    0 -0.36499802981E+01  0.11808950054E+00  0.98931561533E+01  0.10545655041E+02  0.51100000000E-03 0.  1.
         12    1    3    3    0    0  0.23642757081E+01  0.75603391549E+01  0.17840733638E+02  0.19520253700E+02  0.00000000000E+00 0. -1.
</event>
<event>
 7    1  0.1322363E-009  0.4778727E+02  0.7816164E-02  0.1312668E+00
        -11   -1    0    0    0    0  0.00000000000E+00  0.00000000000E+00  0.45593999997E+02  0.45594000000E+02  0.51100000000E-03 0.  1.
         11   -1    0    0    0    0 -0.00000000000E+00 -0.00000000000E+00 -0.45593999997E+02  0.45594000000E+02  0.51100000000E-03 0. -1.
    9900012    2    1    2    0    0 -0.17437053963E+02 -0.20889438666E+02 -0.33811296522E+02  0.47787271075E+02  0.20000000140E+02 0.  0.
        -12    1    1    2    0    0  0.17437053963E+02  0.20889438666E+02  0.33811296522E+02  0.43400728925E+02  0.00000000000E+00 0.  1.
         11    1    3    3    0    0 -0.54031561864E+01 -0.10902276363E+02 -0.10602977682E+02  0.16139295605E+02  0.51100000000E-03 0. -1.
        -11    1    3    3    0    0 -0.58301586636E+01  0.21255520455E-01 -0.17723974684E+02  0.18658255028E+02  0.51100000000E-03 0.  1.
         12    1    3    3    0    0 -0.62037391129E+01 -0.10008417824E+02 -0.54843441569E+01  0.12989720442E+02  0.00000000000E+00 0. -1.
</event>
<event>
 7    1  0.1322363E-009  0.4778727E+02  0.7816164E-02  0.1312668E+00
        -11   -1    0    0    0    0  0.00000000000E+00  0.00000000000E+00  0.45593999997E+02  0.45594000000E+02  0.51100000000E-03 0.  1.
         11   -1    0    0    0    0 -0.00000000000E+00 -0.00000000000E+00 -0.45593999997E+02  0.45594000000E+02  0.51100000000E-03 0. -1.
    9900012    2    1    2    0    0 -0.30116262724E+02 -0.18682308456E+02 -0.25052053419E+02  0.47787270626E+02  0.19999998092E+02 0.  0.
        -12    1    1    2    0    0  0.30116262724E+02  0.18682308456E+02  0.25052053419E+02  0.43400729374E+02  0.00000000000E+00 0.  1.
         11    1    3    3    0    0 -0.23974120623E+01 -0.28562385877E+01 -0.88355523564E+01  0.95902382228E+01  0.51100000000E-03 0.  1.
        -11    1    3    3    0    0 -0.19107560542E+02 -0.17320070873E+02 -0.13032879919E+02  0.28895322878E+02  0.51100000000E-03 0. -1.
         12    1    3    3    0    0 -0.86112901189E+01  0.14940010051E+01 -0.31836211433E+01  0.93017095257E+01  0.00000000000E+00 0. -1.
</event>
<event>
 7    1  0.1322363E-009  0.4778727E+02  0.7816164E-02  0.1312668E+00
        -11   -1    0    0    0    0  0.00000000000E+00  0.00000000000E+00  0.45593999997E+02  0.45594000000E+02  0.51100000000E-03 0. -1.
         11   -1    0    0    0    0 -0.00000000000E+00 -0.00000000000E+00 -0.45593999997E+02  0.45594000000E+02  0.51100000000E-03 0.  1.
    9900012    2    1    2    0    0  0.22130652174E+02  0.26385984204E+02  0.26412827044E+02  0.47787270046E+02  0.19999995448E+02 0.  0.
        -12    1    1    2    0    0 -0.22130652174E+02 -0.26385984204E+02 -0.26412827044E+02  0.43400729954E+02  0.00000000000E+00 0.  1.
         11    1    3    3    0    0  0.14777393338E+02  0.11974889636E+02  0.67632398675E+01  0.20186895488E+02  0.51100000000E-03 0. -1.
        -11    1    3    3    0    0 -0.75433531529E+00  0.61529605109E+01  0.20355108496E+01  0.65246647037E+01  0.51100000000E-03 0.  1.
        -12    1    3    3    0    0  0.81075941517E+01  0.82581340573E+01  0.17614076327E+02  0.21075709855E+02  0.00000000000E+00 0.  1.
</event>
<event>
 7    1  0.1322363E-009  0.4778728E+02  0.7816164E-02  0.1312668E+00
        -11   -1    0    0    0    0  0.00000000000E+00  0.00000000000E+00  0.45593999997E+02  0.45594000000E+02  0.51100000000E-03 0.  1.
         11   -1    0    0    0    0 -0.00000000000E+00 -0.00000000000E+00 -0.45593999997E+02  0.45594000000E+02  0.51100000000E-03 0. -1.
    9900012    2    1    2    0    0  0.29284129121E+02 -0.21708367681E+02 -0.23554384694E+02  0.47787280144E+02  0.20000041487E+02 0.  0.
        -12    1    1    2    0    0 -0.29284129121E+02  0.21708367681E+02  0.23554384694E+02  0.43400719856E+02  0.00000000000E+00 0.  1.
         11    1    3    3    0    0 -0.11804959056E+00  0.15201263014E+01 -0.18439789533E+01  0.23926926922E+01  0.51100000000E-03 0.  1.
        -11    1    3    3    0    0  0.17151160527E+02 -0.18836977567E+02 -0.19747909257E+02  0.32233118862E+02  0.51100000000E-03 0. -1.
         12    1    3    3    0    0  0.12251018185E+02 -0.43915164160E+01 -0.19624964835E+01  0.13161468590E+02  0.00000000000E+00 0. -1.
</event>
<event>
 7    1  0.1322363E-009  0.4778727E+02  0.7816164E-02  0.1312668E+00
        -11   -1    0    0    0    0  0.00000000000E+00  0.00000000000E+00  0.45593999997E+02  0.45594000000E+02  0.51100000000E-03 0.  1.
         11   -1    0    0    0    0 -0.00000000000E+00 -0.00000000000E+00 -0.45593999997E+02  0.45594000000E+02  0.51100000000E-03 0. -1.
    9900012    2    1    2    0    0 -0.20822647658E+02 -0.18629863053E+02 -0.33210975757E+02  0.47787270011E+02  0.19999995286E+02 0.  0.
        -12    1    1    2    0    0  0.20822647658E+02  0.18629863053E+02  0.33210975757E+02  0.43400729989E+02  0.00000000000E+00 0.  1.
         11    1    3    3    0    0  0.26327740152E+00 -0.11076961089E+01 -0.76580436988E+01  0.77422179777E+01  0.51100000000E-03 0. -1.
        -11    1    3    3    0    0 -0.13005586778E+02 -0.18444889852E+02 -0.20361280607E+02  0.30396397769E+02  0.51100000000E-03 0.  1.
        -12    1    3    3    0    0 -0.80803382816E+01  0.92272290858E+00 -0.51916514519E+01  0.96486542642E+01  0.00000000000E+00 0.  1.
</event>
<event>
 7    1  0.1322363E-009  0.4778727E+02  0.7816164E-02  0.1312668E+00
        -11   -1    0    0    0    0  0.00000000000E+00  0.00000000000E+00  0.45593999997E+02  0.45594000000E+02  0.51100000000E-03 0.  1.
         11   -1    0    0    0    0 -0.00000000000E+00 -0.00000000000E+00 -0.45593999997E+02  0.45594000000E+02  0.51100000000E-03 0. -1.
    9900012    2    1    2    0    0  0.38533188496E+02 -0.12976296078E+02 -0.15180005949E+02  0.47787268944E+02  0.19999990424E+02 0.  0.
        -12    1    1    2    0    0 -0.38533188496E+02  0.12976296078E+02  0.15180005949E+02  0.43400731056E+02  0.00000000000E+00 0.  1.
         11    1    3    3    0    0  0.58580804036E+01 -0.82672282711E+00 -0.55481780022E+01  0.81106631081E+01  0.51100000000E-03 0. -1.
        -11    1    3    3    0    0  0.20012191959E+02 -0.40777402868E+01  0.22235116797E+01  0.20544093976E+02  0.51100000000E-03 0.  1.
        -12    1    3    3    0    0  0.12662916133E+02 -0.80718329643E+01 -0.11855339627E+02  0.19132511860E+02  0.00000000000E+00 0.  1.
</event>
<event>
 7    1  0.1322363E-009  0.4778727E+02  0.7816164E-02  0.1312668E+00
        -11   -1    0    0    0    0  0.00000000000E+00  0.00000000000E+00  0.45593999997E+02  0.45594000000E+02  0.51100000000E-03 0.  1.
         11   -1    0    0    0    0 -0.00000000000E+00 -0.00000000000E+00 -0.45593999997E+02  0.45594000000E+02  0.51100000000E-03 0. -1.
    9900012    2    1    2    0    0  0.27622196006E+02  0.20991300231E+02 -0.26076864186E+02  0.47787271396E+02  0.20000001603E+02 0.  0.
        -12    1    1    2    0    0 -0.27622196006E+02 -0.20991300231E+02  0.26076864186E+02  0.43400728604E+02  0.00000000000E+00 0.  1.
         11    1    3    3    0    0  0.62458894514E+01  0.12749228744E+02 -0.57754409442E+01  0.15326763748E+02  0.51100000000E-03 0. -1.
        -11    1    3    3    0    0  0.16144427952E+02  0.60971344778E+01 -0.82068900075E+01  0.19109438678E+02  0.51100000000E-03 0.  1.
        -12    1    3    3    0    0  0.52318786025E+01  0.21449370087E+01 -0.12094533234E+02  0.13351068970E+02  0.00000000000E+00 0.  1.
</event>
<event>
 7    1  0.1322363E-009  0.4778726E+02  0.7816164E-02  0.1312668E+00
        -11   -1    0    0    0    0  0.00000000000E+00  0.00000000000E+00  0.45593999997E+02  0.45594000000E+02  0.51100000000E-03 0. -1.
         11   -1    0    0    0    0 -0.00000000000E+00 -0.00000000000E+00 -0.45593999997E+02  0.45594000000E+02  0.51100000000E-03 0.  1.
    9900012    2    1    2    0    0  0.42024541289E+02  0.10736873012E+02  0.15104142985E+01  0.47787264246E+02  0.19999969003E+02 0.  0.
        -12    1    1    2    0    0 -0.42024541289E+02 -0.10736873012E+02 -0.15104142985E+01  0.43400735754E+02  0.00000000000E+00 0.  1.
         11    1    3    3    0    0  0.79566228071E+01  0.28867614850E+01 -0.30010255689E+01  0.89803893619E+01  0.51100000000E-03 0. -1.
        -11    1    3    3    0    0  0.12897386444E+02 -0.45478014477E+01  0.40728576257E+01  0.14269311287E+02  0.51100000000E-03 0.  1.
         12    1    3    3    0    0  0.21170532038E+02  0.12397912975E+02  0.43858224168E+00  0.24537563597E+02  0.00000000000E+00 0. -1.
</event>
<event>
 7    1  0.1322363E-009  0.4778727E+02  0.7816164E-02  0.1312668E+00
        -11   -1    0    0    0    0  0.00000000000E+00  0.00000000000E+00  0.45593999997E+02  0.45594000000E+02  0.51100000000E-03 0. -1.
         11   -1    0    0    0    0 -0.00000000000E+00 -0.00000000000E+00 -0.45593999997E+02  0.45594000000E+02  0.51100000000E-03 0.  1.
    9900012    2    1    2    0    0  0.10209594933E+02 -0.26085543345E+02  0.33150138151E+02  0.47787273511E+02  0.20000011248E+02 0.  0.
        -12    1    1    2    0    0 -0.10209594933E+02  0.26085543345E+02 -0.33150138151E+02  0.43400726489E+02  0.00000000000E+00 0.  1.
         11    1    3    3    0    0  0.11566338965E+02 -0.96650895817E+01  0.14690747305E+02  0.21047855242E+02  0.51100000000E-03 0. -1.
        -11    1    3    3    0    0  0.10961628559E+01 -0.93205769982E+00 -0.99680436712E+00  0.17504067441E+01  0.51100000000E-03 0.  1.
         12    1    3    3    0    0 -0.24529068873E+01 -0.15488396064E+02  0.19456195213E+02  0.24989011525E+02  0.00000000000E+00 0. -1.
</event>
<event>
 7    1  0.1322363E-009  0.4778729E+02  0.7816164E-02  0.1312668E+00
        -11   -1    0    0    0    0  0.00000000000E+00  0.00000000000E+00  0.45593999997E+02  0.45594000000E+02  0.51100000000E-03 0. -1.
         11   -1    0    0    0    0 -0.00000000000E+00 -0.00000000000E+00 -0.45593999997E+02  0.45594000000E+02  0.51100000000E-03 0.  1.
    9900012    2    1    2    0    0  0.39698479246E+01  0.42166647033E+02  0.94781879542E+01  0.47787287317E+02  0.20000074191E+02 0.  0.
        -12    1    1    2    0    0 -0.39698479246E+01 -0.42166647033E+02 -0.94781879542E+01  0.43400712683E+02  0.00000000000E+00 0.  1.
         11    1    3    3    0    0  0.92488953930E+01  0.21301939369E+02  0.22370843793E+01  0.23330650091E+02  0.51100000000E-03 0. -1.
        -11    1    3    3    0    0  0.23703350674E+01  0.72421630437E+01  0.35328124777E+01  0.83992962889E+01  0.51100000000E-03 0.  1.
        -12    1    3    3    0    0 -0.76493825358E+01  0.13622544620E+02  0.37082910971E+01  0.16057340937E+02  0.00000000000E+00 0.  1.
</event>
<event>
 7    1  0.1322363E-009  0.4778727E+02  0.7816164E-02  0.1312668E+00
        -11   -1    0    0    0    0  0.00000000000E+00  0.00000000000E+00  0.45593999997E+02  0.45594000000E+02  0.51100000000E-03 0.  1.
         11   -1    0    0    0    0 -0.00000000000E+00 -0.00000000000E+00 -0.45593999997E+02  0.45594000000E+02  0.51100000000E-03 0. -1.
    9900012    2    1    2    0    0  0.41362146892E+02 -0.12538316372E+02 -0.39479646017E+01  0.47787274229E+02  0.20000014518E+02 0.  0.
        -12    1    1    2    0    0 -0.41362146892E+02  0.12538316372E+02  0.39479646017E+01  0.43400725771E+02  0.00000000000E+00 0.  1.
         11    1    3    3    0    0  0.15592776434E+02 -0.12790920594E+02 -0.65233725429E+01  0.21196620395E+02  0.51100000000E-03 0.  1.
        -11    1    3    3    0    0  0.12287691983E+02 -0.19728275792E+01  0.34016492366E+01  0.12901575125E+02  0.51100000000E-03 0. -1.
        -12    1    3    3    0    0  0.13481678475E+02  0.22254318015E+01 -0.82624129534E+00  0.13689078708E+02  0.00000000000E+00 0.  1.
</event>
<event>
 7    1  0.1322363E-009  0.4778727E+02  0.7816164E-02  0.1312668E+00
        -11   -1    0    0    0    0  0.00000000000E+00  0.00000000000E+00  0.45593999997E+02  0.45594000000E+02  0.51100000000E-03 0.  1.
         11   -1    0    0    0    0 -0.00000000000E+00 -0.00000000000E+00 -0.45593999997E+02  0.45594000000E+02  0.51100000000E-03 0. -1.
    9900012    2    1    2    0    0 -0.12697000728E+02 -0.33672496274E+02 -0.24260518400E+02  0.47787267451E+02  0.19999983614E+02 0.  0.
        -12    1    1    2    0    0  0.12697000728E+02  0.33672496274E+02  0.24260518400E+02  0.43400732549E+02  0.00000000000E+00 0.  1.
         11    1    3    3    0    0 -0.18655289403E+01 -0.52517662472E+01 -0.44253131885E+01  0.71165050425E+01  0.51100000000E-03 0. -1.
        -11    1    3    3    0    0 -0.13407209089E+02 -0.19372452550E+02 -0.66621213739E+01  0.24483239876E+02  0.51100000000E-03 0.  1.
        -12    1    3    3    0    0  0.25757373014E+01 -0.90482774770E+01 -0.13173083838E+02  0.16187522533E+02  0.00000000000E+00 0.  1.
</event>
<event>
 7    1  0.1322363E-009  0.4778727E+02  0.7816164E-02  0.1312668E+00
        -11   -1    0    0    0    0  0.00000000000E+00  0.00000000000E+00  0.45593999997E+02  0.45594000000E+02  0.51100000000E-03 0. -1.
         11   -1    0    0    0    0 -0.00000000000E+00 -0.00000000000E+00 -0.45593999997E+02  0.45594000000E+02  0.51100000000E-03 0.  1.
    9900012    2    1    2    0    0  0.35650908034E+02  0.24182687135E+02  0.52757683025E+01  0.47787270376E+02  0.19999996953E+02 0.  0.
        -12    1    1    2    0    0 -0.35650908034E+02 -0.24182687135E+02 -0.52757683025E+01  0.43400729624E+02  0.00000000000E+00 0.  1.
         11    1    3    3    0    0 -0.75548064675E+00  0.53217870056E+01  0.33272381224E+01  0.63216043632E+01  0.51100000000E-03 0. -1.
        -11    1    3    3    0    0  0.12655598349E+02  0.86121340885E+01 -0.14465335578E+01  0.15376133543E+02  0.51100000000E-03 0.  1.
         12    1    3    3    0    0  0.23750790331E+02  0.10248766041E+02  0.33950637380E+01  0.26089532470E+02  0.00000000000E+00 0. -1.
</event>
<event>
 7    1  0.1322363E-009  0.4778725E+02  0.7816164E-02  0.1312668E+00
        -11   -1    0    0    0    0  0.00000000000E+00  0.00000000000E+00  0.45593999997E+02  0.45594000000E+02  0.51100000000E-03 0.  1.
         11   -1    0    0    0    0 -0.00000000000E+00 -0.00000000000E+00 -0.45593999997E+02  0.45594000000E+02  0.51100000000E-03 0. -1.
    9900012    2    1    2    0    0 -0.39250866990E+02  0.70846188662E+01 -0.17111470183E+02  0.47787253511E+02  0.19999920059E+02 0.  0.
        -12    1    1    2    0    0  0.39250866990E+02 -0.70846188662E+01  0.17111470183E+02  0.43400746489E+02  0.00000000000E+00 0.  1.
         11    1    3    3    0    0 -0.23902202058E+02  0.49839870879E+01 -0.96117571839E+01  0.26240069873E+02  0.51100000000E-03 0. -1.
        -11    1    3    3    0    0 -0.17716959655E+02  0.18509823804E+01 -0.64579569106E+01  0.18947875948E+02  0.51100000000E-03 0.  1.
        -12    1    3    3    0    0  0.23682947237E+01  0.24964939794E+00 -0.10417560889E+01  0.25993076903E+01  0.00000000000E+00 0.  1.
</event>
<event>
 7    1  0.1322363E-009  0.4778727E+02  0.7816164E-02  0.1312668E+00
        -11   -1    0    0    0    0  0.00000000000E+00  0.00000000000E+00  0.45593999997E+02  0.45594000000E+02  0.51100000000E-03 0.  1.
         11   -1    0    0    0    0 -0.00000000000E+00 -0.00000000000E+00 -0.45593999997E+02  0.45594000000E+02  0.51100000000E-03 0. -1.
    9900012    2    1    2    0    0 -0.34518016130E+02  0.15390814868E+02 -0.21336646467E+02  0.47787273021E+02  0.20000009012E+02 0.  0.
        -12    1    1    2    0    0  0.34518016130E+02 -0.15390814868E+02  0.21336646467E+02  0.43400726979E+02  0.00000000000E+00 0.  1.
         11    1    3    3    0    0 -0.19666807297E+02  0.10524057354E+02 -0.14762916082E+02  0.26748509939E+02  0.51100000000E-03 0. -1.
        -11    1    3    3    0    0 -0.22554004422E+00  0.50192334150E+01 -0.34152632878E+01  0.60751622177E+01  0.51100000000E-03 0.  1.
         12    1    3    3    0    0 -0.14625668788E+02 -0.15247590173E+00 -0.31584670974E+01  0.14963600864E+02  0.00000000000E+00 0. -1.
</event>
<event>
 7    1  0.1322363E-009  0.4778727E+02  0.7816164E-02  0.1312668E+00
        -11   -1    0    0    0    0  0.00000000000E+00  0.00000000000E+00  0.45593999997E+02  0.45594000000E+02  0.51100000000E-03 0. -1.
         11   -1    0    0    0    0 -0.00000000000E+00 -0.00000000000E+00 -0.45593999997E+02  0.45594000000E+02  0.51100000000E-03 0.  1.
    9900012    2    1    2    0    0  0.38697655016E+02  0.14789952994E+02 -0.12937231292E+02  0.47787272278E+02  0.20000005624E+02 0.  0.
        -12    1    1    2    0    0 -0.38697655016E+02 -0.14789952994E+02  0.12937231292E+02  0.43400727722E+02  0.00000000000E+00 0.  1.
         11    1    3    3    0    0  0.38267738645E+02  0.98525104844E+01 -0.13459606229E+02  0.41745092933E+02  0.51100000000E-03 0. -1.
        -11    1    3    3    0    0  0.18690343146E+00  0.36111638930E+01 -0.12404131571E+01  0.38228343695E+01  0.51100000000E-03 0.  1.
        -12    1    3    3    0    0  0.24301293928E+00  0.13262786163E+01  0.17627880938E+01  0.22193449755E+01  0.00000000000E+00 0.  1.
</event>
<event>
 7    1  0.1322363E-009  0.4778726E+02  0.7816164E-02  0.1312668E+00
        -11   -1    0    0    0    0  0.00000000000E+00  0.00000000000E+00  0.45593999997E+02  0.45594000000E+02  0.51100000000E-03 0.  1.
         11   -1    0    0    0    0 -0.00000000000E+00 -0.00000000000E+00 -0.45593999997E+02  0.45594000000E+02  0.51100000000E-03 0. -1.
    9900012    2    1    2    0    0 -0.44744972929E+01 -0.42296724730E+02 -0.86365480857E+01  0.47787262544E+02  0.19999961243E+02 0.  0.
        -12    1    1    2    0    0  0.44744972929E+01  0.42296724730E+02  0.86365480857E+01  0.43400737456E+02  0.00000000000E+00 0.  1.
         11    1    3    3    0    0 -0.94235079238E+00 -0.62253508415E+00  0.50319414322E+00  0.12364382531E+01  0.51100000000E-03 0. -1.
        -11    1    3    3    0    0 -0.82358437516E+01 -0.14020427385E+02  0.19712700702E+01  0.16379481442E+02  0.51100000000E-03 0.  1.
         12    1    3    3    0    0  0.47036972510E+01 -0.27653762260E+02 -0.11111012299E+02  0.30171342849E+02  0.00000000000E+00 0. -1.
</event>
<event>
 7    1  0.1322363E-009  0.4778727E+02  0.7816164E-02  0.1312668E+00
        -11   -1    0    0    0    0  0.00000000000E+00  0.00000000000E+00  0.45593999997E+02  0.45594000000E+02  0.51100000000E-03 0.  1.
         11   -1    0    0    0    0 -0.00000000000E+00 -0.00000000000E+00 -0.45593999997E+02  0.45594000000E+02  0.51100000000E-03 0. -1.
    9900012    2    1    2    0    0  0.26169851992E+02  0.34622274293E+02  0.24508448941E+00  0.47787273083E+02  0.20000009296E+02 0.  0.
        -12    1    1    2    0    0 -0.26169851992E+02 -0.34622274293E+02 -0.24508448941E+00  0.43400726917E+02  0.00000000000E+00 0.  1.
         11    1    3    3    0    0  0.17735802257E+02  0.15086684245E+02 -0.47320639748E+01  0.23760453551E+02  0.51100000000E-03 0. -1.
        -11    1    3    3    0    0  0.94519002652E+01  0.20095348361E+02  0.41273065709E+01  0.22587520983E+02  0.51100000000E-03 0.  1.
        -12    1    3    3    0    0 -0.10178505307E+01 -0.55975831264E+00  0.84984189327E+00  0.14392985496E+01  0.00000000000E+00 0.  1.
</event>
<event>
 7    1  0.1322363E-009  0.4778727E+02  0.7816164E-02  0.1312668E+00
        -11   -1    0    0    0    0  0.00000000000E+00  0.00000000000E+00  0.45593999997E+02  0.45594000000E+02  0.51100000000E-03 0.  1.
         11   -1    0    0    0    0 -0.00000000000E+00 -0.00000000000E+00 -0.45593999997E+02  0.45594000000E+02  0.51100000000E-03 0. -1.
    9900012    2    1    2    0    0  0.18029225024E+02  0.15935058420E+02 -0.36119858265E+02  0.47787271862E+02  0.20000003728E+02 0.  0.
        -12    1    1    2    0    0 -0.18029225024E+02 -0.15935058420E+02  0.36119858265E+02  0.43400728138E+02  0.00000000000E+00 0.  1.
         11    1    3    3    0    0  0.70302583183E+01  0.67346856429E+01 -0.10937211708E+02  0.14642510814E+02  0.51100000000E-03 0. -1.
        -11    1    3    3    0    0  0.12579304634E+01 -0.40201140624E+01 -0.97005875811E+01  0.10575684650E+02  0.51100000000E-03 0.  1.
        -12    1    3    3    0    0  0.97410362423E+01  0.13220486840E+02 -0.15482058976E+02  0.22569076398E+02  0.00000000000E+00 0.  1.
</event>
<event>
 7    1  0.1322363E-009  0.4778727E+02  0.7816164E-02  0.1312668E+00
        -11   -1    0    0    0    0  0.00000000000E+00  0.00000000000E+00  0.45593999997E+02  0.45594000000E+02  0.51100000000E-03 0.  1.
         11   -1    0    0    0    0 -0.00000000000E+00 -0.00000000000E+00 -0.45593999997E+02  0.45594000000E+02  0.51100000000E-03 0. -1.
    9900012    2    1    2    0    0  0.23804976579E+02 -0.14702441471E+02 -0.33178073623E+02  0.47787271153E+02  0.20000000495E+02 0.  0.
        -12    1    1    2    0    0 -0.23804976579E+02  0.14702441471E+02  0.33178073623E+02  0.43400728847E+02  0.00000000000E+00 0.  1.
         11    1    3    3    0    0  0.29670838463E+01  0.10631274112E+01 -0.10769656287E+02  0.11221377957E+02  0.51100000000E-03 0. -1.
        -11    1    3    3    0    0  0.14901061326E+02 -0.35712529585E+01 -0.11422230232E+02  0.19111850252E+02  0.51100000000E-03 0.  1.
        -12    1    3    3    0    0  0.59368314063E+01 -0.12194315924E+02 -0.10986187104E+02  0.17454042944E+02  0.00000000000E+00 0.  1.
</event>
<event>
 7    1 -0.1322363E-009  0.4778727E+02  0.7816164E-02  0.1312668E+00
        -11   -1    0    0    0    0  0.00000000000E+00  0.00000000000E+00  0.45593999997E+02  0.45594000000E+02  0.51100000000E-03 0. -1.
         11   -1    0    0    0    0 -0.00000000000E+00 -0.00000000000E+00 -0.45593999997E+02  0.45594000000E+02  0.51100000000E-03 0.  1.
    9900012    2    1    2    0    0 -0.27913025164E+02 -0.30652089647E+02 -0.12842723921E+02  0.47787272688E+02  0.20000007493E+02 0.  0.
        -12    1    1    2    0    0  0.27913025164E+02  0.30652089647E+02  0.12842723921E+02  0.43400727312E+02  0.00000000000E+00 0.  1.
         11    1    3    3    0    0 -0.69505807668E+01 -0.11632936692E+02  0.52093097888E+00  0.13561237348E+02  0.51100000000E-03 0. -1.
        -11    1    3    3    0    0 -0.63715277356E+00 -0.39850931591E+01 -0.71216111235E+01  0.81856139903E+01  0.51100000000E-03 0.  1.
        -12    1    3    3    0    0 -0.20325291624E+02 -0.15034059796E+02 -0.62420437764E+01  0.26040421349E+02  0.00000000000E+00 0.  1.
</event>
<event>
 7    1  0.1322363E-009  0.4778727E+02  0.7816164E-02  0.1312668E+00
        -11   -1    0    0    0    0  0.00000000000E+00  0.00000000000E+00  0.45593999997E+02  0.45594000000E+02  0.51100000000E-03 0.  1.
         11   -1    0    0    0    0 -0.00000000000E+00 -0.00000000000E+00 -0.45593999997E+02  0.45594000000E+02  0.51100000000E-03 0. -1.
    9900012    2    1    2    0    0  0.92367999936E+01  0.42383921216E+02  0.13813262878E+01  0.47787270582E+02  0.19999997890E+02 0.  0.
        -12    1    1    2    0    0 -0.92367999936E+01 -0.42383921216E+02 -0.13813262878E+01  0.43400729418E+02  0.00000000000E+00 0.  1.
         11    1    3    3    0    0 -0.97615977169E+00  0.15182129759E+02  0.17630922726E+01  0.15315301060E+02  0.51100000000E-03 0. -1.
        -11    1    3    3    0    0  0.15873662286E+01  0.26721208075E+00 -0.36621852808E+01  0.40003418769E+01  0.51100000000E-03 0.  1.
         12    1    3    3    0    0  0.86255935367E+01  0.26934579375E+02  0.32804192961E+01  0.28471627645E+02  0.00000000000E+00 0. -1.
</event>
<event>
 7    1  0.1322363E-009  0.4778728E+02  0.7816164E-02  0.1312668E+00
        -11   -1    0    0    0    0  0.00000000000E+00  0.00000000000E+00  0.45593999997E+02  0.45594000000E+02  0.51100000000E-03 0.  1.
         11   -1    0    0    0    0 -0.00000000000E+00 -0.00000000000E+00 -0.45593999997E+02  0.45594000000E+02  0.51100000000E-03 0. -1.
    9900012    2    1    2    0    0 -0.22965567513E+02  0.11341895950E+02 -0.35036645346E+02  0.47787280973E+02  0.20000045268E+02 0.  0.
        -12    1    1    2    0    0  0.22965567513E+02 -0.11341895950E+02  0.35036645346E+02  0.43400719027E+02  0.00000000000E+00 0.  1.
         11    1    3    3    0    0 -0.17056445855E+02  0.69511195501E+01 -0.33768232990E+02  0.38464710680E+02  0.51100000000E-03 0. -1.
        -11    1    3    3    0    0 -0.61024878072E+01  0.32338901547E+01 -0.27492423485E+01  0.74334875208E+01  0.51100000000E-03 0.  1.
         12    1    3    3    0    0  0.19336614876E+00  0.11568862454E+01  0.14808299922E+01  0.18890827717E+01  0.00000000000E+00 0. -1.
</event>
<event>
 7    1  0.1322363E-009  0.4778727E+02  0.7816164E-02  0.1312668E+00
        -11   -1    0    0    0    0  0.00000000000E+00  0.00000000000E+00  0.45593999997E+02  0.45594000000E+02  0.51100000000E-03 0. -1.
         11   -1    0    0    0    0 -0.00000000000E+00 -0.00000000000E+00 -0.45593999997E+02  0.45594000000E+02  0.51100000000E-03 0.  1.
    9900012    2    1    2    0    0  0.32973892221E+02 -0.60914798520E+01  0.27554307888E+02  0.47787267539E+02  0.19999984016E+02 0.  0.
        -12    1    1    2    0    0 -0.32973892221E+02  0.60914798520E+01 -0.27554307888E+02  0.43400732461E+02  0.00000000000E+00 0.  1.
         11    1    3    3    0    0  0.20285379440E+02 -0.79993466161E+01  0.20438416558E+02  0.29886703348E+02  0.51100000000E-03 0.  1.
        -11    1    3    3    0    0  0.12485723074E+02  0.38780118097E+01  0.84001236911E+01  0.15540087984E+02  0.51100000000E-03 0. -1.
        -12    1    3    3    0    0  0.20278970727E+00 -0.19701450456E+01 -0.12842323614E+01  0.23604762071E+01  0.00000000000E+00 0.  1.
</event>
<event>
 7    1  0.1322363E-009  0.4778727E+02  0.7816164E-02  0.1312668E+00
        -11   -1    0    0    0    0  0.00000000000E+00  0.00000000000E+00  0.45593999997E+02  0.45594000000E+02  0.51100000000E-03 0.  1.
         11   -1    0    0    0    0 -0.00000000000E+00 -0.00000000000E+00 -0.45593999997E+02  0.45594000000E+02  0.51100000000E-03 0. -1.
    9900012    2    1    2    0    0  0.56706196434E+01 -0.42165561496E+02 -0.85751184397E+01  0.47787272360E+02  0.20000005999E+02 0.  0.
        -12    1    1    2    0    0 -0.56706196434E+01  0.42165561496E+02  0.85751184397E+01  0.43400727640E+02  0.00000000000E+00 0.  1.
         11    1    3    3    0    0  0.48726793868E+01 -0.12828655215E+02 -0.10065397240E+02  0.17018508186E+02  0.51100000000E-03 0. -1.
        -11    1    3    3    0    0 -0.29815186691E+01 -0.36945989177E+01  0.96186450501E+00  0.48440373991E+01  0.51100000000E-03 0.  1.
        -12    1    3    3    0    0  0.37794589257E+01 -0.25642307364E+02  0.52841429488E+00  0.25924726775E+02  0.00000000000E+00 0.  1.
</event>
<event>
 7    1  0.1322363E-009  0.4778727E+02  0.7816164E-02  0.1312668E+00
        -11   -1    0    0    0    0  0.00000000000E+00  0.00000000000E+00  0.45593999997E+02  0.45594000000E+02  0.51100000000E-03 0. -1.
         11   -1    0    0    0    0 -0.00000000000E+00 -0.00000000000E+00 -0.45593999997E+02  0.45594000000E+02  0.51100000000E-03 0.  1.
    9900012    2    1    2    0    0 -0.43566671300E+01 -0.19992353100E+02  0.38274651563E+02  0.47787266328E+02  0.19999978498E+02 0.  0.
        -12    1    1    2    0    0  0.43566671300E+01  0.19992353100E+02 -0.38274651563E+02  0.43400733672E+02  0.00000000000E+00 0.  1.
         11    1    3    3    0    0 -0.52476806510E+01 -0.69738813865E+01  0.17252877853E+02  0.19334812341E+02  0.51100000000E-03 0.  1.
        -11    1    3    3    0    0  0.17070712571E+01 -0.13023352426E+02  0.22902876376E+02  0.26401961049E+02  0.51100000000E-03 0. -1.
        -12    1    3    3    0    0 -0.81605773598E+00  0.48807117375E-02 -0.18811026660E+01  0.20504929382E+01  0.00000000000E+00 0.  1.
</event>
<event>
 7    1  0.1322363E-009  0.4778727E+02  0.7816164E-02  0.1312668E+00
        -11   -1    0    0    0    0  0.00000000000E+00  0.00000000000E+00  0.45593999997E+02  0.45594000000E+02  0.51100000000E-03 0.  1.
         11   -1    0    0    0    0 -0.00000000000E+00 -0.00000000000E+00 -0.45593999997E+02  0.45594000000E+02  0.51100000000E-03 0. -1.
    9900012    2    1    2    0    0 -0.19037362308E+02 -0.28467424947E+01 -0.38898558910E+02  0.47787274294E+02  0.20000014817E+02 0.  0.
        -12    1    1    2    0    0  0.19037362308E+02  0.28467424947E+01  0.38898558910E+02  0.43400725706E+02  0.00000000000E+00 0.  1.
         11    1    3    3    0    0 -0.69963195224E+01 -0.25316732377E+01 -0.13787424019E+02  0.15666873255E+02  0.51100000000E-03 0. -1.
        -11    1    3    3    0    0 -0.11291162776E+01  0.13898939681E+01  0.20961621426E+01  0.27569194403E+01  0.51100000000E-03 0.  1.
        -12    1    3    3    0    0 -0.10911926508E+02 -0.17049632250E+01 -0.27207297034E+02  0.29363481599E+02  0.00000000000E+00 0.  1.
</event>
<event>
 7    1  0.1322363E-009  0.4778727E+02  0.7816164E-02  0.1312668E+00
        -11   -1    0    0    0    0  0.00000000000E+00  0.00000000000E+00  0.45593999997E+02  0.45594000000E+02  0.51100000000E-03 0.  1.
         11   -1    0    0    0    0 -0.00000000000E+00 -0.00000000000E+00 -0.45593999997E+02  0.45594000000E+02  0.51100000000E-03 0. -1.
    9900012    2    1    2    0    0  0.47462739728E+01  0.23915230280E+02 -0.35904845105E+02  0.47787271227E+02  0.20000000834E+02 0.  0.
        -12    1    1    2    0    0 -0.47462739728E+01 -0.23915230280E+02  0.35904845105E+02  0.43400728773E+02  0.00000000000E+00 0.  1.
         11    1    3    3    0    0 -0.29060264318E+01  0.21381826615E+01 -0.11122044292E+02  0.11692590996E+02  0.51100000000E-03 0. -1.
        -11    1    3    3    0    0  0.69233233933E+01  0.66668198193E+01 -0.40506957916E+01  0.10430102107E+02  0.51100000000E-03 0.  1.
         12    1    3    3    0    0  0.72897701137E+00  0.15110227799E+02 -0.20732105022E+02  0.25664578124E+02  0.00000000000E+00 0. -1.
</event>
<event>
 7    1  0.1322363E-009  0.4778723E+02  0.7816164E-02  0.1312668E+00
        -11   -1    0    0    0    0  0.00000000000E+00  0.00000000000E+00  0.45593999997E+02  0.45594000000E+02  0.51100000000E-03 0. -1.
         11   -1    0    0    0    0 -0.00000000000E+00 -0.00000000000E+00 -0.45593999997E+02  0.45594000000E+02  0.51100000000E-03 0.  1.
    9900012    2    1    2    0    0 -0.16436984210E+02  0.39379545997E+02  0.79185917797E+01  0.47787225944E+02  0.19999794368E+02 0.  0.
        -12    1    1    2    0    0  0.16436984210E+02 -0.39379545997E+02 -0.79185917797E+01  0.43400774056E+02  0.00000000000E+00 0.  1.
         11    1    3    3    0    0 -0.14550894212E+02  0.26897049970E+02  0.13243755732E+02  0.33325318987E+02  0.51100000000E-03 0. -1.
        -11    1    3    3    0    0  0.71919109311E+00  0.50237188661E+00 -0.12797899316E+01  0.15516042895E+01  0.51100000000E-03 0.  1.
         12    1    3    3    0    0 -0.26052810919E+01  0.11980124141E+02 -0.40453740205E+01  0.12910302668E+02  0.00000000000E+00 0. -1.
</event>
<event>
 7    1  0.1322363E-009  0.4778726E+02  0.7816164E-02  0.1312668E+00
        -11   -1    0    0    0    0  0.00000000000E+00  0.00000000000E+00  0.45593999997E+02  0.45594000000E+02  0.51100000000E-03 0.  1.
         11   -1    0    0    0    0 -0.00000000000E+00 -0.00000000000E+00 -0.45593999997E+02  0.45594000000E+02  0.51100000000E-03 0. -1.
    9900012    2    1    2    0    0  0.16977318459E+02 -0.16429788374E+02 -0.36406820099E+02  0.47787264548E+02  0.19999970381E+02 0.  0.
        -12    1    1    2    0    0 -0.16977318459E+02  0.16429788374E+02  0.36406820099E+02  0.43400735452E+02  0.00000000000E+00 0.  1.
         11    1    3    3    0    0  0.12757123807E+02 -0.82751731142E+01 -0.17707762645E+02  0.23340684567E+02  0.51100000000E-03 0. -1.
        -11    1    3    3    0    0  0.11880276195E+01  0.11312387124E+00  0.17864934670E+01  0.21484333371E+01  0.51100000000E-03 0.  1.
        -12    1    3    3    0    0  0.30321670317E+01 -0.82677391311E+01 -0.20485550920E+02  0.22298146644E+02  0.00000000000E+00 0.  1.
</event>
<event>
 7    1  0.1322363E-009  0.4778726E+02  0.7816164E-02  0.1312668E+00
        -11   -1    0    0    0    0  0.00000000000E+00  0.00000000000E+00  0.45593999997E+02  0.45594000000E+02  0.51100000000E-03 0.  1.
         11   -1    0    0    0    0 -0.00000000000E+00 -0.00000000000E+00 -0.45593999997E+02  0.45594000000E+02  0.51100000000E-03 0. -1.
    9900012    2    1    2    0    0  0.38671797883E+01  0.22562565273E+02 -0.36872745985E+02  0.47787264664E+02  0.19999970911E+02 0.  0.
        -12    1    1    2    0    0 -0.38671797883E+01 -0.22562565273E+02  0.36872745985E+02  0.43400735336E+02  0.00000000000E+00 0.  1.
         11    1    3    3    0    0 -0.12677059254E+01  0.51312300043E+01  0.26829734282E+00  0.52923136146E+01  0.51100000000E-03 0. -1.
        -11    1    3    3    0    0  0.30285240225E+01 -0.26294138020E-01 -0.63881962588E+01  0.70697737474E+01  0.51100000000E-03 0.  1.
         12    1    3    3    0    0  0.21063616913E+01  0.17457629407E+02 -0.30752847069E+02  0.35425177302E+02  0.00000000000E+00 0. -1.
</event>
<event>
 7    1  0.1322363E-009  0.4778727E+02  0.7816164E-02  0.1312668E+00
        -11   -1    0    0    0    0  0.00000000000E+00  0.00000000000E+00  0.45593999997E+02  0.45594000000E+02  0.51100000000E-03 0.  1.
         11   -1    0    0    0    0 -0.00000000000E+00 -0.00000000000E+00 -0.45593999997E+02  0.45594000000E+02  0.51100000000E-03 0. -1.
    9900012    2    1    2    0    0 -0.35930814633E+02 -0.13374486233E+02 -0.20340178256E+02  0.47787272199E+02  0.20000005263E+02 0.  0.
        -12    1    1    2    0    0  0.35930814633E+02  0.13374486233E+02  0.20340178256E+02  0.43400727801E+02  0.00000000000E+00 0.  1.
         11    1    3    3    0    0 -0.31636741601E+02 -0.85544608104E+01 -0.14621574079E+02  0.35886663926E+02  0.51100000000E-03 0. -1.
        -11    1    3    3    0    0 -0.43541091291E+01 -0.31912160671E+01 -0.76565961991E+01  0.93683291953E+01  0.51100000000E-03 0.  1.
         12    1    3    3    0    0  0.60036096871E-01 -0.16288093553E+01  0.19379920227E+01  0.25322790780E+01  0.00000000000E+00 0. -1.
</event>
<event>
 7    1  0.1322363E-009  0.4778729E+02  0.7816164E-02  0.1312668E+00
        -11   -1    0    0    0    0  0.00000000000E+00  0.00000000000E+00  0.45593999997E+02  0.45594000000E+02  0.51100000000E-03 0.  1.
         11   -1    0    0    0    0 -0.00000000000E+00 -0.00000000000E+00 -0.45593999997E+02  0.45594000000E+02  0.51100000000E-03 0. -1.
    9900012    2    1    2    0    0 -0.10699207859E+02 -0.14696672762E+02 -0.39410103373E+02  0.47787291630E+02  0.20000093860E+02 0.  0.
        -12    1    1    2    0    0  0.10699207859E+02  0.14696672762E+02  0.39410103373E+02  0.43400708370E+02  0.00000000000E+00 0.  1.
         11    1    3    3    0    0 -0.17824353438E+01 -0.80893258674E+01 -0.11309194531E+02  0.14018279136E+02  0.51100000000E-03 0. -1.
        -11    1    3    3    0    0  0.28829322158E+01  0.22612287564E+01 -0.82902557200E+01  0.90638178387E+01  0.51100000000E-03 0.  1.
         12    1    3    3    0    0 -0.11799704731E+02 -0.88685756512E+01 -0.19810653122E+02  0.24705194656E+02  0.00000000000E+00 0. -1.
</event>
<event>
 7    1  0.1322363E-009  0.4778730E+02  0.7816164E-02  0.1312668E+00
        -11   -1    0    0    0    0  0.00000000000E+00  0.00000000000E+00  0.45593999997E+02  0.45594000000E+02  0.51100000000E-03 0.  1.
         11   -1    0    0    0    0 -0.00000000000E+00 -0.00000000000E+00 -0.45593999997E+02  0.45594000000E+02  0.51100000000E-03 0. -1.
    9900012    2    1    2    0    0  0.92561185671E+01 -0.31620887647E+02 -0.28250027933E+02  0.47787304790E+02  0.20000153860E+02 0.  0.
        -12    1    1    2    0    0 -0.92561185671E+01  0.31620887647E+02  0.28250027933E+02  0.43400695210E+02  0.00000000000E+00 0.  1.
         11    1    3    3    0    0  0.23649306136E+01 -0.19195572375E+01 -0.33263750587E+01  0.45102514439E+01  0.51100000000E-03 0. -1.
        -11    1    3    3    0    0  0.21052638979E+01 -0.10548947302E+02  0.87424176450E+00  0.10792438288E+02  0.51100000000E-03 0.  1.
        -12    1    3    3    0    0  0.47859240555E+01 -0.19152383107E+02 -0.25797894638E+02  0.32484615059E+02  0.00000000000E+00 0.  1.
</event>
<event>
 7    1  0.1322363E-009  0.4778727E+02  0.7816164E-02  0.1312668E+00
        -11   -1    0    0    0    0  0.00000000000E+00  0.00000000000E+00  0.45593999997E+02  0.45594000000E+02  0.51100000000E-03 0.  1.
         11   -1    0    0    0    0 -0.00000000000E+00 -0.00000000000E+00 -0.45593999997E+02  0.45594000000E+02  0.51100000000E-03 0. -1.
    9900012    2    1    2    0    0 -0.45057671974E+01 -0.10677180765E+02 -0.41824865466E+02  0.47787268458E+02  0.19999988206E+02 0.  0.
        -12    1    1    2    0    0  0.45057671974E+01  0.10677180765E+02  0.41824865466E+02  0.43400731542E+02  0.00000000000E+00 0.  1.
         11    1    3    3    0    0 -0.52598417879E+01 -0.81377989139E+01 -0.21236278272E+02  0.23342433933E+02  0.51100000000E-03 0. -1.
        -11    1    3    3    0    0  0.34206970835E+01 -0.38464906017E+01 -0.18460933727E+01  0.54685207770E+01  0.51100000000E-03 0.  1.
         12    1    3    3    0    0 -0.26666224930E+01  0.13071087509E+01 -0.18742493821E+02  0.18976313748E+02  0.00000000000E+00 0. -1.
</event>
<event>
 7    1  0.1322363E-009  0.4778727E+02  0.7816164E-02  0.1312668E+00
        -11   -1    0    0    0    0  0.00000000000E+00  0.00000000000E+00  0.45593999997E+02  0.45594000000E+02  0.51100000000E-03 0. -1.
         11   -1    0    0    0    0 -0.00000000000E+00 -0.00000000000E+00 -0.45593999997E+02  0.45594000000E+02  0.51100000000E-03 0.  1.
    9900012    2    1    2    0    0  0.18452611632E+02 -0.22919634946E+02  0.31903214739E+02  0.47787266679E+02  0.19999980098E+02 0.  0.
        -12    1    1    2    0    0 -0.18452611632E+02  0.22919634946E+02 -0.31903214739E+02  0.43400733321E+02  0.00000000000E+00 0.  1.
         11    1    3    3    0    0  0.69097000832E+01 -0.19662874049E+02  0.13345208167E+02  0.24748073711E+02  0.51100000000E-03 0. -1.
        -11    1    3    3    0    0  0.12774693388E+01 -0.91059255520E+00  0.79088230150E+01  0.80629143898E+01  0.51100000000E-03 0.  1.
        -12    1    3    3    0    0  0.10265442210E+02 -0.23461683417E+01  0.10649183557E+02  0.14976278579E+02  0.00000000000E+00 0.  1.
</event>
<event>
 7    1  0.1322363E-009  0.4778727E+02  0.7816164E-02  0.1312668E+00
        -11   -1    0    0    0    0  0.00000000000E+00  0.00000000000E+00  0.45593999997E+02  0.45594000000E+02  0.51100000000E-03 0.  1.
         11   -1    0    0    0    0 -0.00000000000E+00 -0.00000000000E+00 -0.45593999997E+02  0.45594000000E+02  0.51100000000E-03 0. -1.
    9900012    2    1    2    0    0 -0.26454449217E+02 -0.58584557073E+01 -0.33903747372E+02  0.47787268756E+02  0.19999989565E+02 0.  0.
        -12    1    1    2    0    0  0.26454449217E+02  0.58584557073E+01  0.33903747372E+02  0.43400731244E+02  0.00000000000E+00 0.  1.
         11    1    3    3    0    0 -0.91730137389E+01  0.25751061770E+01 -0.56568267829E+01  0.11080389993E+02  0.51100000000E-03 0. -1.
        -11    1    3    3    0    0 -0.11725504445E+02 -0.27624883465E+01 -0.67900586989E+01  0.13828365549E+02  0.51100000000E-03 0.  1.
         12    1    3    3    0    0 -0.55559310335E+01 -0.56710735378E+01 -0.21456861890E+02  0.22878513214E+02  0.00000000000E+00 0. -1.
</event>
<event>
 7    1  0.1322363E-009  0.4778729E+02  0.7816164E-02  0.1312668E+00
        -11   -1    0    0    0    0  0.00000000000E+00  0.00000000000E+00  0.45593999997E+02  0.45594000000E+02  0.51100000000E-03 0.  1.
         11   -1    0    0    0    0 -0.00000000000E+00 -0.00000000000E+00 -0.45593999997E+02  0.45594000000E+02  0.51100000000E-03 0. -1.
    9900012    2    1    2    0    0 -0.22215609076E+02  0.36189288657E+02  0.89679281646E+01  0.47787289917E+02  0.20000086049E+02 0.  0.
        -12    1    1    2    0    0  0.22215609076E+02 -0.36189288657E+02 -0.89679281646E+01  0.43400710083E+02  0.00000000000E+00 0.  1.
         11    1    3    3    0    0 -0.20782049925E+01  0.17789331322E+02 -0.10411792354E+01  0.17940549026E+02  0.51100000000E-03 0. -1.
        -11    1    3    3    0    0 -0.44023675123E+01  0.25526154230E+01  0.46205365310E+01  0.68735757293E+01  0.51100000000E-03 0.  1.
         12    1    3    3    0    0 -0.15735036571E+02  0.15847341912E+02  0.53885708690E+01  0.22973165162E+02  0.00000000000E+00 0. -1.
</event>
<event>
 7    1  0.1322363E-009  0.4778727E+02  0.7816164E-02  0.1312668E+00
        -11   -1    0    0    0    0  0.00000000000E+00  0.00000000000E+00  0.45593999997E+02  0.45594000000E+02  0.51100000000E-03 0.  1.
         11   -1    0    0    0    0 -0.00000000000E+00 -0.00000000000E+00 -0.45593999997E+02  0.45594000000E+02  0.51100000000E-03 0. -1.
    9900012    2    1    2    0    0 -0.20491729774E+02  0.27362964479E+02 -0.26739117689E+02  0.47787271562E+02  0.20000002359E+02 0.  0.
        -12    1    1    2    0    0  0.20491729774E+02 -0.27362964479E+02  0.26739117689E+02  0.43400728438E+02  0.00000000000E+00 0.  1.
         11    1    3    3    0    0 -0.44948097582E+01  0.78373669576E+01 -0.15035757913E+02  0.17541426734E+02  0.51100000000E-03 0. -1.
        -11    1    3    3    0    0 -0.64477256375E+01  0.16636034810E+02 -0.85336935996E+01  0.19777632487E+02  0.51100000000E-03 0.  1.
         12    1    3    3    0    0 -0.95491943780E+01  0.28895627116E+01 -0.31696661758E+01  0.10468212340E+02  0.00000000000E+00 0. -1.
</event>
<event>
 7    1  0.1322363E-009  0.4778727E+02  0.7816164E-02  0.1312668E+00
        -11   -1    0    0    0    0  0.00000000000E+00  0.00000000000E+00  0.45593999997E+02  0.45594000000E+02  0.51100000000E-03 0.  1.
         11   -1    0    0    0    0 -0.00000000000E+00 -0.00000000000E+00 -0.45593999997E+02  0.45594000000E+02  0.51100000000E-03 0. -1.
    9900012    2    1    2    0    0  0.29641393544E+02  0.24612247096E+02  0.19981197784E+02  0.47787272088E+02  0.20000004760E+02 0.  0.
        -12    1    1    2    0    0 -0.29641393544E+02 -0.24612247096E+02 -0.19981197784E+02  0.43400727912E+02  0.00000000000E+00 0.  1.
         11    1    3    3    0    0  0.14296694953E+02  0.11067261365E+02  0.14945413295E+02  0.23457304609E+02  0.51100000000E-03 0. -1.
        -11    1    3    3    0    0  0.95377229344E+01  0.33651981806E+01  0.71963131603E+01  0.12412882056E+02  0.51100000000E-03 0.  1.
         12    1    3    3    0    0  0.58069756559E+01  0.10179787551E+02 -0.21605286707E+01  0.11917085424E+02  0.00000000000E+00 0. -1.
</event>
<event>
 7    1  0.1322363E-009  0.4778727E+02  0.7816164E-02  0.1312668E+00
        -11   -1    0    0    0    0  0.00000000000E+00  0.00000000000E+00  0.45593999997E+02  0.45594000000E+02  0.51100000000E-03 0. -1.
         11   -1    0    0    0    0 -0.00000000000E+00 -0.00000000000E+00 -0.45593999997E+02  0.45594000000E+02  0.51100000000E-03 0.  1.
    9900012    2    1    2    0    0  0.39564401498E+02  0.16852237818E+02  0.58551935182E+01  0.47787273318E+02  0.20000010365E+02 0.  0.
        -12    1    1    2    0    0 -0.39564401498E+02 -0.16852237818E+02 -0.58551935182E+01  0.43400726682E+02  0.00000000000E+00 0.  1.
         11    1    3    3    0    0  0.27339208803E+02  0.16986675969E+02  0.27155636774E+00  0.32187780936E+02  0.51100000000E-03 0.  1.
        -11    1    3    3    0    0  0.91397697857E+01  0.20395955502E+01  0.68673475050E+01  0.11612743163E+02  0.51100000000E-03 0. -1.
        -12    1    3    3    0    0  0.30854229094E+01 -0.21740337009E+01 -0.12837103546E+01  0.39867492192E+01  0.00000000000E+00 0.  1.
</event>
<event>
 7    1  0.1322363E-009  0.4778727E+02  0.7816164E-02  0.1312668E+00
        -11   -1    0    0    0    0  0.00000000000E+00  0.00000000000E+00  0.45593999997E+02  0.45594000000E+02  0.51100000000E-03 0.  1.
         11   -1    0    0    0    0 -0.00000000000E+00 -0.00000000000E+00 -0.45593999997E+02  0.45594000000E+02  0.51100000000E-03 0. -1.
    9900012    2    1    2    0    0  0.22076617339E+02 -0.30216808548E+02  0.21981600815E+02  0.47787270440E+02  0.19999997244E+02 0.  0.
        -12    1    1    2    0    0 -0.22076617339E+02  0.30216808548E+02 -0.21981600815E+02  0.43400729560E+02  0.00000000000E+00 0.  1.
         11    1    3    3    0    0  0.13609464850E+00 -0.21420583414E+00 -0.10679501544E+01  0.10976901594E+01  0.51100000000E-03 0. -1.
        -11    1    3    3    0    0  0.16964821146E+02 -0.24954245682E+02  0.25166291147E+02  0.39292006113E+02  0.51100000000E-03 0.  1.
        -12    1    3    3    0    0  0.49757015451E+01 -0.50483570317E+01 -0.21167401770E+01  0.73975741674E+01  0.00000000000E+00 0.  1.
</event>
<event>
 7    1  0.1322363E-009  0.4778727E+02  0.7816164E-02  0.1312668E+00
        -11   -1    0    0    0    0  0.00000000000E+00  0.00000000000E+00  0.45593999997E+02  0.45594000000E+02  0.51100000000E-03 0. -1.
         11   -1    0    0    0    0 -0.00000000000E+00 -0.00000000000E+00 -0.45593999997E+02  0.45594000000E+02  0.51100000000E-03 0.  1.
    9900012    2    1    2    0    0 -0.10503380242E+02  0.21667533228E+02  0.36108455488E+02  0.47787267858E+02  0.19999985474E+02 0.  0.
        -12    1    1    2    0    0  0.10503380242E+02 -0.21667533228E+02 -0.36108455488E+02  0.43400732142E+02  0.00000000000E+00 0.  1.
         11    1    3    3    0    0 -0.76959995244E+01  0.13312109960E+01  0.14826706786E+02  0.16758035857E+02  0.51100000000E-03 0. -1.
        -11    1    3    3    0    0  0.16856317848E+01  0.38979710006E+01  0.92204281331E+01  0.10151444609E+02  0.51100000000E-03 0.  1.
         12    1    3    3    0    0 -0.44930125024E+01  0.16438351231E+02  0.12061320569E+02  0.20877787393E+02  0.00000000000E+00 0. -1.
</event>
<event>
 7    1  0.1322363E-009  0.4778727E+02  0.7816164E-02  0.1312668E+00
        -11   -1    0    0    0    0  0.00000000000E+00  0.00000000000E+00  0.45593999997E+02  0.45594000000E+02  0.51100000000E-03 0.  1.
         11   -1    0    0    0    0 -0.00000000000E+00 -0.00000000000E+00 -0.45593999997E+02  0.45594000000E+02  0.51100000000E-03 0. -1.
    9900012    2    1    2    0    0  0.39432585567E+01 -0.58136499708E+01 -0.42828444333E+02  0.47787268923E+02  0.19999990329E+02 0.  0.
        -12    1    1    2    0    0 -0.39432585567E+01  0.58136499708E+01  0.42828444333E+02  0.43400731077E+02  0.00000000000E+00 0.  1.
         11    1    3    3    0    0  0.17857214575E+01  0.30089358429E+01 -0.14882063998E+02  0.15287848938E+02  0.51100000000E-03 0. -1.
        -11    1    3    3    0    0 -0.17681273257E+01 -0.41618334751E+01 -0.69489347656E+00  0.45749327120E+01  0.51100000000E-03 0.  1.
         12    1    3    3    0    0  0.39256644249E+01 -0.46607523385E+01 -0.27251486858E+02  0.27924487274E+02  0.00000000000E+00 0. -1.
</event>
<event>
 7    1  0.1322363E-009  0.4778727E+02  0.7816164E-02  0.1312668E+00
        -11   -1    0    0    0    0  0.00000000000E+00  0.00000000000E+00  0.45593999997E+02  0.45594000000E+02  0.51100000000E-03 0.  1.
         11   -1    0    0    0    0 -0.00000000000E+00 -0.00000000000E+00 -0.45593999997E+02  0.45594000000E+02  0.51100000000E-03 0. -1.
    9900012    2    1    2    0    0  0.39163028202E+02 -0.60079250943E+01 -0.17713985931E+02  0.47787271441E+02  0.20000001807E+02 0.  0.
        -12    1    1    2    0    0 -0.39163028202E+02  0.60079250943E+01  0.17713985931E+02  0.43400728559E+02  0.00000000000E+00 0.  1.
         11    1    3    3    0    0  0.13352244558E-01 -0.21449287642E+01 -0.15173399060E+01  0.26273976359E+01  0.51100000000E-03 0. -1.
        -11    1    3    3    0    0  0.22574406757E+02  0.50862401933E+01 -0.68580017285E+01  0.24135158332E+02  0.51100000000E-03 0.  1.
        -12    1    3    3    0    0  0.16575269201E+02 -0.89492365234E+01 -0.93386442961E+01  0.21024715473E+02  0.00000000000E+00 0.  1.
</event>
<event>
 7    1  0.1322363E-009  0.4778727E+02  0.7816164E-02  0.1312668E+00
        -11   -1    0    0    0    0  0.00000000000E+00  0.00000000000E+00  0.45593999997E+02  0.45594000000E+02  0.51100000000E-03 0.  1.
         11   -1    0    0    0    0 -0.00000000000E+00 -0.00000000000E+00 -0.45593999997E+02  0.45594000000E+02  0.51100000000E-03 0. -1.
    9900012    2    1    2    0    0 -0.28629931436E+02  0.27752885239E+02 -0.17138486924E+02  0.47787270200E+02  0.19999996151E+02 0.  0.
        -12    1    1    2    0    0  0.28629931436E+02 -0.27752885239E+02  0.17138486924E+02  0.43400729800E+02  0.00000000000E+00 0.  1.
         11    1    3    3    0    0 -0.77523722346E+01  0.30651712692E+01 -0.72281230281E+01  0.11033599274E+02  0.51100000000E-03 0. -1.
        -11    1    3    3    0    0 -0.39160861453E+01  0.11967921520E+02  0.14928088672E+01  0.12680510825E+02  0.51100000000E-03 0.  1.
        -12    1    3    3    0    0 -0.16961473056E+02  0.12719792450E+02 -0.11403172763E+02  0.24073160101E+02  0.00000000000E+00 0.  1.
</event>
<event>
 7    1  0.1322363E-009  0.4778727E+02  0.7816164E-02  0.1312668E+00
        -11   -1    0    0    0    0  0.00000000000E+00  0.00000000000E+00  0.45593999997E+02  0.45594000000E+02  0.51100000000E-03 0.  1.
         11   -1    0    0    0    0 -0.00000000000E+00 -0.00000000000E+00 -0.45593999997E+02  0.45594000000E+02  0.51100000000E-03 0. -1.
    9900012    2    1    2    0    0 -0.70242479225E+01  0.17840680238E+02 -0.38935758671E+02  0.47787271509E+02  0.20000002117E+02 0.  0.
        -12    1    1    2    0    0  0.70242479225E+01 -0.17840680238E+02  0.38935758671E+02  0.43400728491E+02  0.00000000000E+00 0.  1.
         11    1    3    3    0    0 -0.11527333709E+02  0.15241627936E+02 -0.35671512594E+02  0.40467807645E+02  0.51100000000E-03 0. -1.
        -11    1    3    3    0    0  0.47306089607E+00  0.21426736073E+01 -0.13793600903E+00  0.21986048764E+01  0.51100000000E-03 0.  1.
         12    1    3    3    0    0  0.40300248899E+01  0.45637869460E+00 -0.31263100681E+01  0.51208589873E+01  0.00000000000E+00 0. -1.
</event>
<event>
 7    1  0.1322363E-009  0.4778727E+02  0.7816164E-02  0.1312668E+00
        -11   -1    0    0    0    0  0.00000000000E+00  0.00000000000E+00  0.45593999997E+02  0.45594000000E+02  0.51100000000E-03 0.  1.
         11   -1    0    0    0    0 -0.00000000000E+00 -0.00000000000E+00 -0.45593999997E+02  0.45594000000E+02  0.51100000000E-03 0. -1.
    9900012    2    1    2    0    0 -0.53875089453E+01  0.19330890884E+02 -0.38482656773E+02  0.47787268816E+02  0.19999989840E+02 0.  0.
        -12    1    1    2    0    0  0.53875089453E+01 -0.19330890884E+02  0.38482656773E+02  0.43400731184E+02  0.00000000000E+00 0.  1.
         11    1    3    3    0    0 -0.10411603319E+02  0.19615705386E+02 -0.28735970298E+02  0.36317122280E+02  0.51100000000E-03 0. -1.
        -11    1    3    3    0    0  0.31341310647E+01 -0.50834277934E+00 -0.26902240336E+01  0.41615496542E+01  0.51100000000E-03 0.  1.
        -12    1    3    3    0    0  0.18899633090E+01  0.22352827757E+00 -0.70564624415E+01  0.73085968823E+01  0.00000000000E+00 0.  1.
</event>
<event>
 7    1  0.1322363E-009  0.4778727E+02  0.7816164E-02  0.1312668E+00
        -11   -1    0    0    0    0  0.00000000000E+00  0.00000000000E+00  0.45593999997E+02  0.45594000000E+02  0.51100000000E-03 0. -1.
         11   -1    0    0    0    0 -0.00000000000E+00 -0.00000000000E+00 -0.45593999997E+02  0.45594000000E+02  0.51100000000E-03 0.  1.
    9900012    2    1    2    0    0 -0.75124493571E+01 -0.36231562376E+02  0.22681714920E+02  0.47787271904E+02  0.20000003920E+02 0.  0.
        -12    1    1    2    0    0  0.75124493571E+01  0.36231562376E+02 -0.22681714920E+02  0.43400728096E+02  0.00000000000E+00 0.  1.
         11    1    3    3    0    0 -0.60850314955E+01 -0.14386343784E+01  0.31876980339E+01  0.70184539745E+01  0.51100000000E-03 0. -1.
        -11    1    3    3    0    0  0.25146604746E+01 -0.89871657328E+01  0.78059580577E+01  0.12166579087E+02  0.51100000000E-03 0.  1.
        -12    1    3    3    0    0 -0.39420783361E+01 -0.25805762265E+02  0.11688058828E+02  0.28602238843E+02  0.00000000000E+00 0.  1.
</event>
<event>
 7    1  0.1322363E-009  0.4778727E+02  0.7816164E-02  0.1312668E+00
        -11   -1    0    0    0    0  0.00000000000E+00  0.00000000000E+00  0.45593999997E+02  0.45594000000E+02  0.51100000000E-03 0. -1.
         11   -1    0    0    0    0 -0.00000000000E+00 -0.00000000000E+00 -0.45593999997E+02  0.45594000000E+02  0.51100000000E-03 0.  1.
    9900012    2    1    2    0    0  0.38178053929E+02 -0.15140591673E+02  0.14029322800E+02  0.47787271709E+02  0.20000003028E+02 0.  0.
        -12    1    1    2    0    0 -0.38178053929E+02  0.15140591673E+02 -0.14029322800E+02  0.43400728291E+02  0.00000000000E+00 0.  1.
         11    1    3    3    0    0  0.11977330441E+02 -0.67274726457E+01  0.32995735961E+01  0.14128075555E+02  0.51100000000E-03 0. -1.
        -11    1    3    3    0    0  0.23128458959E+02 -0.25231392117E+01  0.29861238905E+01  0.23456529612E+02  0.51100000000E-03 0.  1.
         12    1    3    3    0    0  0.30722645283E+01 -0.58899798158E+01  0.77436253138E+01  0.10202666542E+02  0.00000000000E+00 0. -1.
</event>
<event>
 7    1  0.1322363E-009  0.4778727E+02  0.7816164E-02  0.1312668E+00
        -11   -1    0    0    0    0  0.00000000000E+00  0.00000000000E+00  0.45593999997E+02  0.45594000000E+02  0.51100000000E-03 0.  1.
         11   -1    0    0    0    0 -0.00000000000E+00 -0.00000000000E+00 -0.45593999997E+02  0.45594000000E+02  0.51100000000E-03 0. -1.
    9900012    2    1    2    0    0 -0.73037773627E+01 -0.35249563804E+02 -0.24243481532E+02  0.47787270640E+02  0.19999998157E+02 0.  0.
        -12    1    1    2    0    0  0.73037773627E+01  0.35249563804E+02  0.24243481532E+02  0.43400729360E+02  0.00000000000E+00 0.  1.
         11    1    3    3    0    0 -0.10119591270E+02 -0.20038786855E+02 -0.14502761027E+02  0.26726189099E+02  0.51100000000E-03 0. -1.
        -11    1    3    3    0    0 -0.14877253988E+00  0.15644323637E+01 -0.13493350991E+01  0.20713008860E+01  0.51100000000E-03 0.  1.
         12    1    3    3    0    0  0.29645864469E+01 -0.16775209313E+02 -0.83913854058E+01  0.18989780655E+02  0.00000000000E+00 0. -1.
</event>
<event>
 7    1  0.1322363E-009  0.4778727E+02  0.7816164E-02  0.1312668E+00
        -11   -1    0    0    0    0  0.00000000000E+00  0.00000000000E+00  0.45593999997E+02  0.45594000000E+02  0.51100000000E-03 0.  1.
         11   -1    0    0    0    0 -0.00000000000E+00 -0.00000000000E+00 -0.45593999997E+02  0.45594000000E+02  0.51100000000E-03 0. -1.
    9900012    2    1    2    0    0  0.22055516977E+02  0.20486675942E+02 -0.31264579464E+02  0.47787266719E+02  0.19999980278E+02 0.  0.
        -12    1    1    2    0    0 -0.22055516977E+02 -0.20486675942E+02  0.31264579464E+02  0.43400733281E+02  0.00000000000E+00 0.  1.
         11    1    3    3    0    0 -0.68065986348E+00  0.61501896763E+01 -0.10457571793E+02  0.12151087975E+02  0.51100000000E-03 0.  1.
        -11    1    3    3    0    0  0.45807972611E+01 -0.80671979569E+00 -0.91785583213E+00  0.47409872354E+01  0.51100000000E-03 0. -1.
        -12    1    3    3    0    0  0.18155379579E+02  0.15143206062E+02 -0.19889151839E+02  0.30895191508E+02  0.00000000000E+00 0.  1.
</event>
<event>
 7    1  0.1322363E-009  0.4778727E+02  0.7816164E-02  0.1312668E+00
        -11   -1    0    0    0    0  0.00000000000E+00  0.00000000000E+00  0.45593999997E+02  0.45594000000E+02  0.51100000000E-03 0. -1.
         11   -1    0    0    0    0 -0.00000000000E+00 -0.00000000000E+00 -0.45593999997E+02  0.45594000000E+02  0.51100000000E-03 0.  1.
    9900012    2    1    2    0    0 -0.24169083247E+01  0.14601254788E+02  0.40799326108E+02  0.47787273070E+02  0.20000009234E+02 0.  0.
        -12    1    1    2    0    0  0.24169083247E+01 -0.14601254788E+02 -0.40799326108E+02  0.43400726930E+02  0.00000000000E+00 0.  1.
         11    1    3    3    0    0 -0.40690924208E+01  0.55510756916E+01  0.75821387995E+01  0.10240155443E+02  0.51100000000E-03 0. -1.
        -11    1    3    3    0    0 -0.40067078028E+01  0.10778084751E+02  0.23668637713E+02  0.26313974039E+02  0.51100000000E-03 0.  1.
         12    1    3    3    0    0  0.56588918990E+01 -0.17279056544E+01  0.95485495956E+01  0.11233143587E+02  0.00000000000E+00 0. -1.
</event>
<event>
 7    1  0.1322363E-009  0.4778727E+02  0.7816164E-02  0.1312668E+00
        -11   -1    0    0    0    0  0.00000000000E+00  0.00000000000E+00  0.45593999997E+02  0.45594000000E+02  0.51100000000E-03 0. -1.
         11   -1    0    0    0    0 -0.00000000000E+00 -0.00000000000E+00 -0.45593999997E+02  0.45594000000E+02  0.51100000000E-03 0.  1.
    9900012    2    1    2    0    0  0.35748993376E+02  0.61065564366E+01  0.23839934751E+02  0.47787273649E+02  0.20000011874E+02 0.  0.
        -12    1    1    2    0    0 -0.35748993376E+02 -0.61065564366E+01 -0.23839934751E+02  0.43400726351E+02  0.00000000000E+00 0.  1.
         11    1    3    3    0    0  0.22499877872E+02  0.85056370912E+01  0.68291385690E+01  0.25004549595E+02  0.51100000000E-03 0. -1.
        -11    1    3    3    0    0 -0.37416895854E+00  0.10424594016E+00 -0.38436165586E+00  0.54644649252E+00  0.51100000000E-03 0.  1.
        -12    1    3    3    0    0  0.13623284462E+02 -0.25033265947E+01  0.17395157838E+02  0.22236277561E+02  0.00000000000E+00 0.  1.
</event>
<event>
 7    1  0.1322363E-009  0.4778728E+02  0.7816164E-02  0.1312668E+00
        -11   -1    0    0    0    0  0.00000000000E+00  0.00000000000E+00  0.45593999997E+02  0.45594000000E+02  0.51100000000E-03 0. -1.
         11   -1    0    0    0    0 -0.00000000000E+00 -0.00000000000E+00 -0.45593999997E+02  0.45594000000E+02  0.51100000000E-03 0.  1.
    9900012    2    1    2    0    0 -0.20523221032E+02  0.37324263749E+02  0.83258181879E+01  0.47787279793E+02  0.20000039889E+02 0.  0.
        -12    1    1    2    0    0  0.20523221032E+02 -0.37324263749E+02 -0.83258181879E+01  0.43400720207E+02  0.00000000000E+00 0.  1.
         11    1    3    3    0    0  0.88481105408E+00  0.22503173327E+01  0.17281893288E+01  0.29721132745E+01  0.51100000000E-03 0. -1.
        -11    1    3    3    0    0 -0.20945824536E+01 -0.74655741648E+00  0.33094478433E+01  0.39871128551E+01  0.51100000000E-03 0.  1.
         12    1    3    3    0    0 -0.19313449633E+02  0.35820503833E+02  0.32881810158E+01  0.40828053664E+02  0.00000000000E+00 0. -1.
</event>
<event>
 7    1  0.1322363E-009  0.4778727E+02  0.7816164E-02  0.1312668E+00
        -11   -1    0    0    0    0  0.00000000000E+00  0.00000000000E+00  0.45593999997E+02  0.45594000000E+02  0.51100000000E-03 0.  1.
         11   -1    0    0    0    0 -0.00000000000E+00 -0.00000000000E+00 -0.45593999997E+02  0.45594000000E+02  0.51100000000E-03 0. -1.
    9900012    2    1    2    0    0  0.13405092224E+02  0.27827953639E+02 -0.30488226281E+02  0.47787269096E+02  0.19999991116E+02 0.  0.
        -12    1    1    2    0    0 -0.13405092224E+02 -0.27827953639E+02  0.30488226281E+02  0.43400730904E+02  0.00000000000E+00 0.  1.
         11    1    3    3    0    0  0.74908611816E+01  0.11996286047E+02 -0.21934473942E+02  0.26098755287E+02  0.51100000000E-03 0. -1.
        -11    1    3    3    0    0  0.48444321181E+01  0.10102615594E+01 -0.11241045415E+01  0.50747179475E+01  0.51100000000E-03 0.  1.
         12    1    3    3    0    0  0.10697989240E+01  0.14821406033E+02 -0.74296477972E+01  0.16613795861E+02  0.00000000000E+00 0. -1.
</event>
<event>
 7    1  0.1322363E-009  0.4778733E+02  0.7816164E-02  0.1312667E+00
        -11   -1    0    0    0    0  0.00000000000E+00  0.00000000000E+00  0.45593999997E+02  0.45594000000E+02  0.51100000000E-03 0.  1.
         11   -1    0    0    0    0 -0.00000000000E+00 -0.00000000000E+00 -0.45593999997E+02  0.45594000000E+02  0.51100000000E-03 0. -1.
    9900012    2    1    2    0    0  0.41510637083E+02  0.12303184269E+02 -0.30193777697E+01  0.47787332075E+02  0.20000278261E+02 0.  0.
        -12    1    1    2    0    0 -0.41510637083E+02 -0.12303184269E+02  0.30193777697E+01  0.43400667925E+02  0.00000000000E+00 0.  1.
         11    1    3    3    0    0  0.12103566865E+02  0.86366640589E+01 -0.59136183280E+00  0.14880793192E+02  0.51100000000E-03 0. -1.
        -11    1    3    3    0    0  0.19085125958E+02  0.86294082415E+01  0.94629854990E+00  0.20966740343E+02  0.51100000000E-03 0.  1.
         12    1    3    3    0    0  0.10321944260E+02 -0.49628880312E+01 -0.33743144868E+01  0.11939798540E+02  0.00000000000E+00 0. -1.
</event>
<event>
 7    1  0.1322363E-009  0.4778727E+02  0.7816164E-02  0.1312668E+00
        -11   -1    0    0    0    0  0.00000000000E+00  0.00000000000E+00  0.45593999997E+02  0.45594000000E+02  0.51100000000E-03 0.  1.
         11   -1    0    0    0    0 -0.00000000000E+00 -0.00000000000E+00 -0.45593999997E+02  0.45594000000E+02  0.51100000000E-03 0. -1.
    9900012    2    1    2    0    0 -0.68588583530E+01  0.47190580251E+00 -0.42852733869E+02  0.47787269211E+02  0.19999991640E+02 0.  0.
        -12    1    1    2    0    0  0.68588583530E+01 -0.47190580251E+00  0.42852733869E+02  0.43400730789E+02  0.00000000000E+00 0.  1.
         11    1    3    3    0    0  0.34976595029E+00  0.89649022121E+01 -0.21645196733E+02  0.23430884528E+02  0.51100000000E-03 0. -1.
        -11    1    3    3    0    0 -0.34947712872E+01 -0.17806488468E+01 -0.44842932258E+01  0.59576020899E+01  0.51100000000E-03 0.  1.
         12    1    3    3    0    0 -0.37138530161E+01 -0.67123475628E+01 -0.16723243910E+02  0.18398782593E+02  0.00000000000E+00 0. -1.
</event>
<event>
 7    1  0.1322363E-009  0.4778725E+02  0.7816164E-02  0.1312668E+00
        -11   -1    0    0    0    0  0.00000000000E+00  0.00000000000E+00  0.45593999997E+02  0.45594000000E+02  0.51100000000E-03 0.  1.
         11   -1    0    0    0    0 -0.00000000000E+00 -0.00000000000E+00 -0.45593999997E+02  0.45594000000E+02  0.51100000000E-03 0. -1.
    9900012    2    1    2    0    0 -0.17501746495E+02 -0.39413839648E+02  0.48849989744E+01  0.47787249993E+02  0.19999904016E+02 0.  0.
        -12    1    1    2    0    0  0.17501746495E+02  0.39413839648E+02 -0.48849989744E+01  0.43400750007E+02  0.00000000000E+00 0.  1.
         11    1    3    3    0    0 -0.19004826494E+01 -0.12083943791E+02  0.29902532099E+01  0.12592662401E+02  0.51100000000E-03 0. -1.
        -11    1    3    3    0    0 -0.32425194210E+01 -0.17514140454E+02  0.61583209064E+01  0.18846324965E+02  0.51100000000E-03 0.  1.
         12    1    3    3    0    0 -0.12358744425E+02 -0.98157554041E+01 -0.42635751420E+01  0.16348262627E+02  0.00000000000E+00 0. -1.
</event>
<event>
 7    1  0.1322363E-009  0.4778727E+02  0.7816164E-02  0.1312668E+00
        -11   -1    0    0    0    0  0.00000000000E+00  0.00000000000E+00  0.45593999997E+02  0.45594000000E+02  0.51100000000E-03 0. -1.
         11   -1    0    0    0    0 -0.00000000000E+00 -0.00000000000E+00 -0.45593999997E+02  0.45594000000E+02  0.51100000000E-03 0.  1.
    9900012    2    1    2    0    0 -0.32029964700E+02 -0.99248396300E+01  0.27553622106E+02  0.47787272223E+02  0.20000005375E+02 0.  0.
        -12    1    1    2    0    0  0.32029964700E+02  0.99248396300E+01 -0.27553622106E+02  0.43400727777E+02  0.00000000000E+00 0.  1.
         11    1    3    3    0    0 -0.18477722751E+02 -0.22866822787E+01  0.73225377901E+01  0.20006866668E+02  0.51100000000E-03 0. -1.
        -11    1    3    3    0    0  0.13900686870E+01  0.51651236207E+00  0.20498630636E+00  0.14970289315E+01  0.51100000000E-03 0.  1.
         12    1    3    3    0    0 -0.14942310636E+02 -0.81546697134E+01  0.20026098010E+02  0.26283376624E+02  0.00000000000E+00 0. -1.
</event>
<event>
 7    1  0.1322363E-009  0.4778728E+02  0.7816164E-02  0.1312668E+00
        -11   -1    0    0    0    0  0.00000000000E+00  0.00000000000E+00  0.45593999997E+02  0.45594000000E+02  0.51100000000E-03 0.  1.
         11   -1    0    0    0    0 -0.00000000000E+00 -0.00000000000E+00 -0.45593999997E+02  0.45594000000E+02  0.51100000000E-03 0. -1.
    9900012    2    1    2    0    0 -0.67751757086E+01 -0.31134131568E+02 -0.29468382981E+02  0.47787277081E+02  0.20000027523E+02 0.  0.
        -12    1    1    2    0    0  0.67751757086E+01  0.31134131568E+02  0.29468382981E+02  0.43400722919E+02  0.00000000000E+00 0.  1.
         11    1    3    3    0    0 -0.86695902833E+01 -0.23219759751E+02 -0.13820644238E+02  0.28378323523E+02  0.51100000000E-03 0. -1.
        -11    1    3    3    0    0 -0.22194736152E+01 -0.56891706570E+01 -0.12046754085E+02  0.13506184144E+02  0.51100000000E-03 0.  1.
        -12    1    3    3    0    0  0.41138881900E+01 -0.22252011603E+01 -0.36009846582E+01  0.59027694138E+01  0.00000000000E+00 0.  1.
</event>
<event>
 7    1  0.1322363E-009  0.4778728E+02  0.7816164E-02  0.1312668E+00
        -11   -1    0    0    0    0  0.00000000000E+00  0.00000000000E+00  0.45593999997E+02  0.45594000000E+02  0.51100000000E-03 0.  1.
         11   -1    0    0    0    0 -0.00000000000E+00 -0.00000000000E+00 -0.45593999997E+02  0.45594000000E+02  0.51100000000E-03 0. -1.
    9900012    2    1    2    0    0 -0.97644889197E+00  0.94615071738E+01 -0.42345593094E+02  0.47787276216E+02  0.20000023580E+02 0.  0.
        -12    1    1    2    0    0  0.97644889197E+00 -0.94615071738E+01  0.42345593094E+02  0.43400723784E+02  0.00000000000E+00 0.  1.
         11    1    3    3    0    0 -0.26578769717E+01  0.74239612751E+01 -0.29530271007E+02  0.30564954066E+02  0.51100000000E-03 0. -1.
        -11    1    3    3    0    0  0.13219149121E+01  0.62904662464E+01 -0.44093247384E+01  0.77948424963E+01  0.51100000000E-03 0.  1.
         12    1    3    3    0    0  0.35951316762E+00 -0.42529203477E+01 -0.84059973487E+01  0.94274796541E+01  0.00000000000E+00 0. -1.
</event>
<event>
 7    1  0.1322363E-009  0.4778727E+02  0.7816164E-02  0.1312668E+00
        -11   -1    0    0    0    0  0.00000000000E+00  0.00000000000E+00  0.45593999997E+02  0.45594000000E+02  0.51100000000E-03 0.  1.
         11   -1    0    0    0    0 -0.00000000000E+00 -0.00000000000E+00 -0.45593999997E+02  0.45594000000E+02  0.51100000000E-03 0. -1.
    9900012    2    1    2    0    0 -0.16107261771E+01 -0.31356981329E+02 -0.29962787845E+02  0.47787269910E+02  0.19999994828E+02 0.  0.
        -12    1    1    2    0    0  0.16107261771E+01  0.31356981329E+02  0.29962787845E+02  0.43400730090E+02  0.00000000000E+00 0.  1.
         11    1    3    3    0    0 -0.21262633469E+01 -0.22166222122E+02 -0.24521220746E+02  0.33123294917E+02  0.51100000000E-03 0. -1.
        -11    1    3    3    0    0 -0.16331372322E+01 -0.76547616433E+01 -0.78530249548E+01  0.11087493596E+02  0.51100000000E-03 0.  1.
        -12    1    3    3    0    0  0.21486744020E+01 -0.15359975633E+01  0.24114578554E+01  0.35764813978E+01  0.00000000000E+00 0.  1.
</event>
<event>
 7    1  0.1555580E-009  0.4778727E+02  0.7816164E-02  0.1312668E+00
        -11   -1    0    0    0    0  0.00000000000E+00  0.00000000000E+00  0.45593999997E+02  0.45594000000E+02  0.51100000000E-03 0.  1.
         11   -1    0    0    0    0 -0.00000000000E+00 -0.00000000000E+00 -0.45593999997E+02  0.45594000000E+02  0.51100000000E-03 0. -1.
    9900012    2    1    2    0    0  0.40248765726E+02 -0.13270558650E+02 -0.93569539170E+01  0.47787268946E+02  0.19999990434E+02 0.  0.
        -12    1    1    2    0    0 -0.40248765726E+02  0.13270558650E+02  0.93569539170E+01  0.43400731054E+02  0.00000000000E+00 0.  1.
         11    1    3    3    0    0  0.31907268639E+02 -0.16355713169E+02 -0.50629686448E+01  0.36210727651E+02  0.51100000000E-03 0. -1.
        -11    1    3    3    0    0  0.18696842262E+01  0.13467982922E+01  0.14735429428E+01  0.27351259223E+01  0.51100000000E-03 0.  1.
         12    1    3    3    0    0  0.64718128613E+01  0.17383562270E+01 -0.57675282150E+01  0.88414153728E+01  0.00000000000E+00 0. -1.
</event>
<event>
 7    1  0.1322363E-009  0.4778727E+02  0.7816164E-02  0.1312668E+00
        -11   -1    0    0    0    0  0.00000000000E+00  0.00000000000E+00  0.45593999997E+02  0.45594000000E+02  0.51100000000E-03 0. -1.
         11   -1    0    0    0    0 -0.00000000000E+00 -0.00000000000E+00 -0.45593999997E+02  0.45594000000E+02  0.51100000000E-03 0.  1.
    9900012    2    1    2    0    0 -0.25410804957E+02 -0.33695687461E+02  0.10124965040E+02  0.47787270984E+02  0.19999999725E+02 0.  0.
        -12    1    1    2    0    0  0.25410804957E+02  0.33695687461E+02 -0.10124965040E+02  0.43400729016E+02  0.00000000000E+00 0.  1.
         11    1    3    3    0    0  0.12639140868E+01 -0.27521368709E+01  0.79859010866E+00  0.31320093547E+01  0.51100000000E-03 0.  1.
        -11    1    3    3    0    0 -0.28072402653E+02 -0.25182711159E+02  0.86229293997E+01  0.38685703350E+02  0.51100000000E-03 0. -1.
         12    1    3    3    0    0  0.13976836094E+01 -0.57608394320E+01  0.70344553112E+00  0.59695582792E+01  0.00000000000E+00 0. -1.
</event>
<event>
 7    1  0.1448667E-009  0.4778727E+02  0.7816164E-02  0.1312668E+00
        -11   -1    0    0    0    0  0.00000000000E+00  0.00000000000E+00  0.45593999997E+02  0.45594000000E+02  0.51100000000E-03 0. -1.
         11   -1    0    0    0    0 -0.00000000000E+00 -0.00000000000E+00 -0.45593999997E+02  0.45594000000E+02  0.51100000000E-03 0.  1.
    9900012    2    1    2    0    0  0.48423798318E+01 -0.25124449866E+02  0.35056197465E+02  0.47787267239E+02  0.19999982648E+02 0.  0.
        -12    1    1    2    0    0 -0.48423798318E+01  0.25124449866E+02 -0.35056197465E+02  0.43400732761E+02  0.00000000000E+00 0.  1.
         11    1    3    3    0    0 -0.35679711069E+01 -0.48274128510E+01  0.10913752899E+02  0.12455694893E+02  0.51100000000E-03 0. -1.
        -11    1    3    3    0    0  0.26337233443E+01 -0.41794513969E+01 -0.87428871185E+00  0.50168410027E+01  0.51100000000E-03 0.  1.
         12    1    3    3    0    0  0.57766275944E+01 -0.16117585618E+02  0.25016733277E+02  0.30314731343E+02  0.00000000000E+00 0. -1.
</event>
<event>
 7    1  0.1322363E-009  0.4778727E+02  0.7816164E-02  0.1312668E+00
        -11   -1    0    0    0    0  0.00000000000E+00  0.00000000000E+00  0.45593999997E+02  0.45594000000E+02  0.51100000000E-03 0. -1.
         11   -1    0    0    0    0 -0.00000000000E+00 -0.00000000000E+00 -0.45593999997E+02  0.45594000000E+02  0.51100000000E-03 0.  1.
    9900012    2    1    2    0    0 -0.50518295315E+01  0.16787832275E+02  0.39702281039E+02  0.47787269433E+02  0.19999992651E+02 0.  0.
        -12    1    1    2    0    0  0.50518295315E+01 -0.16787832275E+02 -0.39702281039E+02  0.43400730567E+02  0.00000000000E+00 0.  1.
         11    1    3    3    0    0  0.19416090429E+01  0.48508287232E+01  0.14131510887E+02  0.15066518681E+02  0.51100000000E-03 0. -1.
        -11    1    3    3    0    0 -0.36720593884E+01  0.10499046077E+02  0.56529571720E+01  0.12476774973E+02  0.51100000000E-03 0.  1.
        -12    1    3    3    0    0 -0.33213791860E+01  0.14379574748E+01  0.19917812980E+02  0.20243975778E+02  0.00000000000E+00 0.  1.
</event>
<event>
 7    1  0.1322363E-009  0.4778727E+02  0.7816164E-02  0.1312668E+00
        -11   -1    0    0    0    0  0.00000000000E+00  0.00000000000E+00  0.45593999997E+02  0.45594000000E+02  0.51100000000E-03 0.  1.
         11   -1    0    0    0    0 -0.00000000000E+00 -0.00000000000E+00 -0.45593999997E+02  0.45594000000E+02  0.51100000000E-03 0. -1.
    9900012    2    1    2    0    0 -0.33885660971E+02 -0.18642946458E+02 -0.19693303323E+02  0.47787266506E+02  0.19999979306E+02 0.  0.
        -12    1    1    2    0    0  0.33885660971E+02  0.18642946458E+02  0.19693303323E+02  0.43400733494E+02  0.00000000000E+00 0.  1.
         11    1    3    3    0    0 -0.21350183243E+02 -0.17341681929E+02 -0.11667581628E+02  0.29878030690E+02  0.51100000000E-03 0. -1.
        -11    1    3    3    0    0 -0.11236818615E+02 -0.37897171354E+01 -0.31281450544E+01  0.12264311652E+02  0.51100000000E-03 0.  1.
        -12    1    3    3    0    0 -0.12986591137E+01  0.24884526061E+01 -0.48975766406E+01  0.56449241639E+01  0.00000000000E+00 0.  1.
</event>
<event>
 7    1  0.2183770E-009  0.4778727E+02  0.7816164E-02  0.1312668E+00
        -11   -1    0    0    0    0  0.00000000000E+00  0.00000000000E+00  0.45593999997E+02  0.45594000000E+02  0.51100000000E-03 0.  1.
         11   -1    0    0    0    0 -0.00000000000E+00 -0.00000000000E+00 -0.45593999997E+02  0.45594000000E+02  0.51100000000E-03 0. -1.
    9900012    2    1    2    0    0  0.37262471462E+02  0.21777013334E+02 -0.45709099029E+01  0.47787270669E+02  0.19999998286E+02 0.  0.
        -12    1    1    2    0    0 -0.37262471462E+02 -0.21777013334E+02  0.45709099029E+01  0.43400729331E+02  0.00000000000E+00 0.  1.
         11    1    3    3    0    0  0.20906778450E+02  0.16759299978E+02  0.12541759220E+00  0.26795209474E+02  0.51100000000E-03 0. -1.
        -11    1    3    3    0    0  0.82748314765E+01 -0.23119596422E+00  0.28477863883E+01  0.87542089941E+01  0.51100000000E-03 0.  1.
         12    1    3    3    0    0  0.80808615352E+01  0.52489093199E+01 -0.75441138834E+01  0.12237852201E+02  0.00000000000E+00 0. -1.
</event>
<event>
 7    1  0.1322363E-009  0.4778725E+02  0.7816164E-02  0.1312668E+00
        -11   -1    0    0    0    0  0.00000000000E+00  0.00000000000E+00  0.45593999997E+02  0.45594000000E+02  0.51100000000E-03 0.  1.
         11   -1    0    0    0    0 -0.00000000000E+00 -0.00000000000E+00 -0.45593999997E+02  0.45594000000E+02  0.51100000000E-03 0. -1.
    9900012    2    1    2    0    0  0.25129573646E+02  0.24997148306E+02 -0.25045409357E+02  0.47787246264E+02  0.19999887014E+02 0.  0.
        -12    1    1    2    0    0 -0.25129573646E+02 -0.24997148306E+02  0.25045409357E+02  0.43400753736E+02  0.00000000000E+00 0.  1.
         11    1    3    3    0    0  0.52316798242E+01  0.16367269913E+00 -0.67773360126E+01  0.85632672634E+01  0.51100000000E-03 0. -1.
        -11    1    3    3    0    0  0.84865991939E+01  0.94503082821E+01  0.77618818803E-01  0.12701839136E+02  0.51100000000E-03 0.  1.
         12    1    3    3    0    0  0.11411294628E+02  0.15383167324E+02 -0.18345692163E+02  0.26522139864E+02  0.00000000000E+00 0. -1.
</event>
<event>
 7    1  0.1322363E-009  0.4778727E+02  0.7816164E-02  0.1312668E+00
        -11   -1    0    0    0    0  0.00000000000E+00  0.00000000000E+00  0.45593999997E+02  0.45594000000E+02  0.51100000000E-03 0.  1.
         11   -1    0    0    0    0 -0.00000000000E+00 -0.00000000000E+00 -0.45593999997E+02  0.45594000000E+02  0.51100000000E-03 0. -1.
    9900012    2    1    2    0    0 -0.24937512573E+01  0.36512401277E+02 -0.23329139679E+02  0.47787274194E+02  0.20000014359E+02 0.  0.
        -12    1    1    2    0    0  0.24937512573E+01 -0.36512401277E+02  0.23329139679E+02  0.43400725806E+02  0.00000000000E+00 0.  1.
         11    1    3    3    0    0  0.39953986211E+01  0.19206474468E+02 -0.15846584276E+02  0.25218368407E+02  0.51100000000E-03 0. -1.
        -11    1    3    3    0    0 -0.57856736084E+01  0.18071378088E+02 -0.87787550490E+01  0.20907301729E+02  0.51100000000E-03 0.  1.
        -12    1    3    3    0    0 -0.70347626998E+00 -0.76545127937E+00  0.12961996458E+01  0.16616040579E+01  0.00000000000E+00 0.  1.
</event>
<event>
 7    1  0.1322363E-009  0.4778727E+02  0.7816164E-02  0.1312668E+00
        -11   -1    0    0    0    0  0.00000000000E+00  0.00000000000E+00  0.45593999997E+02  0.45594000000E+02  0.51100000000E-03 0.  1.
         11   -1    0    0    0    0 -0.00000000000E+00 -0.00000000000E+00 -0.45593999997E+02  0.45594000000E+02  0.51100000000E-03 0. -1.
    9900012    2    1    2    0    0 -0.20241082742E+02 -0.92326657027E+01 -0.37264995244E+02  0.47787269394E+02  0.19999992476E+02 0.  0.
        -12    1    1    2    0    0  0.20241082742E+02  0.92326657027E+01  0.37264995244E+02  0.43400730606E+02  0.00000000000E+00 0.  1.
         11    1    3    3    0    0 -0.20012431064E+02 -0.18469510352E+01 -0.33837259465E+02  0.39355669904E+02  0.51100000000E-03 0. -1.
        -11    1    3    3    0    0 -0.41621912740E+00 -0.38398604012E+01 -0.63518777009E+00  0.39142342836E+01  0.51100000000E-03 0.  1.
         12    1    3    3    0    0  0.18756744918E+00 -0.35458542663E+01 -0.27925480093E+01  0.45173652066E+01  0.00000000000E+00 0. -1.
</event>
<event>
 7    1  0.1322363E-009  0.4778727E+02  0.7816164E-02  0.1312668E+00
        -11   -1    0    0    0    0  0.00000000000E+00  0.00000000000E+00  0.45593999997E+02  0.45594000000E+02  0.51100000000E-03 0. -1.
         11   -1    0    0    0    0 -0.00000000000E+00 -0.00000000000E+00 -0.45593999997E+02  0.45594000000E+02  0.51100000000E-03 0.  1.
    9900012    2    1    2    0    0 -0.37738684570E+02 -0.10356882905E+02  0.18765658346E+02  0.47787271092E+02  0.20000000216E+02 0.  0.
        -12    1    1    2    0    0  0.37738684570E+02  0.10356882905E+02 -0.18765658346E+02  0.43400728908E+02  0.00000000000E+00 0.  1.
         11    1    3    3    0    0 -0.85148897541E+01 -0.36754694865E+01  0.83897767568E+00  0.93121591090E+01  0.51100000000E-03 0. -1.
        -11    1    3    3    0    0 -0.14708819561E+02  0.25618056432E+01  0.14728251810E+02  0.20972210724E+02  0.51100000000E-03 0.  1.
        -12    1    3    3    0    0 -0.14514975255E+02 -0.92432190622E+01  0.31984288605E+01  0.17502901258E+02  0.00000000000E+00 0.  1.
</event>
<event>
 7    1  0.1322363E-009  0.4778728E+02  0.7816164E-02  0.1312668E+00
        -11   -1    0    0    0    0  0.00000000000E+00  0.00000000000E+00  0.45593999997E+02  0.45594000000E+02  0.51100000000E-03 0.  1.
         11   -1    0    0    0    0 -0.00000000000E+00 -0.00000000000E+00 -0.45593999997E+02  0.45594000000E+02  0.51100000000E-03 0. -1.
    9900012    2    1    2    0    0 -0.22222844399E+02  0.89805329509E+01 -0.36181737103E+02  0.47787275524E+02  0.20000020424E+02 0.  0.
        -12    1    1    2    0    0  0.22222844399E+02 -0.89805329509E+01  0.36181737103E+02  0.43400724476E+02  0.00000000000E+00 0.  1.
         11    1    3    3    0    0 -0.22704016182E+02  0.46711084665E+01 -0.32558368815E+02  0.39966723474E+02  0.51100000000E-03 0. -1.
        -11    1    3    3    0    0  0.11125398893E+01 -0.10311520907E+01 -0.11375223748E+01  0.18960424715E+01  0.51100000000E-03 0.  1.
        -12    1    3    3    0    0 -0.63136810640E+00  0.53405765752E+01 -0.24858459125E+01  0.59245095782E+01  0.00000000000E+00 0.  1.
</event>
<event>
 7    1  0.1770606E-009  0.4778727E+02  0.7816164E-02  0.1312668E+00
        -11   -1    0    0    0    0  0.00000000000E+00  0.00000000000E+00  0.45593999997E+02  0.45594000000E+02  0.51100000000E-03 0.  1.
         11   -1    0    0    0    0 -0.00000000000E+00 -0.00000000000E+00 -0.45593999997E+02  0.45594000000E+02  0.51100000000E-03 0. -1.
    9900012    2    1    2    0    0  0.17525805496E+02  0.38373072858E+02 -0.10196905338E+02  0.47787268931E+02  0.19999990365E+02 0.  0.
        -12    1    1    2    0    0 -0.17525805496E+02 -0.38373072858E+02  0.10196905338E+02  0.43400731069E+02  0.00000000000E+00 0.  1.
         11    1    3    3    0    0  0.81443911904E+01  0.16571966537E+02 -0.22342529444E+01  0.18599813689E+02  0.51100000000E-03 0. -1.
        -11    1    3    3    0    0  0.62679279640E+01  0.10305980260E+02 -0.11600068432E+02  0.16735045204E+02  0.51100000000E-03 0.  1.
        -12    1    3    3    0    0  0.31134863419E+01  0.11495126060E+02  0.36374160382E+01  0.12452410039E+02  0.00000000000E+00 0.  1.
</event>
<event>
 7    1  0.1322363E-009  0.4778727E+02  0.7816164E-02  0.1312668E+00
        -11   -1    0    0    0    0  0.00000000000E+00  0.00000000000E+00  0.45593999997E+02  0.45594000000E+02  0.51100000000E-03 0. -1.
         11   -1    0    0    0    0 -0.00000000000E+00 -0.00000000000E+00 -0.45593999997E+02  0.45594000000E+02  0.51100000000E-03 0.  1.
    9900012    2    1    2    0    0 -0.25436789335E+02 -0.31358535978E+02 -0.15913360117E+02  0.47787273502E+02  0.20000011205E+02 0.  0.
        -12    1    1    2    0    0  0.25436789335E+02  0.31358535978E+02  0.15913360117E+02  0.43400726498E+02  0.00000000000E+00 0.  1.
         11    1    3    3    0    0 -0.14167863324E+02 -0.21358293245E+02 -0.13103966435E+02  0.28785742618E+02  0.51100000000E-03 0. -1.
        -11    1    3    3    0    0 -0.96263744172E+00 -0.82815900284E+01 -0.14998089228E+01  0.84711765008E+01  0.51100000000E-03 0.  1.
        -12    1    3    3    0    0 -0.10306288569E+02 -0.17186527049E+01 -0.13095847593E+01  0.10530354383E+02  0.00000000000E+00 0.  1.
</event>
<event>
 7    1  0.1322363E-009  0.4778727E+02  0.7816164E-02  0.1312668E+00
        -11   -1    0    0    0    0  0.00000000000E+00  0.00000000000E+00  0.45593999997E+02  0.45594000000E+02  0.51100000000E-03 0.  1.
         11   -1    0    0    0    0 -0.00000000000E+00 -0.00000000000E+00 -0.45593999997E+02  0.45594000000E+02  0.51100000000E-03 0. -1.
    9900012    2    1    2    0    0  0.32399695032E+02 -0.28686268200E+02  0.33137633329E+01  0.47787271333E+02  0.20000001315E+02 0.  0.
        -12    1    1    2    0    0 -0.32399695032E+02  0.28686268200E+02 -0.33137633329E+01  0.43400728667E+02  0.00000000000E+00 0.  1.
         11    1    3    3    0    0  0.67713518134E+01 -0.19774574948E+01 -0.56284465552E+01  0.90244642174E+01  0.51100000000E-03 0. -1.
        -11    1    3    3    0    0  0.12340461460E+02 -0.81129004295E+01  0.48455771862E+01  0.15543029337E+02  0.51100000000E-03 0.  1.
        -12    1    3    3    0    0  0.13287881758E+02 -0.18595910276E+02  0.40966327019E+01  0.23219777779E+02  0.00000000000E+00 0.  1.
</event>
<event>
 7    1  0.1322363E-009  0.4778727E+02  0.7816164E-02  0.1312668E+00
        -11   -1    0    0    0    0  0.00000000000E+00  0.00000000000E+00  0.45593999997E+02  0.45594000000E+02  0.51100000000E-03 0.  1.
         11   -1    0    0    0    0 -0.00000000000E+00 -0.00000000000E+00 -0.45593999997E+02  0.45594000000E+02  0.51100000000E-03 0. -1.
    9900012    2    1    2    0    0 -0.14230679018E+02 -0.20964746722E+02 -0.35236208508E+02  0.47787271660E+02  0.20000002805E+02 0.  0.
        -12    1    1    2    0    0  0.14230679018E+02  0.20964746722E+02  0.35236208508E+02  0.43400728340E+02  0.00000000000E+00 0.  1.
         11    1    3    3    0    0 -0.31210344871E+01 -0.44073028494E+01 -0.14665981192E+02  0.15628697299E+02  0.51100000000E-03 0. -1.
        -11    1    3    3    0    0 -0.13008858281E+02 -0.18037628051E+02 -0.17780274437E+02  0.28473225647E+02  0.51100000000E-03 0.  1.
         12    1    3    3    0    0  0.18992137501E+01  0.14801841778E+01 -0.27899528796E+01  0.36853487134E+01  0.00000000000E+00 0. -1.
</event>
<event>
 7    1  0.1322363E-009  0.4778728E+02  0.7816164E-02  0.1312668E+00
        -11   -1    0    0    0    0  0.00000000000E+00  0.00000000000E+00  0.45593999997E+02  0.45594000000E+02  0.51100000000E-03 0.  1.
         11   -1    0    0    0    0 -0.00000000000E+00 -0.00000000000E+00 -0.45593999997E+02  0.45594000000E+02  0.51100000000E-03 0. -1.
    9900012    2    1    2    0    0  0.34328210859E+02  0.11475249613E+02 -0.23948178383E+02  0.47787278089E+02  0.20000032121E+02 0.  0.
        -12    1    1    2    0    0 -0.34328210859E+02 -0.11475249613E+02  0.23948178383E+02  0.43400721911E+02  0.00000000000E+00 0.  1.
         11    1    3    3    0    0  0.45660218095E+00  0.52424312387E+01 -0.46381191643E+01  0.70145363701E+01  0.51100000000E-03 0. -1.
        -11    1    3    3    0    0  0.10377069864E+02 -0.26572006924E+01 -0.70199127656E+01  0.12807164791E+02  0.51100000000E-03 0.  1.
         12    1    3    3    0    0  0.23494538814E+02  0.88900190669E+01 -0.12290146453E+02  0.27965576928E+02  0.00000000000E+00 0. -1.
</event>
<event>
 7    1  0.1322363E-009  0.4778727E+02  0.7816164E-02  0.1312668E+00
        -11   -1    0    0    0    0  0.00000000000E+00  0.00000000000E+00  0.45593999997E+02  0.45594000000E+02  0.51100000000E-03 0. -1.
         11   -1    0    0    0    0 -0.00000000000E+00 -0.00000000000E+00 -0.45593999997E+02  0.45594000000E+02  0.51100000000E-03 0.  1.
    9900012    2    1    2    0    0 -0.37313057305E+02 -0.16379703916E+02  0.14935350233E+02  0.47787266914E+02  0.19999981169E+02 0.  0.
        -12    1    1    2    0    0  0.37313057305E+02  0.16379703916E+02 -0.14935350233E+02  0.43400733086E+02  0.00000000000E+00 0.  1.
         11    1    3    3    0    0 -0.29952537004E+02 -0.98456145089E+01  0.69558330855E+01  0.32287369237E+02  0.51100000000E-03 0. -1.
        -11    1    3    3    0    0 -0.62399338394E+00 -0.42773870316E+01 -0.59625273836E+00  0.43635908551E+01  0.51100000000E-03 0.  1.
        -12    1    3    3    0    0 -0.67365269165E+01 -0.22567023753E+01  0.85757698861E+01  0.11136306823E+02  0.00000000000E+00 0.  1.
</event>
<event>
 7    1  0.1322363E-009  0.4778727E+02  0.7816164E-02  0.1312668E+00
        -11   -1    0    0    0    0  0.00000000000E+00  0.00000000000E+00  0.45593999997E+02  0.45594000000E+02  0.51100000000E-03 0. -1.
         11   -1    0    0    0    0 -0.00000000000E+00 -0.00000000000E+00 -0.45593999997E+02  0.45594000000E+02  0.51100000000E-03 0.  1.
    9900012    2    1    2    0    0  0.14548066301E+02  0.24214734594E+02  0.32948802581E+02  0.47787271941E+02  0.20000004089E+02 0.  0.
        -12    1    1    2    0    0 -0.14548066301E+02 -0.24214734594E+02 -0.32948802581E+02  0.43400728059E+02  0.00000000000E+00 0.  1.
         11    1    3    3    0    0  0.19594431129E+01  0.51681684438E+01  0.15009320208E+02  0.15994657725E+02  0.51100000000E-03 0. -1.
        -11    1    3    3    0    0  0.49013086829E+01  0.51324707664E+00  0.76358754690E-01  0.49286996548E+01  0.51100000000E-03 0.  1.
         12    1    3    3    0    0  0.76873145050E+01  0.18533319073E+02  0.17863123618E+02  0.26863914562E+02  0.00000000000E+00 0. -1.
</event>
<event>
 7    1  0.1322363E-009  0.4778728E+02  0.7816164E-02  0.1312668E+00
        -11   -1    0    0    0    0  0.00000000000E+00  0.00000000000E+00  0.45593999997E+02  0.45594000000E+02  0.51100000000E-03 0. -1.
         11   -1    0    0    0    0 -0.00000000000E+00 -0.00000000000E+00 -0.45593999997E+02  0.45594000000E+02  0.51100000000E-03 0.  1.
    9900012    2    1    2    0    0 -0.33501320754E+02  0.27590879552E+02  0.16646879432E+00  0.47787276059E+02  0.20000022863E+02 0.  0.
        -12    1    1    2    0    0  0.33501320754E+02 -0.27590879552E+02 -0.16646879432E+00  0.43400723941E+02  0.00000000000E+00 0.  1.
         11    1    3    3    0    0 -0.35679587669E+01  0.25982972377E+01  0.40703805980E+01  0.60041216487E+01  0.51100000000E-03 0. -1.
        -11    1    3    3    0    0 -0.25677455419E+02  0.12835697645E+02 -0.22086233768E+01  0.28791750004E+02  0.51100000000E-03 0.  1.
         12    1    3    3    0    0 -0.42559065686E+01  0.12156884670E+02 -0.16952884269E+01  0.12991404406E+02  0.00000000000E+00 0. -1.
</event>
<event>
 7    1  0.1322363E-009  0.4778728E+02  0.7816164E-02  0.1312668E+00
        -11   -1    0    0    0    0  0.00000000000E+00  0.00000000000E+00  0.45593999997E+02  0.45594000000E+02  0.51100000000E-03 0.  1.
         11   -1    0    0    0    0 -0.00000000000E+00 -0.00000000000E+00 -0.45593999997E+02  0.45594000000E+02  0.51100000000E-03 0. -1.
    9900012    2    1    2    0    0  0.36744753859E+02  0.20504583039E+01 -0.23005243933E+02  0.47787279225E+02  0.20000037298E+02 0.  0.
        -12    1    1    2    0    0 -0.36744753859E+02 -0.20504583039E+01  0.23005243933E+02  0.43400720775E+02  0.00000000000E+00 0.  1.
         11    1    3    3    0    0  0.12013070588E+02  0.53490828673E+01 -0.10877248037E+02  0.17065786756E+02  0.51100000000E-03 0. -1.
        -11    1    3    3    0    0  0.17581235515E+02 -0.62914868208E+01 -0.13239996748E+02  0.22890612985E+02  0.51100000000E-03 0.  1.
        -12    1    3    3    0    0  0.71504477554E+01  0.29928622574E+01  0.11120008532E+01  0.78308794839E+01  0.00000000000E+00 0.  1.
</event>
<event>
 7    1  0.1322363E-009  0.4778727E+02  0.7816164E-02  0.1312668E+00
        -11   -1    0    0    0    0  0.00000000000E+00  0.00000000000E+00  0.45593999997E+02  0.45594000000E+02  0.51100000000E-03 0.  1.
         11   -1    0    0    0    0 -0.00000000000E+00 -0.00000000000E+00 -0.45593999997E+02  0.45594000000E+02  0.51100000000E-03 0. -1.
    9900012    2    1    2    0    0 -0.23416748872E+02  0.28127705539E+02 -0.23326194959E+02  0.47787270537E+02  0.19999997687E+02 0.  0.
        -12    1    1    2    0    0  0.23416748872E+02 -0.28127705539E+02  0.23326194959E+02  0.43400729463E+02  0.00000000000E+00 0.  1.
         11    1    3    3    0    0 -0.16606496798E+02  0.17734535666E+02 -0.69011590059E+01  0.25256988876E+02  0.51100000000E-03 0. -1.
        -11    1    3    3    0    0 -0.80348916775E+01  0.11266481867E+02 -0.14060779957E+02  0.19728117781E+02  0.51100000000E-03 0.  1.
        -12    1    3    3    0    0  0.12246396034E+01 -0.87331199325E+00 -0.23642559965E+01  0.28021638804E+01  0.00000000000E+00 0.  1.
</event>
<event>
 7    1  0.1322363E-009  0.4778732E+02  0.7816164E-02  0.1312668E+00
        -11   -1    0    0    0    0  0.00000000000E+00  0.00000000000E+00  0.45593999997E+02  0.45594000000E+02  0.51100000000E-03 0. -1.
         11   -1    0    0    0    0 -0.00000000000E+00 -0.00000000000E+00 -0.45593999997E+02  0.45594000000E+02  0.51100000000E-03 0.  1.
    9900012    2    1    2    0    0  0.40566714543E+02 -0.14911174708E+02 -0.39518878136E+01  0.47787321695E+02  0.20000230937E+02 0.  0.
        -12    1    1    2    0    0 -0.40566714543E+02  0.14911174708E+02  0.39518878136E+01  0.43400678305E+02  0.00000000000E+00 0.  1.
         11    1    3    3    0    0  0.20344821632E+02 -0.24547190814E+01 -0.58067282071E+01  0.21299190260E+02  0.51100000000E-03 0. -1.
        -11    1    3    3    0    0  0.32705883378E+01 -0.83576853426E+01  0.94811576759E+00  0.90247756831E+01  0.51100000000E-03 0.  1.
         12    1    3    3    0    0  0.16951304573E+02 -0.40987702843E+01  0.90672462595E+00  0.17463355752E+02  0.00000000000E+00 0. -1.
</event>
<event>
 7    1  0.1322363E-009  0.4778727E+02  0.7816164E-02  0.1312668E+00
        -11   -1    0    0    0    0  0.00000000000E+00  0.00000000000E+00  0.45593999997E+02  0.45594000000E+02  0.51100000000E-03 0. -1.
         11   -1    0    0    0    0 -0.00000000000E+00 -0.00000000000E+00 -0.45593999997E+02  0.45594000000E+02  0.51100000000E-03 0.  1.
    9900012    2    1    2    0    0 -0.15736663205E+02  0.37729397830E+02  0.14576472457E+02  0.47787267532E+02  0.19999983986E+02 0.  0.
        -12    1    1    2    0    0  0.15736663205E+02 -0.37729397830E+02 -0.14576472457E+02  0.43400732468E+02  0.00000000000E+00 0.  1.
         11    1    3    3    0    0 -0.13454882939E+01  0.18468440086E+02  0.60593292523E+01  0.19483559460E+02  0.51100000000E-03 0. -1.
        -11    1    3    3    0    0 -0.43613133132E+01  0.34188141062E+01  0.77633888938E+01  0.95383201396E+01  0.51100000000E-03 0.  1.
        -12    1    3    3    0    0 -0.10029861598E+02  0.15842143638E+02  0.75375431087E+00  0.18765387933E+02  0.00000000000E+00 0.  1.
</event>
<event>
 7    1  0.1322363E-009  0.4778726E+02  0.7816164E-02  0.1312668E+00
        -11   -1    0    0    0    0  0.00000000000E+00  0.00000000000E+00  0.45593999997E+02  0.45594000000E+02  0.51100000000E-03 0.  1.
         11   -1    0    0    0    0 -0.00000000000E+00 -0.00000000000E+00 -0.45593999997E+02  0.45594000000E+02  0.51100000000E-03 0. -1.
    9900012    2    1    2    0    0  0.23864028672E+02 -0.15194824271E+02 -0.32912757768E+02  0.47787260686E+02  0.19999952773E+02 0.  0.
        -12    1    1    2    0    0 -0.23864028672E+02  0.15194824271E+02  0.32912757768E+02  0.43400739314E+02  0.00000000000E+00 0.  1.
         11    1    3    3    0    0  0.46467582877E+01  0.22655558229E+01 -0.44564333582E+01  0.68253134952E+01  0.51100000000E-03 0. -1.
        -11    1    3    3    0    0  0.39261274470E+01 -0.10171004496E+02 -0.18032081013E+02  0.21071776269E+02  0.51100000000E-03 0.  1.
        -12    1    3    3    0    0  0.15291142937E+02 -0.72893755978E+01 -0.10424243397E+02  0.19890170922E+02  0.00000000000E+00 0.  1.
</event>
<event>
 7    1  0.1322363E-009  0.4778729E+02  0.7816164E-02  0.1312668E+00
        -11   -1    0    0    0    0  0.00000000000E+00  0.00000000000E+00  0.45593999997E+02  0.45594000000E+02  0.51100000000E-03 0.  1.
         11   -1    0    0    0    0 -0.00000000000E+00 -0.00000000000E+00 -0.45593999997E+02  0.45594000000E+02  0.51100000000E-03 0. -1.
    9900012    2    1    2    0    0 -0.62000226789E+01 -0.12251288684E+02 -0.41171434341E+02  0.47787293078E+02  0.20000100462E+02 0.  0.
        -12    1    1    2    0    0  0.62000226789E+01  0.12251288684E+02  0.41171434341E+02  0.43400706922E+02  0.00000000000E+00 0.  1.
         11    1    3    3    0    0 -0.26458943792E+01 -0.44412607968E+01 -0.53809782027E+01  0.74619354869E+01  0.51100000000E-03 0. -1.
        -11    1    3    3    0    0 -0.40541436476E+01 -0.12981722906E+01 -0.32915377580E+02  0.33189507581E+02  0.51100000000E-03 0.  1.
        -12    1    3    3    0    0  0.50001534795E+00 -0.65118555962E+01 -0.28750785582E+01  0.71358500103E+01  0.00000000000E+00 0.  1.
</event>
<event>
 7    1  0.1322363E-009  0.4778727E+02  0.7816164E-02  0.1312668E+00
        -11   -1    0    0    0    0  0.00000000000E+00  0.00000000000E+00  0.45593999997E+02  0.45594000000E+02  0.51100000000E-03 0.  1.
         11   -1    0    0    0    0 -0.00000000000E+00 -0.00000000000E+00 -0.45593999997E+02  0.45594000000E+02  0.51100000000E-03 0. -1.
    9900012    2    1    2    0    0 -0.72548625712E+01  0.21580446050E+01 -0.42735620986E+02  0.47787268572E+02  0.19999988728E+02 0.  0.
        -12    1    1    2    0    0  0.72548625712E+01 -0.21580446050E+01  0.42735620986E+02  0.43400731428E+02  0.00000000000E+00 0.  1.
         11    1    3    3    0    0 -0.29138196310E+01 -0.31997548791E+01 -0.40103111711E+02  0.40335943590E+02  0.51100000000E-03 0. -1.
        -11    1    3    3    0    0 -0.12868868919E+01  0.12418464850E+01 -0.27344928006E+00  0.18091532093E+01  0.51100000000E-03 0.  1.
         12    1    3    3    0    0 -0.30541560483E+01  0.41159529991E+01 -0.23590599946E+01  0.56421717730E+01  0.00000000000E+00 0. -1.
</event>
<event>
 7    1  0.1322363E-009  0.4778727E+02  0.7816164E-02  0.1312668E+00
        -11   -1    0    0    0    0  0.00000000000E+00  0.00000000000E+00  0.45593999997E+02  0.45594000000E+02  0.51100000000E-03 0.  1.
         11   -1    0    0    0    0 -0.00000000000E+00 -0.00000000000E+00 -0.45593999997E+02  0.45594000000E+02  0.51100000000E-03 0. -1.
    9900012    2    1    2    0    0  0.13022778361E+02  0.13434894264E+02 -0.39160365380E+02  0.47787270089E+02  0.19999995644E+02 0.  0.
        -12    1    1    2    0    0 -0.13022778361E+02 -0.13434894264E+02  0.39160365380E+02  0.43400729911E+02  0.00000000000E+00 0.  1.
         11    1    3    3    0    0  0.98777865564E+01  0.12742935369E+02 -0.23889717130E+02  0.28821374948E+02  0.51100000000E-03 0. -1.
        -11    1    3    3    0    0  0.41252503369E+01 -0.19015061978E+01 -0.13027982945E+01  0.47255369874E+01  0.51100000000E-03 0.  1.
         12    1    3    3    0    0 -0.98025853205E+00  0.25934650923E+01 -0.13967849955E+02  0.14240358154E+02  0.00000000000E+00 0. -1.
</event>
<event>
 7    1  0.1322363E-009  0.4778727E+02  0.7816164E-02  0.1312668E+00
        -11   -1    0    0    0    0  0.00000000000E+00  0.00000000000E+00  0.45593999997E+02  0.45594000000E+02  0.51100000000E-03 0.  1.
         11   -1    0    0    0    0 -0.00000000000E+00 -0.00000000000E+00 -0.45593999997E+02  0.45594000000E+02  0.51100000000E-03 0. -1.
    9900012    2    1    2    0    0 -0.30900164530E+02 -0.29834053338E+02 -0.62235444843E+01  0.47787269448E+02  0.19999992720E+02 0.  0.
        -12    1    1    2    0    0  0.30900164530E+02  0.29834053338E+02  0.62235444843E+01  0.43400730552E+02  0.00000000000E+00 0.  1.
         11    1    3    3    0    0 -0.12260203093E+02 -0.10926390149E+02  0.13532875012E+01  0.16478166430E+02  0.51100000000E-03 0. -1.
        -11    1    3    3    0    0 -0.99233768281E+01 -0.13956923661E+01 -0.60099252531E+01  0.11685057409E+02  0.51100000000E-03 0.  1.
         12    1    3    3    0    0 -0.87165846089E+01 -0.17511970823E+02 -0.15669067325E+01  0.19624045609E+02  0.00000000000E+00 0. -1.
</event>
<event>
 7    1  0.1322363E-009  0.4778727E+02  0.7816164E-02  0.1312668E+00
        -11   -1    0    0    0    0  0.00000000000E+00  0.00000000000E+00  0.45593999997E+02  0.45594000000E+02  0.51100000000E-03 0.  1.
         11   -1    0    0    0    0 -0.00000000000E+00 -0.00000000000E+00 -0.45593999997E+02  0.45594000000E+02  0.51100000000E-03 0. -1.
    9900012    2    1    2    0    0  0.17659898022E+02  0.79961388260E+01 -0.38830564329E+02  0.47787274656E+02  0.20000016466E+02 0.  0.
        -12    1    1    2    0    0 -0.17659898022E+02 -0.79961388260E+01  0.38830564329E+02  0.43400725344E+02  0.00000000000E+00 0.  1.
         11    1    3    3    0    0  0.39613955604E+00  0.42039520446E+00 -0.22538653167E+02  0.22546053879E+02  0.51100000000E-03 0. -1.
        -11    1    3    3    0    0  0.56520763367E+01  0.20930575940E+01 -0.29031004746E+01  0.66899065490E+01  0.51100000000E-03 0.  1.
         12    1    3    3    0    0  0.11611682129E+02  0.54826860276E+01 -0.13388810688E+02  0.18551314228E+02  0.00000000000E+00 0. -1.
</event>
<event>
 7    1  0.1322363E-009  0.4778727E+02  0.7816164E-02  0.1312668E+00
        -11   -1    0    0    0    0  0.00000000000E+00  0.00000000000E+00  0.45593999997E+02  0.45594000000E+02  0.51100000000E-03 0.  1.
         11   -1    0    0    0    0 -0.00000000000E+00 -0.00000000000E+00 -0.45593999997E+02  0.45594000000E+02  0.51100000000E-03 0. -1.
    9900012    2    1    2    0    0 -0.41944105738E+02 -0.96458881566E+01  0.55921321005E+01  0.47787272979E+02  0.20000008822E+02 0.  0.
        -12    1    1    2    0    0  0.41944105738E+02  0.96458881566E+01 -0.55921321005E+01  0.43400727021E+02  0.00000000000E+00 0.  1.
         11    1    3    3    0    0 -0.21450718084E+02 -0.82142421142E+01  0.24598061827E+00  0.22971016228E+02  0.51100000000E-03 0. -1.
        -11    1    3    3    0    0 -0.19967881107E+02  0.64372911567E-01  0.81723557546E+01  0.21575630202E+02  0.51100000000E-03 0.  1.
         12    1    3    3    0    0 -0.52550654703E+00 -0.14960189540E+01 -0.28262042724E+01  0.32406265491E+01  0.00000000000E+00 0. -1.
</event>
<event>
 7    1  0.1322363E-009  0.4778727E+02  0.7816164E-02  0.1312668E+00
        -11   -1    0    0    0    0  0.00000000000E+00  0.00000000000E+00  0.45593999997E+02  0.45594000000E+02  0.51100000000E-03 0.  1.
         11   -1    0    0    0    0 -0.00000000000E+00 -0.00000000000E+00 -0.45593999997E+02  0.45594000000E+02  0.51100000000E-03 0. -1.
    9900012    2    1    2    0    0 -0.29768623930E+02  0.70473458019E-02 -0.31582470913E+02  0.47787268562E+02  0.19999988681E+02 0.  0.
        -12    1    1    2    0    0  0.29768623930E+02 -0.70473458019E-02  0.31582470913E+02  0.43400731438E+02  0.00000000000E+00 0.  1.
         11    1    3    3    0    0 -0.37388714710E+01 -0.53258651698E+01 -0.13323392449E+02  0.14827568456E+02  0.51100000000E-03 0. -1.
        -11    1    3    3    0    0 -0.10387953051E+02 -0.77393591228E+00 -0.49487064259E+01  0.11532486330E+02  0.51100000000E-03 0.  1.
         12    1    3    3    0    0 -0.15641799408E+02  0.61068484279E+01 -0.13310372038E+02  0.21427213777E+02  0.00000000000E+00 0. -1.
</event>
<event>
 7    1  0.1322363E-009  0.4778725E+02  0.7816164E-02  0.1312668E+00
        -11   -1    0    0    0    0  0.00000000000E+00  0.00000000000E+00  0.45593999997E+02  0.45594000000E+02  0.51100000000E-03 0.  1.
         11   -1    0    0    0    0 -0.00000000000E+00 -0.00000000000E+00 -0.45593999997E+02  0.45594000000E+02  0.51100000000E-03 0. -1.
    9900012    2    1    2    0    0  0.39248494020E+02 -0.50072344083E+01  0.17835585568E+02  0.47787253557E+02  0.19999920269E+02 0.  0.
        -12    1    1    2    0    0 -0.39248494020E+02  0.50072344083E+01 -0.17835585568E+02  0.43400746443E+02  0.00000000000E+00 0.  1.
         11    1    3    3    0    0  0.76977825092E+01  0.20253150956E+00  0.10597795519E+02  0.13100005522E+02  0.51100000000E-03 0.  1.
        -11    1    3    3    0    0  0.65486784543E+01 -0.55104935717E+01 -0.32457389017E+00  0.85648162487E+01  0.51100000000E-03 0. -1.
        -12    1    3    3    0    0  0.25002033056E+02  0.30072765388E+00  0.75623639397E+01  0.26122431786E+02  0.00000000000E+00 0.  1.
</event>
<event>
 7    1  0.1322363E-009  0.4778728E+02  0.7816164E-02  0.1312668E+00
        -11   -1    0    0    0    0  0.00000000000E+00  0.00000000000E+00  0.45593999997E+02  0.45594000000E+02  0.51100000000E-03 0.  1.
         11   -1    0    0    0    0 -0.00000000000E+00 -0.00000000000E+00 -0.45593999997E+02  0.45594000000E+02  0.51100000000E-03 0. -1.
    9900012    2    1    2    0    0  0.42620989644E+02  0.74757179076E+01 -0.33447578704E+01  0.47787279710E+02  0.20000039509E+02 0.  0.
        -12    1    1    2    0    0 -0.42620989644E+02 -0.74757179076E+01  0.33447578704E+01  0.43400720290E+02  0.00000000000E+00 0.  1.
         11    1    3    3    0    0  0.54037766925E+01 -0.17915769651E+01 -0.46021717719E+01  0.73205557059E+01  0.51100000000E-03 0. -1.
        -11    1    3    3    0    0  0.87351289759E+01  0.73924574863E+01  0.31236893508E+01  0.11862054684E+02  0.51100000000E-03 0.  1.
        -12    1    3    3    0    0  0.28482083976E+02  0.18748373864E+01 -0.18662754493E+01  0.28604669320E+02  0.00000000000E+00 0.  1.
</event>
<event>
 7    1  0.1322363E-009  0.4778727E+02  0.7816164E-02  0.1312668E+00
        -11   -1    0    0    0    0  0.00000000000E+00  0.00000000000E+00  0.45593999997E+02  0.45594000000E+02  0.51100000000E-03 0.  1.
         11   -1    0    0    0    0 -0.00000000000E+00 -0.00000000000E+00 -0.45593999997E+02  0.45594000000E+02  0.51100000000E-03 0. -1.
    9900012    2    1    2    0    0  0.13227550373E+01 -0.23888420352E+02 -0.36210730371E+02  0.47787270723E+02  0.19999998533E+02 0.  0.
        -12    1    1    2    0    0 -0.13227550373E+01  0.23888420352E+02  0.36210730371E+02  0.43400729277E+02  0.00000000000E+00 0.  1.
         11    1    3    3    0    0  0.11269903767E+01  0.71440219011E+00 -0.15003268826E+02  0.15062488292E+02  0.51100000000E-03 0. -1.
        -11    1    3    3    0    0 -0.94005131714E+00 -0.88946790655E+01 -0.98668995183E+01  0.13317459162E+02  0.51100000000E-03 0.  1.
         12    1    3    3    0    0  0.11358159777E+01 -0.15708143476E+02 -0.11340562026E+02  0.19407323269E+02  0.00000000000E+00 0. -1.
</event>
<event>
 7    1  0.1322363E-009  0.4778727E+02  0.7816164E-02  0.1312668E+00
        -11   -1    0    0    0    0  0.00000000000E+00  0.00000000000E+00  0.45593999997E+02  0.45594000000E+02  0.51100000000E-03 0. -1.
         11   -1    0    0    0    0 -0.00000000000E+00 -0.00000000000E+00 -0.45593999997E+02  0.45594000000E+02  0.51100000000E-03 0.  1.
    9900012    2    1    2    0    0  0.72715997500E+01  0.27964668119E+02  0.32384013872E+02  0.47787272121E+02  0.20000004910E+02 0.  0.
        -12    1    1    2    0    0 -0.72715997500E+01 -0.27964668119E+02 -0.32384013872E+02  0.43400727879E+02  0.00000000000E+00 0.  1.
         11    1    3    3    0    0  0.46845631767E+01  0.11752096024E+02  0.53258121468E+01  0.13726659040E+02  0.51100000000E-03 0. -1.
        -11    1    3    3    0    0 -0.82630622424E+00  0.16711999288E+02  0.19134559311E+02  0.25418596784E+02  0.51100000000E-03 0.  1.
         12    1    3    3    0    0  0.34133427975E+01 -0.49942719318E+00  0.79236424137E+01  0.86420162968E+01  0.00000000000E+00 0. -1.
</event>
<event>
 7    1  0.1322363E-009  0.4778728E+02  0.7816164E-02  0.1312668E+00
        -11   -1    0    0    0    0  0.00000000000E+00  0.00000000000E+00  0.45593999997E+02  0.45594000000E+02  0.51100000000E-03 0.  1.
         11   -1    0    0    0    0 -0.00000000000E+00 -0.00000000000E+00 -0.45593999997E+02  0.45594000000E+02  0.51100000000E-03 0. -1.
    9900012    2    1    2    0    0  0.53164356055E+01  0.18161049612E+01 -0.43035565733E+02  0.47787278316E+02  0.20000033153E+02 0.  0.
        -12    1    1    2    0    0 -0.53164356055E+01 -0.18161049612E+01  0.43035565733E+02  0.43400721684E+02  0.00000000000E+00 0.  1.
         11    1    3    3    0    0  0.98093653295E+01 -0.36417306866E+01 -0.28600942403E+02  0.30454880678E+02  0.51100000000E-03 0.  1.
        -11    1    3    3    0    0 -0.30300523556E+01  0.39640771792E-02 -0.89958110766E+01  0.94924101354E+01  0.51100000000E-03 0. -1.
        -12    1    3    3    0    0 -0.14628773684E+01  0.54538715706E+01 -0.54388122535E+01  0.78399875020E+01  0.00000000000E+00 0.  1.
</event>
<event>
 7    1  0.1487001E-009  0.4778726E+02  0.7816164E-02  0.1312668E+00
        -11   -1    0    0    0    0  0.00000000000E+00  0.00000000000E+00  0.45593999997E+02  0.45594000000E+02  0.51100000000E-03 0. -1.
         11   -1    0    0    0    0 -0.00000000000E+00 -0.00000000000E+00 -0.45593999997E+02  0.45594000000E+02  0.51100000000E-03 0.  1.
    9900012    2    1    2    0    0 -0.20473290115E+02  0.32408464081E+00  0.38267002872E+02  0.47787260976E+02  0.19999954094E+02 0.  0.
        -12    1    1    2    0    0  0.20473290115E+02 -0.32408464081E+00 -0.38267002872E+02  0.43400739024E+02  0.00000000000E+00 0.  1.
         11    1    3    3    0    0 -0.16255358269E+02 -0.14333442144E+01  0.29004282456E+02  0.33279716783E+02  0.51100000000E-03 0. -1.
        -11    1    3    3    0    0 -0.22401197322E+01 -0.41262872200E+01  0.24676110307E+01  0.53041009697E+01  0.51100000000E-03 0.  1.
         12    1    3    3    0    0 -0.19778121146E+01  0.58837160752E+01  0.67951093854E+01  0.92034432238E+01  0.00000000000E+00 0. -1.
</event>
<event>
 7    1  0.1322363E-009  0.4778725E+02  0.7816164E-02  0.1312668E+00
        -11   -1    0    0    0    0  0.00000000000E+00  0.00000000000E+00  0.45593999997E+02  0.45594000000E+02  0.51100000000E-03 0.  1.
         11   -1    0    0    0    0 -0.00000000000E+00 -0.00000000000E+00 -0.45593999997E+02  0.45594000000E+02  0.51100000000E-03 0. -1.
    9900012    2    1    2    0    0  0.48827564356E+01 -0.10543498832E+02 -0.41816484263E+02  0.47787250765E+02  0.19999907540E+02 0.  0.
        -12    1    1    2    0    0 -0.48827564356E+01  0.10543498832E+02  0.41816484263E+02  0.43400749235E+02  0.00000000000E+00 0.  1.
         11    1    3    3    0    0 -0.51848207079E+01 -0.85383782497E+01 -0.15516403462E+02  0.18453862619E+02  0.51100000000E-03 0. -1.
        -11    1    3    3    0    0  0.34124637315E+01 -0.71549924894E+00 -0.18220910983E+01  0.39340645808E+01  0.51100000000E-03 0.  1.
        -12    1    3    3    0    0  0.66551134120E+01 -0.12896213332E+01 -0.24477989702E+02  0.25399323565E+02  0.00000000000E+00 0.  1.
</event>
<event>
 7    1  0.1322363E-009  0.4778728E+02  0.7816164E-02  0.1312668E+00
        -11   -1    0    0    0    0  0.00000000000E+00  0.00000000000E+00  0.45593999997E+02  0.45594000000E+02  0.51100000000E-03 0.  1.
         11   -1    0    0    0    0 -0.00000000000E+00 -0.00000000000E+00 -0.45593999997E+02  0.45594000000E+02  0.51100000000E-03 0. -1.
    9900012    2    1    2    0    0  0.51301388537E+01  0.15814449566E+02 -0.40089991423E+02  0.47787279361E+02  0.20000037917E+02 0.  0.
        -12    1    1    2    0    0 -0.51301388537E+01 -0.15814449566E+02  0.40089991423E+02  0.43400720639E+02  0.00000000000E+00 0.  1.
         11    1    3    3    0    0 -0.33644979573E+01  0.28949083237E+01 -0.20192490917E+02  0.20674550307E+02  0.51100000000E-03 0. -1.
        -11    1    3    3    0    0 -0.13409331129E+00  0.50743917835E+01 -0.14343270967E+01  0.52749149254E+01  0.51100000000E-03 0.  1.
        -12    1    3    3    0    0  0.86287301224E+01  0.78451494589E+01 -0.18463173409E+02  0.21837814128E+02  0.00000000000E+00 0.  1.
</event>
<event>
 7    1  0.1322363E-009  0.4778727E+02  0.7816164E-02  0.1312668E+00
        -11   -1    0    0    0    0  0.00000000000E+00  0.00000000000E+00  0.45593999997E+02  0.45594000000E+02  0.51100000000E-03 0. -1.
         11   -1    0    0    0    0 -0.00000000000E+00 -0.00000000000E+00 -0.45593999997E+02  0.45594000000E+02  0.51100000000E-03 0.  1.
    9900012    2    1    2    0    0  0.21011301132E+02  0.25306508083E+02  0.28314825322E+02  0.47787268904E+02  0.19999990241E+02 0.  0.
        -12    1    1    2    0    0 -0.21011301132E+02 -0.25306508083E+02 -0.28314825322E+02  0.43400731096E+02  0.00000000000E+00 0.  1.
         11    1    3    3    0    0  0.96359725497E+01  0.77444875493E+01  0.96771617767E+01  0.15699570526E+02  0.51100000000E-03 0. -1.
        -11    1    3    3    0    0 -0.10996517588E+01  0.11735198980E+02  0.53182912007E+01  0.12930906800E+02  0.51100000000E-03 0.  1.
        -12    1    3    3    0    0  0.12474980341E+02  0.58268215534E+01  0.13319372345E+02  0.19156791579E+02  0.00000000000E+00 0.  1.
</event>
<event>
 7    1  0.1322363E-009  0.4778726E+02  0.7816164E-02  0.1312668E+00
        -11   -1    0    0    0    0  0.00000000000E+00  0.00000000000E+00  0.45593999997E+02  0.45594000000E+02  0.51100000000E-03 0.  1.
         11   -1    0    0    0    0 -0.00000000000E+00 -0.00000000000E+00 -0.45593999997E+02  0.45594000000E+02  0.51100000000E-03 0. -1.
    9900012    2    1    2    0    0  0.24077916543E+02  0.22436139461E+02 -0.28293063301E+02  0.47787264408E+02  0.19999969742E+02 0.  0.
        -12    1    1    2    0    0 -0.24077916543E+02 -0.22436139461E+02  0.28293063301E+02  0.43400735592E+02  0.00000000000E+00 0.  1.
         11    1    3    3    0    0  0.52421660540E+01  0.92456715933E+01 -0.12302755603E+01  0.10699361026E+02  0.51100000000E-03 0. -1.
        -11    1    3    3    0    0  0.62345322941E+01 -0.10360847842E+01 -0.59307561923E+01  0.86669910511E+01  0.51100000000E-03 0.  1.
        -12    1    3    3    0    0  0.12601218194E+02  0.14226552652E+02 -0.21132031549E+02  0.28420912331E+02  0.00000000000E+00 0.  1.
</event>
<event>
 7    1  0.1322363E-009  0.4778727E+02  0.7816164E-02  0.1312668E+00
        -11   -1    0    0    0    0  0.00000000000E+00  0.00000000000E+00  0.45593999997E+02  0.45594000000E+02  0.51100000000E-03 0. -1.
         11   -1    0    0    0    0 -0.00000000000E+00 -0.00000000000E+00 -0.45593999997E+02  0.45594000000E+02  0.51100000000E-03 0.  1.
    9900012    2    1    2    0    0  0.58151834393E+01 -0.42943055551E+02  0.23877453382E+01  0.47787266062E+02  0.19999977285E+02 0.  0.
        -12    1    1    2    0    0 -0.58151834393E+01  0.42943055551E+02 -0.23877453382E+01  0.43400733938E+02  0.00000000000E+00 0.  1.
         11    1    3    3    0    0 -0.54298667731E+00 -0.36663198052E+02 -0.16266169454E+01  0.36703280629E+02  0.51100000000E-03 0. -1.
        -11    1    3    3    0    0  0.29312792515E+01 -0.61447656038E+01  0.33617764310E+01  0.75928969049E+01  0.51100000000E-03 0.  1.
         12    1    3    3    0    0  0.34268908652E+01 -0.13509189538E+00  0.65258585247E+00  0.34910885289E+01  0.00000000000E+00 0. -1.
</event>
<event>
 7    1  0.1322363E-009  0.4778727E+02  0.7816164E-02  0.1312668E+00
        -11   -1    0    0    0    0  0.00000000000E+00  0.00000000000E+00  0.45593999997E+02  0.45594000000E+02  0.51100000000E-03 0. -1.
         11   -1    0    0    0    0 -0.00000000000E+00 -0.00000000000E+00 -0.45593999997E+02  0.45594000000E+02  0.51100000000E-03 0.  1.
    9900012    2    1    2    0    0  0.41355797405E+02  0.40309148559E+01  0.12532882221E+02  0.47787269703E+02  0.19999993883E+02 0.  0.
        -12    1    1    2    0    0 -0.41355797405E+02 -0.40309148559E+01 -0.12532882221E+02  0.43400730297E+02  0.00000000000E+00 0.  1.
         11    1    3    3    0    0  0.13147059811E+02  0.35562363277E+01 -0.28732735582E+01  0.13919328277E+02  0.51100000000E-03 0. -1.
        -11    1    3    3    0    0  0.10292578464E+02 -0.47946915359E+01  0.43093886138E+01  0.12144837127E+02  0.51100000000E-03 0.  1.
         12    1    3    3    0    0  0.17916159130E+02  0.52693700640E+01  0.11096767165E+02  0.21723104298E+02  0.00000000000E+00 0. -1.
</event>
<event>
 7    1  0.1322363E-009  0.4778727E+02  0.7816164E-02  0.1312668E+00
        -11   -1    0    0    0    0  0.00000000000E+00  0.00000000000E+00  0.45593999997E+02  0.45594000000E+02  0.51100000000E-03 0.  1.
         11   -1    0    0    0    0 -0.00000000000E+00 -0.00000000000E+00 -0.45593999997E+02  0.45594000000E+02  0.51100000000E-03 0. -1.
    9900012    2    1    2    0    0 -0.24780361477E+02 -0.35617169494E+02 -0.98692056012E+00  0.47787273164E+02  0.20000009663E+02 0.  0.
        -12    1    1    2    0    0  0.24780361477E+02  0.35617169494E+02  0.98692056012E+00  0.43400726836E+02  0.00000000000E+00 0.  1.
         11    1    3    3    0    0 -0.11995051618E+02 -0.24511425957E+02 -0.75349560307E+01  0.28310189481E+02  0.51100000000E-03 0. -1.
        -11    1    3    3    0    0 -0.10553438112E+02 -0.94143016616E+01  0.22103520608E+01  0.14313971785E+02  0.51100000000E-03 0.  1.
         12    1    3    3    0    0 -0.22318717471E+01 -0.16914418752E+01  0.43376834098E+01  0.51631118985E+01  0.00000000000E+00 0. -1.
</event>
<event>
 7    1  0.1322363E-009  0.4778728E+02  0.7816164E-02  0.1312668E+00
        -11   -1    0    0    0    0  0.00000000000E+00  0.00000000000E+00  0.45593999997E+02  0.45594000000E+02  0.51100000000E-03 0.  1.
         11   -1    0    0    0    0 -0.00000000000E+00 -0.00000000000E+00 -0.45593999997E+02  0.45594000000E+02  0.51100000000E-03 0. -1.
    9900012    2    1    2    0    0 -0.41330298744E+02  0.12299718999E+02 -0.49138741014E+01  0.47787276038E+02  0.20000022770E+02 0.  0.
        -12    1    1    2    0    0  0.41330298744E+02 -0.12299718999E+02  0.49138741014E+01  0.43400723962E+02  0.00000000000E+00 0.  1.
         11    1    3    3    0    0 -0.18001895916E+02  0.12096514523E+02 -0.43912134965E+01  0.22128639281E+02  0.51100000000E-03 0. -1.
        -11    1    3    3    0    0 -0.20492224006E+02  0.27248094146E+01  0.24780674181E+01  0.20820582352E+02  0.51100000000E-03 0.  1.
         12    1    3    3    0    0 -0.28361788208E+01 -0.25216049380E+01 -0.30007280231E+01  0.48380544060E+01  0.00000000000E+00 0. -1.
</event>
<event>
 7    1  0.1322363E-009  0.4778727E+02  0.7816164E-02  0.1312668E+00
        -11   -1    0    0    0    0  0.00000000000E+00  0.00000000000E+00  0.45593999997E+02  0.45594000000E+02  0.51100000000E-03 0.  1.
         11   -1    0    0    0    0 -0.00000000000E+00 -0.00000000000E+00 -0.45593999997E+02  0.45594000000E+02  0.51100000000E-03 0. -1.
    9900012    2    1    2    0    0  0.37073861937E+02  0.39644746463E+01 -0.22213399331E+02  0.47787269499E+02  0.19999992954E+02 0.  0.
        -12    1    1    2    0    0 -0.37073861937E+02 -0.39644746463E+01  0.22213399331E+02  0.43400730501E+02  0.00000000000E+00 0.  1.
         11    1    3    3    0    0  0.91024396063E+01  0.77388422080E+01 -0.19782251869E+00  0.11949193258E+02  0.51100000000E-03 0. -1.
        -11    1    3    3    0    0  0.11861598286E+02 -0.23317585028E+01 -0.88266013283E+01  0.14968082806E+02  0.51100000000E-03 0.  1.
         12    1    3    3    0    0  0.16109824045E+02 -0.14426090589E+01 -0.13188975485E+02  0.20869993435E+02  0.00000000000E+00 0. -1.
</event>
<event>
 7    1  0.1322363E-009  0.4778727E+02  0.7816164E-02  0.1312668E+00
        -11   -1    0    0    0    0  0.00000000000E+00  0.00000000000E+00  0.45593999997E+02  0.45594000000E+02  0.51100000000E-03 0.  1.
         11   -1    0    0    0    0 -0.00000000000E+00 -0.00000000000E+00 -0.45593999997E+02  0.45594000000E+02  0.51100000000E-03 0. -1.
    9900012    2    1    2    0    0 -0.30465198175E+01  0.41854050501E+02 -0.11071599555E+02  0.47787272552E+02  0.20000006873E+02 0.  0.
        -12    1    1    2    0    0  0.30465198175E+01 -0.41854050501E+02  0.11071599555E+02  0.43400727448E+02  0.00000000000E+00 0.  1.
         11    1    3    3    0    0  0.78260007948E-01 -0.37629389569E+00 -0.79806740460E-01  0.39254439459E+00  0.51100000000E-03 0. -1.
        -11    1    3    3    0    0 -0.84352459903E+01  0.13019332584E+02  0.59393627053E+00  0.15524469601E+02  0.51100000000E-03 0.  1.
         12    1    3    3    0    0  0.53104661648E+01  0.29211011812E+02 -0.11585729085E+02  0.31870258556E+02  0.00000000000E+00 0. -1.
</event>
<event>
 7    1  0.1322363E-009  0.4778731E+02  0.7816164E-02  0.1312668E+00
        -11   -1    0    0    0    0  0.00000000000E+00  0.00000000000E+00  0.45593999997E+02  0.45594000000E+02  0.51100000000E-03 0.  1.
         11   -1    0    0    0    0 -0.00000000000E+00 -0.00000000000E+00 -0.45593999997E+02  0.45594000000E+02  0.51100000000E-03 0. -1.
    9900012    2    1    2    0    0  0.10472221661E+02  0.22793795748E+02 -0.35417448780E+02  0.47787306121E+02  0.20000159927E+02 0.  0.
        -12    1    1    2    0    0 -0.10472221661E+02 -0.22793795748E+02  0.35417448780E+02  0.43400693879E+02  0.00000000000E+00 0.  1.
         11    1    3    3    0    0  0.39562442937E+00  0.13438753108E+02 -0.25321517568E+02  0.28669423712E+02  0.51100000000E-03 0. -1.
        -11    1    3    3    0    0  0.26125679596E+01  0.74800425574E+01 -0.77230273913E+01  0.11064434028E+02  0.51100000000E-03 0.  1.
        -12    1    3    3    0    0  0.74640292723E+01  0.18750000820E+01 -0.23729038207E+01  0.80534483812E+01  0.00000000000E+00 0.  1.
</event>
<event>
 7    1  0.1322363E-009  0.4778727E+02  0.7816164E-02  0.1312668E+00
        -11   -1    0    0    0    0  0.00000000000E+00  0.00000000000E+00  0.45593999997E+02  0.45594000000E+02  0.51100000000E-03 0. -1.
         11   -1    0    0    0    0 -0.00000000000E+00 -0.00000000000E+00 -0.45593999997E+02  0.45594000000E+02  0.51100000000E-03 0.  1.
    9900012    2    1    2    0    0 -0.24970141586E+02 -0.29190933428E+02  0.20199123318E+02  0.47787272494E+02  0.20000006609E+02 0.  0.
        -12    1    1    2    0    0  0.24970141586E+02  0.29190933428E+02 -0.20199123318E+02  0.43400727506E+02  0.00000000000E+00 0.  1.
         11    1    3    3    0    0 -0.97745292058E+00 -0.10551747180E+02  0.99499852982E+01  0.14536058285E+02  0.51100000000E-03 0. -1.
        -11    1    3    3    0    0 -0.63442216244E+01 -0.58920675155E+00  0.16377687688E+01  0.65786472330E+01  0.51100000000E-03 0.  1.
        -12    1    3    3    0    0 -0.17648467041E+02 -0.18049979497E+02  0.86113692508E+01  0.26672566977E+02  0.00000000000E+00 0.  1.
</event>
<event>
 7    1  0.1322363E-009  0.4778727E+02  0.7816164E-02  0.1312668E+00
        -11   -1    0    0    0    0  0.00000000000E+00  0.00000000000E+00  0.45593999997E+02  0.45594000000E+02  0.51100000000E-03 0.  1.
         11   -1    0    0    0    0 -0.00000000000E+00 -0.00000000000E+00 -0.45593999997E+02  0.45594000000E+02  0.51100000000E-03 0. -1.
    9900012    2    1    2    0    0 -0.12267730689E+02  0.15075039504E+02 -0.38805526865E+02  0.47787274804E+02  0.20000017140E+02 0.  0.
        -12    1    1    2    0    0  0.12267730689E+02 -0.15075039504E+02  0.38805526865E+02  0.43400725196E+02  0.00000000000E+00 0.  1.
         11    1    3    3    0    0 -0.14618181922E+01  0.13653812653E+01 -0.79096319116E+00  0.21510001064E+01  0.51100000000E-03 0. -1.
        -11    1    3    3    0    0 -0.27276476041E+01  0.59574847268E+01 -0.59680424445E+00  0.65793511298E+01  0.51100000000E-03 0.  1.
         12    1    3    3    0    0 -0.80782648924E+01  0.77521735117E+01 -0.37417759430E+02  0.39056923567E+02  0.00000000000E+00 0. -1.
</event>
<event>
 7    1  0.1322363E-009  0.4778727E+02  0.7816164E-02  0.1312668E+00
        -11   -1    0    0    0    0  0.00000000000E+00  0.00000000000E+00  0.45593999997E+02  0.45594000000E+02  0.51100000000E-03 0. -1.
         11   -1    0    0    0    0 -0.00000000000E+00 -0.00000000000E+00 -0.45593999997E+02  0.45594000000E+02  0.51100000000E-03 0.  1.
    9900012    2    1    2    0    0  0.26633139138E+02 -0.87207429419E+01  0.33139819751E+02  0.47787272922E+02  0.20000008559E+02 0.  0.
        -12    1    1    2    0    0 -0.26633139138E+02  0.87207429419E+01 -0.33139819751E+02  0.43400727078E+02  0.00000000000E+00 0.  1.
         11    1    3    3    0    0  0.92076223797E+01 -0.41957484808E+01  0.59039065821E+01  0.11714978805E+02  0.51100000000E-03 0. -1.
        -11    1    3    3    0    0  0.23658924861E+01 -0.78506556353E+01  0.85983036983E+01  0.11881122334E+02  0.51100000000E-03 0.  1.
         12    1    3    3    0    0  0.15059624272E+02  0.33256611743E+01  0.18637609471E+02  0.24191171783E+02  0.00000000000E+00 0. -1.
</event>
<event>
 7    1  0.1322363E-009  0.4778726E+02  0.7816164E-02  0.1312668E+00
        -11   -1    0    0    0    0  0.00000000000E+00  0.00000000000E+00  0.45593999997E+02  0.45594000000E+02  0.51100000000E-03 0.  1.
         11   -1    0    0    0    0 -0.00000000000E+00 -0.00000000000E+00 -0.45593999997E+02  0.45594000000E+02  0.51100000000E-03 0. -1.
    9900012    2    1    2    0    0  0.70116360653E-01 -0.16101920619E+01 -0.43370798743E+02  0.47787264772E+02  0.19999971400E+02 0.  0.
        -12    1    1    2    0    0 -0.70116360653E-01  0.16101920619E+01  0.43370798743E+02  0.43400735228E+02  0.00000000000E+00 0.  1.
         11    1    3    3    0    0  0.39044782933E+01 -0.25606405863E+01 -0.26036885414E+02  0.26452244390E+02  0.51100000000E-03 0. -1.
        -11    1    3    3    0    0  0.32406657612E+01  0.12413615618E+01 -0.11269446217E+01  0.36486843580E+01  0.51100000000E-03 0.  1.
        -12    1    3    3    0    0 -0.70750276939E+01 -0.29091303741E+00 -0.16206968707E+02  0.17686336024E+02  0.00000000000E+00 0.  1.
</event>
<event>
 7    1  0.1322363E-009  0.4778727E+02  0.7816164E-02  0.1312668E+00
        -11   -1    0    0    0    0  0.00000000000E+00  0.00000000000E+00  0.45593999997E+02  0.45594000000E+02  0.51100000000E-03 0. -1.
         11   -1    0    0    0    0 -0.00000000000E+00 -0.00000000000E+00 -0.45593999997E+02  0.45594000000E+02  0.51100000000E-03 0.  1.
    9900012    2    1    2    0    0  0.18388774024E+02 -0.39244421927E+02 -0.23133328681E+01  0.47787272225E+02  0.20000005382E+02 0.  0.
        -12    1    1    2    0    0 -0.18388774024E+02  0.39244421927E+02  0.23133328681E+01  0.43400727775E+02  0.00000000000E+00 0.  1.
         11    1    3    3    0    0 -0.10954026446E+01 -0.39225728240E+01 -0.44762225586E+01  0.60516983706E+01  0.51100000000E-03 0.  1.
        -11    1    3    3    0    0  0.12458827453E+02 -0.13713943098E+02  0.39483553970E+01  0.18944237314E+02  0.51100000000E-03 0. -1.
         12    1    3    3    0    0  0.70253492158E+01 -0.21607906005E+02 -0.17854657065E+01  0.22791336540E+02  0.00000000000E+00 0. -1.
</event>
<event>
 7    1  0.1322363E-009  0.4778727E+02  0.7816164E-02  0.1312668E+00
        -11   -1    0    0    0    0  0.00000000000E+00  0.00000000000E+00  0.45593999997E+02  0.45594000000E+02  0.51100000000E-03 0. -1.
         11   -1    0    0    0    0 -0.00000000000E+00 -0.00000000000E+00 -0.45593999997E+02  0.45594000000E+02  0.51100000000E-03 0.  1.
    9900012    2    1    2    0    0  0.27180477604E+02  0.27593934766E+02  0.19581106761E+02  0.47787270276E+02  0.19999996494E+02 0.  0.
        -12    1    1    2    0    0 -0.27180477604E+02 -0.27593934766E+02 -0.19581106761E+02  0.43400729724E+02  0.00000000000E+00 0.  1.
         11    1    3    3    0    0  0.68879573566E+01  0.10937102033E+02  0.70138755218E+01  0.14705733831E+02  0.51100000000E-03 0. -1.
        -11    1    3    3    0    0  0.39113167208E+01  0.12060360213E+02  0.14588692792E+01  0.12762405212E+02  0.51100000000E-03 0.  1.
         12    1    3    3    0    0  0.16381203527E+02  0.45964725202E+01  0.11108361960E+02  0.20319131232E+02  0.00000000000E+00 0. -1.
</event>
<event>
 7    1  0.1322363E-009  0.4778727E+02  0.7816164E-02  0.1312668E+00
        -11   -1    0    0    0    0  0.00000000000E+00  0.00000000000E+00  0.45593999997E+02  0.45594000000E+02  0.51100000000E-03 0.  1.
         11   -1    0    0    0    0 -0.00000000000E+00 -0.00000000000E+00 -0.45593999997E+02  0.45594000000E+02  0.51100000000E-03 0. -1.
    9900012    2    1    2    0    0  0.34276136726E+02  0.14506564394E+02  0.22323294164E+02  0.47787269341E+02  0.19999992235E+02 0.  0.
        -12    1    1    2    0    0 -0.34276136726E+02 -0.14506564394E+02 -0.22323294164E+02  0.43400730659E+02  0.00000000000E+00 0.  1.
         11    1    3    3    0    0  0.40130720701E+01  0.70098603464E+01  0.18714295977E+01  0.82912688121E+01  0.51100000000E-03 0. -1.
        -11    1    3    3    0    0  0.66668677902E+01 -0.37453890607E+01  0.48868122261E+01  0.90750206249E+01  0.51100000000E-03 0.  1.
        -12    1    3    3    0    0  0.23596196865E+02  0.11242093108E+02  0.15565052341E+02  0.30420979904E+02  0.00000000000E+00 0.  1.
</event>
<event>
 7    1  0.1322363E-009  0.4778727E+02  0.7816164E-02  0.1312668E+00
        -11   -1    0    0    0    0  0.00000000000E+00  0.00000000000E+00  0.45593999997E+02  0.45594000000E+02  0.51100000000E-03 0.  1.
         11   -1    0    0    0    0 -0.00000000000E+00 -0.00000000000E+00 -0.45593999997E+02  0.45594000000E+02  0.51100000000E-03 0. -1.
    9900012    2    1    2    0    0 -0.19752090004E+01 -0.32614865133E+02 -0.28565580413E+02  0.47787271175E+02  0.20000000597E+02 0.  0.
        -12    1    1    2    0    0  0.19752090004E+01  0.32614865133E+02  0.28565580413E+02  0.43400728825E+02  0.00000000000E+00 0.  1.
         11    1    3    3    0    0 -0.40911246915E+01 -0.27818876345E+02 -0.16248890463E+02  0.32475431081E+02  0.51100000000E-03 0. -1.
        -11    1    3    3    0    0  0.29580536473E+01 -0.10994315472E+01 -0.89923747008E+00  0.32813807149E+01  0.51100000000E-03 0.  1.
         12    1    3    3    0    0 -0.84213795626E+00 -0.36965572404E+01 -0.11417452479E+02  0.12030459379E+02  0.00000000000E+00 0. -1.
</event>
<event>
 7    1  0.1322363E-009  0.4778727E+02  0.7816164E-02  0.1312668E+00
        -11   -1    0    0    0    0  0.00000000000E+00  0.00000000000E+00  0.45593999997E+02  0.45594000000E+02  0.51100000000E-03 0. -1.
         11   -1    0    0    0    0 -0.00000000000E+00 -0.00000000000E+00 -0.45593999997E+02  0.45594000000E+02  0.51100000000E-03 0.  1.
    9900012    2    1    2    0    0  0.56699824962E+01  0.40221414094E+02  0.15287660042E+02  0.47787269560E+02  0.19999993230E+02 0.  0.
        -12    1    1    2    0    0 -0.56699824962E+01 -0.40221414094E+02 -0.15287660042E+02  0.43400730440E+02  0.00000000000E+00 0.  1.
         11    1    3    3    0    0  0.34863464755E+01  0.21068693427E+02  0.18274705049E+02  0.28107104073E+02  0.51100000000E-03 0. -1.
        -11    1    3    3    0    0  0.22479207028E+01  0.86606314491E+01 -0.17232683625E+01  0.91120436068E+01  0.51100000000E-03 0.  1.
         12    1    3    3    0    0 -0.64284682071E-01  0.10492089217E+02 -0.12637766441E+01  0.10568121880E+02  0.00000000000E+00 0. -1.
</event>
<event>
 7    1  0.1322363E-009  0.4778728E+02  0.7816164E-02  0.1312668E+00
        -11   -1    0    0    0    0  0.00000000000E+00  0.00000000000E+00  0.45593999997E+02  0.45594000000E+02  0.51100000000E-03 0. -1.
         11   -1    0    0    0    0 -0.00000000000E+00 -0.00000000000E+00 -0.45593999997E+02  0.45594000000E+02  0.51100000000E-03 0.  1.
    9900012    2    1    2    0    0 -0.17639402318E+02 -0.19880229483E+01  0.39604570179E+02  0.47787277328E+02  0.20000028649E+02 0.  0.
        -12    1    1    2    0    0  0.17639402318E+02  0.19880229483E+01 -0.39604570179E+02  0.43400722672E+02  0.00000000000E+00 0.  1.
         11    1    3    3    0    0 -0.89429619051E+01  0.52119652926E+01  0.29338786332E+02  0.31111180201E+02  0.51100000000E-03 0. -1.
        -11    1    3    3    0    0 -0.11374915572E+01 -0.70546995485E+00 -0.97332791210E+00  0.16549750407E+01  0.51100000000E-03 0.  1.
         12    1    3    3    0    0 -0.75589488558E+01 -0.64945182860E+01  0.11239111760E+02  0.15021122086E+02  0.00000000000E+00 0. -1.
</event>
<event>
 7    1  0.1322363E-009  0.4778727E+02  0.7816164E-02  0.1312668E+00
        -11   -1    0    0    0    0  0.00000000000E+00  0.00000000000E+00  0.45593999997E+02  0.45594000000E+02  0.51100000000E-03 0.  1.
         11   -1    0    0    0    0 -0.00000000000E+00 -0.00000000000E+00 -0.45593999997E+02  0.45594000000E+02  0.51100000000E-03 0. -1.
    9900012    2    1    2    0    0  0.15072353110E+02 -0.16680632292E+02 -0.37124169967E+02  0.47787270540E+02  0.19999997699E+02 0.  0.
        -12    1    1    2    0    0 -0.15072353110E+02  0.16680632292E+02  0.37124169967E+02  0.43400729460E+02  0.00000000000E+00 0.  1.
         11    1    3    3    0    0  0.15851264422E+02 -0.13842583034E+02 -0.32245700838E+02  0.38505388086E+02  0.51100000000E-03 0. -1.
        -11    1    3    3    0    0 -0.19994295328E+00 -0.53225095293E+01 -0.35968829101E+01  0.64270251130E+01  0.51100000000E-03 0.  1.
        -12    1    3    3    0    0 -0.57896835870E+00  0.24844602713E+01 -0.12815862188E+01  0.28548573408E+01  0.00000000000E+00 0.  1.
</event>
<event>
 7    1  0.1322363E-009  0.4778728E+02  0.7816164E-02  0.1312668E+00
        -11   -1    0    0    0    0  0.00000000000E+00  0.00000000000E+00  0.45593999997E+02  0.45594000000E+02  0.51100000000E-03 0.  1.
         11   -1    0    0    0    0 -0.00000000000E+00 -0.00000000000E+00 -0.45593999997E+02  0.45594000000E+02  0.51100000000E-03 0. -1.
    9900012    2    1    2    0    0 -0.29378578401E+02  0.12538738422E+02 -0.29381998693E+02  0.47787277918E+02  0.20000031337E+02 0.  0.
        -12    1    1    2    0    0  0.29378578401E+02 -0.12538738422E+02  0.29381998693E+02  0.43400722082E+02  0.00000000000E+00 0.  1.
         11    1    3    3    0    0 -0.16061885816E+02  0.97183060685E+01 -0.11044251743E+02  0.21780843547E+02  0.51100000000E-03 0. -1.
        -11    1    3    3    0    0 -0.61619952226E+01  0.58075545301E+01 -0.15662154399E+02  0.17804520646E+02  0.51100000000E-03 0.  1.
         12    1    3    3    0    0 -0.71546973625E+01 -0.29871221763E+01 -0.26755925507E+01  0.82019137244E+01  0.00000000000E+00 0. -1.
</event>
<event>
 7    1  0.1322363E-009  0.4778727E+02  0.7816164E-02  0.1312668E+00
        -11   -1    0    0    0    0  0.00000000000E+00  0.00000000000E+00  0.45593999997E+02  0.45594000000E+02  0.51100000000E-03 0.  1.
         11   -1    0    0    0    0 -0.00000000000E+00 -0.00000000000E+00 -0.45593999997E+02  0.45594000000E+02  0.51100000000E-03 0. -1.
    9900012    2    1    2    0    0 -0.16975863739E+02  0.35936598551E+02 -0.17435711730E+02  0.47787272948E+02  0.20000008680E+02 0.  0.
        -12    1    1    2    0    0  0.16975863739E+02 -0.35936598551E+02  0.17435711730E+02  0.43400727052E+02  0.00000000000E+00 0.  1.
         11    1    3    3    0    0 -0.17406762776E+01  0.30321530438E+01 -0.30257999913E+01  0.46237832813E+01  0.51100000000E-03 0. -1.
        -11    1    3    3    0    0 -0.17261219159E+02  0.25254497088E+02 -0.16796347351E+02  0.34897802146E+02  0.51100000000E-03 0.  1.
        -12    1    3    3    0    0  0.20260316979E+01  0.76499484191E+01  0.23864356124E+01  0.82656875206E+01  0.00000000000E+00 0.  1.
</event>
<event>
 7    1  0.1322363E-009  0.4778727E+02  0.7816164E-02  0.1312668E+00
        -11   -1    0    0    0    0  0.00000000000E+00  0.00000000000E+00  0.45593999997E+02  0.45594000000E+02  0.51100000000E-03 0.  1.
         11   -1    0    0    0    0 -0.00000000000E+00 -0.00000000000E+00 -0.45593999997E+02  0.45594000000E+02  0.51100000000E-03 0. -1.
    9900012    2    1    2    0    0 -0.28323999853E+01  0.22124009057E+01 -0.43251656217E+02  0.47787274511E+02  0.20000015804E+02 0.  0.
        -12    1    1    2    0    0  0.28323999853E+01 -0.22124009057E+01  0.43251656217E+02  0.43400725489E+02  0.00000000000E+00 0.  1.
         11    1    3    3    0    0  0.56090779085E+00  0.56784847689E+01 -0.24839984635E+02  0.25486950460E+02  0.51100000000E-03 0. -1.
        -11    1    3    3    0    0 -0.22564526844E+01  0.20573030670E+01 -0.95500141542E-02  0.30535497523E+01  0.51100000000E-03 0.  1.
         12    1    3    3    0    0 -0.11368550918E+01 -0.55233869301E+01 -0.18402121568E+02  0.19246774298E+02  0.00000000000E+00 0. -1.
</event>
<event>
 7    1  0.1322363E-009  0.4778727E+02  0.7816164E-02  0.1312668E+00
        -11   -1    0    0    0    0  0.00000000000E+00  0.00000000000E+00  0.45593999997E+02  0.45594000000E+02  0.51100000000E-03 0.  1.
         11   -1    0    0    0    0 -0.00000000000E+00 -0.00000000000E+00 -0.45593999997E+02  0.45594000000E+02  0.51100000000E-03 0. -1.
    9900012    2    1    2    0    0  0.23122513511E+02 -0.36527448226E+02 -0.38364097946E+01  0.47787272528E+02  0.20000006765E+02 0.  0.
        -12    1    1    2    0    0 -0.23122513511E+02  0.36527448226E+02  0.38364097946E+01  0.43400727472E+02  0.00000000000E+00 0.  1.
         11    1    3    3    0    0  0.16839845796E+02 -0.23875881190E+02 -0.91464342410E+00  0.29231398904E+02  0.51100000000E-03 0. -1.
        -11    1    3    3    0    0  0.52185870424E+01 -0.13306798121E+01 -0.45738164449E+01  0.70657028394E+01  0.51100000000E-03 0.  1.
        -12    1    3    3    0    0  0.10640806728E+01 -0.11320887224E+02  0.16520500744E+01  0.11490170785E+02  0.00000000000E+00 0.  1.
</event>
<event>
 7    1  0.1322363E-009  0.4778728E+02  0.7816164E-02  0.1312668E+00
        -11   -1    0    0    0    0  0.00000000000E+00  0.00000000000E+00  0.45593999997E+02  0.45594000000E+02  0.51100000000E-03 0. -1.
         11   -1    0    0    0    0 -0.00000000000E+00 -0.00000000000E+00 -0.45593999997E+02  0.45594000000E+02  0.51100000000E-03 0.  1.
    9900012    2    1    2    0    0  0.35931477323E+02 -0.44542315616E+01  0.23931389616E+02  0.47787278227E+02  0.20000032750E+02 0.  0.
        -12    1    1    2    0    0 -0.35931477323E+02  0.44542315616E+01 -0.23931389616E+02  0.43400721773E+02  0.00000000000E+00 0.  1.
         11    1    3    3    0    0  0.83368258419E+01 -0.48351244103E+01  0.67866182280E+01  0.11787250757E+02  0.51100000000E-03 0. -1.
        -11    1    3    3    0    0  0.64026427841E+01  0.61181815763E+01  0.13598061259E+01  0.89596346679E+01  0.51100000000E-03 0.  1.
        -12    1    3    3    0    0  0.21192008697E+02 -0.57372887276E+01  0.15784965263E+02  0.27040392802E+02  0.00000000000E+00 0.  1.
</event>
<event>
 7    1  0.1322363E-009  0.4778727E+02  0.7816164E-02  0.1312668E+00
        -11   -1    0    0    0    0  0.00000000000E+00  0.00000000000E+00  0.45593999997E+02  0.45594000000E+02  0.51100000000E-03 0. -1.
         11   -1    0    0    0    0 -0.00000000000E+00 -0.00000000000E+00 -0.45593999997E+02  0.45594000000E+02  0.51100000000E-03 0.  1.
    9900012    2    1    2    0    0 -0.24494895703E+02 -0.15614348205E+02  0.32246175898E+02  0.47787266764E+02  0.19999980483E+02 0.  0.
        -12    1    1    2    0    0  0.24494895703E+02  0.15614348205E+02 -0.32246175898E+02  0.43400733236E+02  0.00000000000E+00 0.  1.
         11    1    3    3    0    0 -0.10340505400E+02 -0.57143818273E+01  0.16234377532E+02  0.20078227654E+02  0.51100000000E-03 0. -1.
        -11    1    3    3    0    0 -0.10108166577E+02 -0.11460911713E+02  0.17397653972E+02  0.23156119987E+02  0.51100000000E-03 0.  1.
        -12    1    3    3    0    0 -0.40462237259E+01  0.15609453356E+01 -0.13858556062E+01  0.45529191232E+01  0.00000000000E+00 0.  1.
</event>
<event>
 7    1  0.1322363E-009  0.4778724E+02  0.7816164E-02  0.1312668E+00
        -11   -1    0    0    0    0  0.00000000000E+00  0.00000000000E+00  0.45593999997E+02  0.45594000000E+02  0.51100000000E-03 0.  1.
         11   -1    0    0    0    0 -0.00000000000E+00 -0.00000000000E+00 -0.45593999997E+02  0.45594000000E+02  0.51100000000E-03 0. -1.
    9900012    2    1    2    0    0 -0.24394002948E+00  0.42452605433E+02 -0.90190219566E+01  0.47787239963E+02  0.19999858285E+02 0.  0.
        -12    1    1    2    0    0  0.24394002948E+00 -0.42452605433E+02  0.90190219566E+01  0.43400760037E+02  0.00000000000E+00 0.  1.
         11    1    3    3    0    0  0.44819659561E+01  0.17275084593E+02  0.17801743134E+01  0.17935595540E+02  0.51100000000E-03 0. -1.
        -11    1    3    3    0    0 -0.41623275657E+01  0.19573811657E+01 -0.19547809872E+01  0.49977475688E+01  0.51100000000E-03 0.  1.
         12    1    3    3    0    0 -0.56357841983E+00  0.23220139674E+02 -0.88444152828E+01  0.24853896854E+02  0.00000000000E+00 0. -1.
</event>
<event>
 7    1  0.1322363E-009  0.4778728E+02  0.7816164E-02  0.1312668E+00
        -11   -1    0    0    0    0  0.00000000000E+00  0.00000000000E+00  0.45593999997E+02  0.45594000000E+02  0.51100000000E-03 0. -1.
         11   -1    0    0    0    0 -0.00000000000E+00 -0.00000000000E+00 -0.45593999997E+02  0.45594000000E+02  0.51100000000E-03 0.  1.
    9900012    2    1    2    0    0  0.35380199691E+02 -0.22934212547E+02  0.10290073421E+02  0.47787282883E+02  0.20000053975E+02 0.  0.
        -12    1    1    2    0    0 -0.35380199691E+02  0.22934212547E+02 -0.10290073421E+02  0.43400717117E+02  0.00000000000E+00 0.  1.
         11    1    3    3    0    0  0.22136188594E+02 -0.62764120923E+01  0.15423145706E+01  0.23060419092E+02  0.51100000000E-03 0. -1.
        -11    1    3    3    0    0  0.27291711996E+01  0.32079314165E+00 -0.37061243459E+00  0.27728392515E+01  0.51100000000E-03 0.  1.
        -12    1    3    3    0    0  0.10514839897E+02 -0.16978593596E+02  0.91183712852E+01  0.21954024539E+02  0.00000000000E+00 0.  1.
</event>
<event>
 7    1  0.1322363E-009  0.4778727E+02  0.7816164E-02  0.1312668E+00
        -11   -1    0    0    0    0  0.00000000000E+00  0.00000000000E+00  0.45593999997E+02  0.45594000000E+02  0.51100000000E-03 0. -1.
         11   -1    0    0    0    0 -0.00000000000E+00 -0.00000000000E+00 -0.45593999997E+02  0.45594000000E+02  0.51100000000E-03 0.  1.
    9900012    2    1    2    0    0 -0.24642047820E+02  0.30248365213E+02  0.19011292472E+02  0.47787270049E+02  0.19999995460E+02 0.  0.
        -12    1    1    2    0    0  0.24642047820E+02 -0.30248365213E+02 -0.19011292472E+02  0.43400729951E+02  0.00000000000E+00 0.  1.
         11    1    3    3    0    0 -0.15275974509E+01  0.67099980084E+01  0.91722576999E+01  0.11466819037E+02  0.51100000000E-03 0. -1.
        -11    1    3    3    0    0 -0.64324101712E+01  0.24067677367E+01 -0.16265966250E+01  0.70579209680E+01  0.51100000000E-03 0.  1.
         12    1    3    3    0    0 -0.16682040198E+02  0.21131599468E+02  0.11465631397E+02  0.29262530044E+02  0.00000000000E+00 0. -1.
</event>
<event>
 7    1  0.1322363E-009  0.4778727E+02  0.7816164E-02  0.1312668E+00
        -11   -1    0    0    0    0  0.00000000000E+00  0.00000000000E+00  0.45593999997E+02  0.45594000000E+02  0.51100000000E-03 0.  1.
         11   -1    0    0    0    0 -0.00000000000E+00 -0.00000000000E+00 -0.45593999997E+02  0.45594000000E+02  0.51100000000E-03 0. -1.
    9900012    2    1    2    0    0  0.43379756582E+02 -0.12517902425E+01  0.50289821707E+00  0.47787272281E+02  0.20000005638E+02 0.  0.
        -12    1    1    2    0    0 -0.43379756582E+02  0.12517902425E+01 -0.50289821707E+00  0.43400727719E+02  0.00000000000E+00 0.  1.
         11    1    3    3    0    0  0.14072465071E+02  0.34038276553E+01 -0.21615929386E+01  0.14638743121E+02  0.51100000000E-03 0. -1.
        -11    1    3    3    0    0  0.19296379594E+02 -0.49448458078E+01 -0.49992419154E+01  0.20537628526E+02  0.51100000000E-03 0.  1.
         12    1    3    3    0    0  0.10010911917E+02  0.28922790991E+00  0.76637330710E+01  0.12610900633E+02  0.00000000000E+00 0. -1.
</event>
<event>
 7    1  0.1322363E-009  0.4778727E+02  0.7816164E-02  0.1312668E+00
        -11   -1    0    0    0    0  0.00000000000E+00  0.00000000000E+00  0.45593999997E+02  0.45594000000E+02  0.51100000000E-03 0.  1.
         11   -1    0    0    0    0 -0.00000000000E+00 -0.00000000000E+00 -0.45593999997E+02  0.45594000000E+02  0.51100000000E-03 0. -1.
    9900012    2    1    2    0    0 -0.28606147348E+02  0.67881636012E+01 -0.31925423996E+02  0.47787268111E+02  0.19999986627E+02 0.  0.
        -12    1    1    2    0    0  0.28606147348E+02 -0.67881636012E+01  0.31925423996E+02  0.43400731889E+02  0.00000000000E+00 0.  1.
         11    1    3    3    0    0 -0.26239551977E+02  0.50589319128E+01 -0.15686500527E+02  0.30986661309E+02  0.51100000000E-03 0. -1.
        -11    1    3    3    0    0  0.67480278991E+00  0.93721565289E+00 -0.48930834082E+01  0.50275239916E+01  0.51100000000E-03 0.  1.
        -12    1    3    3    0    0 -0.30413981603E+01  0.79201603556E+00 -0.11345840061E+02  0.11773082810E+02  0.00000000000E+00 0.  1.
</event>
<event>
 7    1  0.1322363E-009  0.4778731E+02  0.7816164E-02  0.1312668E+00
        -11   -1    0    0    0    0  0.00000000000E+00  0.00000000000E+00  0.45593999997E+02  0.45594000000E+02  0.51100000000E-03 0. -1.
         11   -1    0    0    0    0 -0.00000000000E+00 -0.00000000000E+00 -0.45593999997E+02  0.45594000000E+02  0.51100000000E-03 0.  1.
    9900012    2    1    2    0    0  0.29486687455E+02 -0.19180936328E+02  0.25421390302E+02  0.47787307144E+02  0.20000164592E+02 0.  0.
        -12    1    1    2    0    0 -0.29486687455E+02  0.19180936328E+02 -0.25421390302E+02  0.43400692856E+02  0.00000000000E+00 0.  1.
         11    1    3    3    0    0 -0.66901898380E-01 -0.52758916590E+01  0.37137178311E+01  0.64522251240E+01  0.51100000000E-03 0.  1.
        -11    1    3    3    0    0  0.13065902521E+02 -0.12196147979E+02  0.15422231856E+02  0.23607394390E+02  0.51100000000E-03 0. -1.
        -12    1    3    3    0    0  0.16487686833E+02 -0.17088966901E+01  0.62854406146E+01  0.17727687630E+02  0.00000000000E+00 0.  1.
</event>
<event>
 7    1  0.1322363E-009  0.4778726E+02  0.7816164E-02  0.1312668E+00
        -11   -1    0    0    0    0  0.00000000000E+00  0.00000000000E+00  0.45593999997E+02  0.45594000000E+02  0.51100000000E-03 0.  1.
         11   -1    0    0    0    0 -0.00000000000E+00 -0.00000000000E+00 -0.45593999997E+02  0.45594000000E+02  0.51100000000E-03 0. -1.
    9900012    2    1    2    0    0  0.21049348342E+02 -0.19195637147E+02 -0.32742586673E+02  0.47787256537E+02  0.19999933854E+02 0.  0.
        -12    1    1    2    0    0 -0.21049348342E+02  0.19195637147E+02  0.32742586673E+02  0.43400743463E+02  0.00000000000E+00 0.  1.
         11    1    3    3    0    0  0.99430909030E+00  0.17667994453E+01  0.78757176251E+00  0.21749713536E+01  0.51100000000E-03 0. -1.
        -11    1    3    3    0    0  0.15636692734E+02 -0.94555227112E+01 -0.16727842430E+02  0.24773650963E+02  0.51100000000E-03 0.  1.
         12    1    3    3    0    0  0.44183465178E+01 -0.11506913881E+02 -0.16802316005E+02  0.20838634220E+02  0.00000000000E+00 0. -1.
</event>
<event>
 7    1  0.1322363E-009  0.4778727E+02  0.7816164E-02  0.1312668E+00
        -11   -1    0    0    0    0  0.00000000000E+00  0.00000000000E+00  0.45593999997E+02  0.45594000000E+02  0.51100000000E-03 0. -1.
         11   -1    0    0    0    0 -0.00000000000E+00 -0.00000000000E+00 -0.45593999997E+02  0.45594000000E+02  0.51100000000E-03 0.  1.
    9900012    2    1    2    0    0 -0.71995443949E+01 -0.39872381928E+02  0.15555796083E+02  0.47787273372E+02  0.20000010611E+02 0.  0.
        -12    1    1    2    0    0  0.71995443949E+01  0.39872381928E+02 -0.15555796083E+02  0.43400726628E+02  0.00000000000E+00 0.  1.
         11    1    3    3    0    0 -0.49873688467E+01 -0.30901164784E+02  0.10417549902E+02  0.32989106979E+02  0.51100000000E-03 0. -1.
        -11    1    3    3    0    0 -0.30322380234E+01 -0.44782641352E+01  0.78153865788E+01  0.95041877471E+01  0.51100000000E-03 0.  1.
         12    1    3    3    0    0  0.82006247511E+00 -0.44929530083E+01 -0.26771403973E+01  0.52939786461E+01  0.00000000000E+00 0. -1.
</event>
<event>
 7    1  0.1322363E-009  0.4778728E+02  0.7816164E-02  0.1312668E+00
        -11   -1    0    0    0    0  0.00000000000E+00  0.00000000000E+00  0.45593999997E+02  0.45594000000E+02  0.51100000000E-03 0.  1.
         11   -1    0    0    0    0 -0.00000000000E+00 -0.00000000000E+00 -0.45593999997E+02  0.45594000000E+02  0.51100000000E-03 0. -1.
    9900012    2    1    2    0    0 -0.39945920531E+02  0.30360279130E+01 -0.16695175596E+02  0.47787275113E+02  0.20000018549E+02 0.  0.
        -12    1    1    2    0    0  0.39945920531E+02 -0.30360279130E+01  0.16695175596E+02  0.43400724887E+02  0.00000000000E+00 0.  1.
         11    1    3    3    0    0 -0.13471033834E+02 -0.48124477883E+01  0.11526284152E+01  0.14351200604E+02  0.51100000000E-03 0. -1.
        -11    1    3    3    0    0 -0.61165273069E+00 -0.78943992661E+00 -0.48902788935E+00  0.11119725709E+01  0.51100000000E-03 0.  1.
        -12    1    3    3    0    0 -0.25863233967E+02  0.86379156279E+01 -0.17358776122E+02  0.32324101937E+02  0.00000000000E+00 0.  1.
</event>
<event>
 7    1  0.1322363E-009  0.4778727E+02  0.7816164E-02  0.1312668E+00
        -11   -1    0    0    0    0  0.00000000000E+00  0.00000000000E+00  0.45593999997E+02  0.45594000000E+02  0.51100000000E-03 0.  1.
         11   -1    0    0    0    0 -0.00000000000E+00 -0.00000000000E+00 -0.45593999997E+02  0.45594000000E+02  0.51100000000E-03 0. -1.
    9900012    2    1    2    0    0  0.12082666944E+02 -0.14352038050E+02 -0.39136321436E+02  0.47787268529E+02  0.19999988529E+02 0.  0.
        -12    1    1    2    0    0 -0.12082666944E+02  0.14352038050E+02  0.39136321436E+02  0.43400731471E+02  0.00000000000E+00 0.  1.
         11    1    3    3    0    0  0.20926950722E+01  0.30993121207E+00  0.38650733276E+00  0.21505390489E+01  0.51100000000E-03 0. -1.
        -11    1    3    3    0    0  0.70475498220E+01 -0.99536775451E+01 -0.10517210510E+02  0.16104514036E+02  0.51100000000E-03 0.  1.
        -12    1    3    3    0    0  0.29424220502E+01 -0.47082917173E+01 -0.29005618259E+02  0.29532215444E+02  0.00000000000E+00 0.  1.
</event>
<event>
 7    1  0.1322363E-009  0.4778727E+02  0.7816164E-02  0.1312668E+00
        -11   -1    0    0    0    0  0.00000000000E+00  0.00000000000E+00  0.45593999997E+02  0.45594000000E+02  0.51100000000E-03 0.  1.
         11   -1    0    0    0    0 -0.00000000000E+00 -0.00000000000E+00 -0.45593999997E+02  0.45594000000E+02  0.51100000000E-03 0. -1.
    9900012    2    1    2    0    0 -0.27480387618E+02  0.80656805831E+01 -0.32609756027E+02  0.47787273105E+02  0.20000009394E+02 0.  0.
        -12    1    1    2    0    0  0.27480387618E+02 -0.80656805831E+01  0.32609756027E+02  0.43400726895E+02  0.00000000000E+00 0.  1.
         11    1    3    3    0    0 -0.13303670904E+02  0.37491681101E+01 -0.18670382687E+02  0.23229875398E+02  0.51100000000E-03 0. -1.
        -11    1    3    3    0    0  0.14865391369E+01 -0.10412310118E+01  0.11577862354E+01  0.21527725968E+01  0.51100000000E-03 0.  1.
        -12    1    3    3    0    0 -0.15663255851E+02  0.53577434847E+01 -0.15097159575E+02  0.22404625110E+02  0.00000000000E+00 0.  1.
</event>
<event>
 7    1  0.1322363E-009  0.4778727E+02  0.7816164E-02  0.1312668E+00
        -11   -1    0    0    0    0  0.00000000000E+00  0.00000000000E+00  0.45593999997E+02  0.45594000000E+02  0.51100000000E-03 0. -1.
         11   -1    0    0    0    0 -0.00000000000E+00 -0.00000000000E+00 -0.45593999997E+02  0.45594000000E+02  0.51100000000E-03 0.  1.
    9900012    2    1    2    0    0  0.13128953989E+02 -0.21868909942E+02  0.35114168927E+02  0.47787268274E+02  0.19999987369E+02 0.  0.
        -12    1    1    2    0    0 -0.13128953989E+02  0.21868909942E+02 -0.35114168927E+02  0.43400731726E+02  0.00000000000E+00 0.  1.
         11    1    3    3    0    0  0.44907629537E+00  0.45519843279E+00  0.38350965309E+01  0.38880381679E+01  0.51100000000E-03 0. -1.
        -11    1    3    3    0    0  0.18556700106E+01  0.43319644765E+00  0.12051738838E+02  0.12201458094E+02  0.51100000000E-03 0.  1.
         12    1    3    3    0    0  0.10824207683E+02 -0.22757304822E+02  0.19227333558E+02  0.31697772012E+02  0.00000000000E+00 0. -1.
</event>
<event>
 7    1  0.1322363E-009  0.4778727E+02  0.7816164E-02  0.1312668E+00
        -11   -1    0    0    0    0  0.00000000000E+00  0.00000000000E+00  0.45593999997E+02  0.45594000000E+02  0.51100000000E-03 0.  1.
         11   -1    0    0    0    0 -0.00000000000E+00 -0.00000000000E+00 -0.45593999997E+02  0.45594000000E+02  0.51100000000E-03 0. -1.
    9900012    2    1    2    0    0 -0.45972773409E+00 -0.19796737108E+02 -0.38619954038E+02  0.47787274204E+02  0.20000014405E+02 0.  0.
        -12    1    1    2    0    0  0.45972773409E+00  0.19796737108E+02  0.38619954038E+02  0.43400725796E+02  0.00000000000E+00 0.  1.
         11    1    3    3    0    0 -0.91243165536E+00  0.19058918819E+01 -0.40792131362E+00  0.21520584217E+01  0.51100000000E-03 0.  1.
        -11    1    3    3    0    0  0.34859706704E+01 -0.16644335207E+02 -0.18814532012E+02  0.25360845828E+02  0.51100000000E-03 0. -1.
         12    1    3    3    0    0 -0.30332667491E+01 -0.50582937834E+01 -0.19397500712E+02  0.20274369954E+02  0.00000000000E+00 0. -1.
</event>
<event>
 7    1  0.1322363E-009  0.4778727E+02  0.7816164E-02  0.1312668E+00
        -11   -1    0    0    0    0  0.00000000000E+00  0.00000000000E+00  0.45593999997E+02  0.45594000000E+02  0.51100000000E-03 0. -1.
         11   -1    0    0    0    0 -0.00000000000E+00 -0.00000000000E+00 -0.45593999997E+02  0.45594000000E+02  0.51100000000E-03 0.  1.
    9900012    2    1    2    0    0  0.23409246049E+02 -0.33113671921E+02  0.15463347849E+02  0.47787271949E+02  0.20000004123E+02 0.  0.
        -12    1    1    2    0    0 -0.23409246049E+02  0.33113671921E+02 -0.15463347849E+02  0.43400728051E+02  0.00000000000E+00 0.  1.
         11    1    3    3    0    0  0.18280979579E+01 -0.25851491002E+01 -0.25369039394E+01  0.40571935957E+01  0.51100000000E-03 0. -1.
        -11    1    3    3    0    0  0.65290984703E+01 -0.60766046005E+01 -0.14675120870E+01  0.90392390328E+01  0.51100000000E-03 0.  1.
         12    1    3    3    0    0  0.15052049621E+02 -0.24451918220E+02  0.19467763875E+02  0.34690839320E+02  0.00000000000E+00 0. -1.
</event>
<event>
 7    1  0.1322363E-009  0.4778727E+02  0.7816164E-02  0.1312668E+00
        -11   -1    0    0    0    0  0.00000000000E+00  0.00000000000E+00  0.45593999997E+02  0.45594000000E+02  0.51100000000E-03 0.  1.
         11   -1    0    0    0    0 -0.00000000000E+00 -0.00000000000E+00 -0.45593999997E+02  0.45594000000E+02  0.51100000000E-03 0. -1.
    9900012    2    1    2    0    0  0.31105114679E+02 -0.84611655582E+01 -0.29060347087E+02  0.47787271266E+02  0.20000001012E+02 0.  0.
        -12    1    1    2    0    0 -0.31105114679E+02  0.84611655582E+01  0.29060347087E+02  0.43400728734E+02  0.00000000000E+00 0.  1.
         11    1    3    3    0    0  0.74387599399E+01 -0.78277127384E+01 -0.72330122604E+01  0.12997103630E+02  0.51100000000E-03 0.  1.
        -11    1    3    3    0    0  0.13061318177E+02  0.26420101824E+01 -0.19221594723E+02  0.23389056293E+02  0.51100000000E-03 0. -1.
         12    1    3    3    0    0  0.10605036562E+02 -0.32754630022E+01 -0.26057401030E+01  0.11401111343E+02  0.00000000000E+00 0. -1.
</event>
<event>
 7    1  0.1322363E-009  0.4778727E+02  0.7816164E-02  0.1312668E+00
        -11   -1    0    0    0    0  0.00000000000E+00  0.00000000000E+00  0.45593999997E+02  0.45594000000E+02  0.51100000000E-03 0.  1.
         11   -1    0    0    0    0 -0.00000000000E+00 -0.00000000000E+00 -0.45593999997E+02  0.45594000000E+02  0.51100000000E-03 0. -1.
    9900012    2    1    2    0    0 -0.36194689761E+01  0.65043823397E+01 -0.42757642308E+02  0.47787268197E+02  0.19999987020E+02 0.  0.
        -12    1    1    2    0    0  0.36194689761E+01 -0.65043823397E+01  0.42757642308E+02  0.43400731803E+02  0.00000000000E+00 0.  1.
         11    1    3    3    0    0 -0.61543604143E+01  0.11480029043E+01 -0.16589352414E+02  0.17731347286E+02  0.51100000000E-03 0. -1.
        -11    1    3    3    0    0 -0.18726430900E+01 -0.36866169171E+01 -0.42004374795E+01  0.58942015333E+01  0.51100000000E-03 0.  1.
         12    1    3    3    0    0  0.44075345282E+01  0.90429963525E+01 -0.21967852414E+02  0.24161719378E+02  0.00000000000E+00 0. -1.
</event>
<event>
 7    1  0.1322363E-009  0.4778724E+02  0.7816164E-02  0.1312668E+00
        -11   -1    0    0    0    0  0.00000000000E+00  0.00000000000E+00  0.45593999997E+02  0.45594000000E+02  0.51100000000E-03 0.  1.
         11   -1    0    0    0    0 -0.00000000000E+00 -0.00000000000E+00 -0.45593999997E+02  0.45594000000E+02  0.51100000000E-03 0. -1.
    9900012    2    1    2    0    0  0.18987540106E+02 -0.34103620842E+02 -0.18974791352E+02  0.47787235713E+02  0.19999838909E+02 0.  0.
        -12    1    1    2    0    0 -0.18987540106E+02  0.34103620842E+02  0.18974791352E+02  0.43400764287E+02  0.00000000000E+00 0.  1.
         11    1    3    3    0    0  0.10923292403E+02 -0.18206909447E+02 -0.90535817895E+01  0.23081967248E+02  0.51100000000E-03 0. -1.
        -11    1    3    3    0    0  0.56583199890E+01  0.82149977399E+00 -0.20897904870E+01  0.60875833890E+01  0.51100000000E-03 0.  1.
         12    1    3    3    0    0  0.24059277144E+01 -0.16718211169E+02 -0.78314190756E+01  0.18617685076E+02  0.00000000000E+00 0. -1.
</event>
<event>
 7    1  0.1322363E-009  0.4778728E+02  0.7816164E-02  0.1312668E+00
        -11   -1    0    0    0    0  0.00000000000E+00  0.00000000000E+00  0.45593999997E+02  0.45594000000E+02  0.51100000000E-03 0.  1.
         11   -1    0    0    0    0 -0.00000000000E+00 -0.00000000000E+00 -0.45593999997E+02  0.45594000000E+02  0.51100000000E-03 0. -1.
    9900012    2    1    2    0    0  0.16957496812E+02  0.28907432941E+02 -0.27575827318E+02  0.47787278466E+02  0.20000033839E+02 0.  0.
        -12    1    1    2    0    0 -0.16957496812E+02 -0.28907432941E+02  0.27575827318E+02  0.43400721534E+02  0.00000000000E+00 0.  1.
         11    1    3    3    0    0  0.11975174334E+02  0.24208463586E+02 -0.24281596621E+02  0.36318734067E+02  0.51100000000E-03 0. -1.
        -11    1    3    3    0    0  0.57395085163E+01  0.37381657795E-01 -0.35329821440E+01  0.67398307463E+01  0.51100000000E-03 0.  1.
        -12    1    3    3    0    0 -0.75718603884E+00  0.46615876972E+01  0.23875144671E+00  0.47287136527E+01  0.00000000000E+00 0.  1.
</event>
<event>
 7    1  0.1322363E-009  0.4778727E+02  0.7816164E-02  0.1312668E+00
        -11   -1    0    0    0    0  0.00000000000E+00  0.00000000000E+00  0.45593999997E+02  0.45594000000E+02  0.51100000000E-03 0. -1.
         11   -1    0    0    0    0 -0.00000000000E+00 -0.00000000000E+00 -0.45593999997E+02  0.45594000000E+02  0.51100000000E-03 0.  1.
    9900012    2    1    2    0    0  0.21915323978E+02  0.36908649926E+02 -0.64104068630E+01  0.47787272119E+02  0.20000004900E+02 0.  0.
        -12    1    1    2    0    0 -0.21915323978E+02 -0.36908649926E+02  0.64104068630E+01  0.43400727881E+02  0.00000000000E+00 0.  1.
         11    1    3    3    0    0  0.74284999679E+01  0.20746109995E+02 -0.13865069569E+01  0.22079540156E+02  0.51100000000E-03 0. -1.
        -11    1    3    3    0    0 -0.39651884773E+00 -0.24866124973E+00  0.23204566715E+01  0.23671880025E+01  0.51100000000E-03 0.  1.
         12    1    3    3    0    0  0.14883342858E+02  0.16411201181E+02 -0.73443565776E+01  0.23340543961E+02  0.00000000000E+00 0. -1.
</event>
<event>
 7    1  0.1322363E-009  0.4778727E+02  0.7816164E-02  0.1312668E+00
        -11   -1    0    0    0    0  0.00000000000E+00  0.00000000000E+00  0.45593999997E+02  0.45594000000E+02  0.51100000000E-03 0.  1.
         11   -1    0    0    0    0 -0.00000000000E+00 -0.00000000000E+00 -0.45593999997E+02  0.45594000000E+02  0.51100000000E-03 0. -1.
    9900012    2    1    2    0    0  0.13531630372E+02 -0.32208477338E+00 -0.41236083826E+02  0.47787269955E+02  0.19999995035E+02 0.  0.
        -12    1    1    2    0    0 -0.13531630372E+02  0.32208477338E+00  0.41236083826E+02  0.43400730045E+02  0.00000000000E+00 0.  1.
         11    1    3    3    0    0 -0.20245228235E+01 -0.42123169851E+01 -0.11083294342E+02  0.12028371493E+02  0.51100000000E-03 0. -1.
        -11    1    3    3    0    0  0.59479253266E+01  0.18524546253E+00 -0.28887720444E+01  0.66149176683E+01  0.51100000000E-03 0.  1.
         12    1    3    3    0    0  0.96082278690E+01  0.37049867492E+01 -0.27264017439E+02  0.29143980794E+02  0.00000000000E+00 0. -1.
</event>
<event>
 7    1  0.1322363E-009  0.4778728E+02  0.7816164E-02  0.1312668E+00
        -11   -1    0    0    0    0  0.00000000000E+00  0.00000000000E+00  0.45593999997E+02  0.45594000000E+02  0.51100000000E-03 0.  1.
         11   -1    0    0    0    0 -0.00000000000E+00 -0.00000000000E+00 -0.45593999997E+02  0.45594000000E+02  0.51100000000E-03 0. -1.
    9900012    2    1    2    0    0  0.21905559262E+02  0.97590597535E+01 -0.36173607994E+02  0.47787277781E+02  0.20000030715E+02 0.  0.
        -12    1    1    2    0    0 -0.21905559262E+02 -0.97590597535E+01  0.36173607994E+02  0.43400722219E+02  0.00000000000E+00 0.  1.
         11    1    3    3    0    0  0.13845824729E+02  0.17130923888E+01 -0.29822291345E+02  0.32924316383E+02  0.51100000000E-03 0. -1.
        -11    1    3    3    0    0  0.69702842813E+01  0.19500607773E+01 -0.36642936768E+01  0.81126227824E+01  0.51100000000E-03 0.  1.
        -12    1    3    3    0    0  0.10894502519E+01  0.60959065875E+01 -0.26870229715E+01  0.67503386155E+01  0.00000000000E+00 0.  1.
</event>
<event>
 7    1  0.1322363E-009  0.4778727E+02  0.7816164E-02  0.1312668E+00
        -11   -1    0    0    0    0  0.00000000000E+00  0.00000000000E+00  0.45593999997E+02  0.45594000000E+02  0.51100000000E-03 0. -1.
         11   -1    0    0    0    0 -0.00000000000E+00 -0.00000000000E+00 -0.45593999997E+02  0.45594000000E+02  0.51100000000E-03 0.  1.
    9900012    2    1    2    0    0  0.21792807797E+02 -0.23574929289E+02  0.29204787274E+02  0.47787270025E+02  0.19999995351E+02 0.  0.
        -12    1    1    2    0    0 -0.21792807797E+02  0.23574929289E+02 -0.29204787274E+02  0.43400729975E+02  0.00000000000E+00 0.  1.
         11    1    3    3    0    0  0.10723537198E+02 -0.16098342471E+02  0.13543253624E+02  0.23612932883E+02  0.51100000000E-03 0. -1.
        -11    1    3    3    0    0  0.65550432414E+01  0.71847507164E+00  0.84111621590E+00  0.66477270608E+01  0.51100000000E-03 0.  1.
         12    1    3    3    0    0  0.45142273574E+01 -0.81950618902E+01  0.14820417434E+02  0.17526610081E+02  0.00000000000E+00 0. -1.
</event>
<event>
 7    1  0.1322363E-009  0.4778727E+02  0.7816164E-02  0.1312668E+00
        -11   -1    0    0    0    0  0.00000000000E+00  0.00000000000E+00  0.45593999997E+02  0.45594000000E+02  0.51100000000E-03 0.  1.
         11   -1    0    0    0    0 -0.00000000000E+00 -0.00000000000E+00 -0.45593999997E+02  0.45594000000E+02  0.51100000000E-03 0. -1.
    9900012    2    1    2    0    0  0.28057680698E+02  0.13905610272E+02 -0.30050353400E+02  0.47787272095E+02  0.20000004790E+02 0.  0.
        -12    1    1    2    0    0 -0.28057680698E+02 -0.13905610272E+02  0.30050353400E+02  0.43400727905E+02  0.00000000000E+00 0.  1.
         11    1    3    3    0    0  0.91880713344E+01  0.39959941661E+01 -0.13014402694E+02  0.16424472654E+02  0.51100000000E-03 0. -1.
        -11    1    3    3    0    0 -0.17630322647E+01  0.47384349068E+01 -0.30119001621E+01  0.58849461323E+01  0.51100000000E-03 0.  1.
         12    1    3    3    0    0  0.20632641628E+02  0.51711811994E+01 -0.14024050544E+02  0.25477853309E+02  0.00000000000E+00 0. -1.
</event>
<event>
 7    1  0.1322363E-009  0.4778727E+02  0.7816164E-02  0.1312668E+00
        -11   -1    0    0    0    0  0.00000000000E+00  0.00000000000E+00  0.45593999997E+02  0.45594000000E+02  0.51100000000E-03 0.  1.
         11   -1    0    0    0    0 -0.00000000000E+00 -0.00000000000E+00 -0.45593999997E+02  0.45594000000E+02  0.51100000000E-03 0. -1.
    9900012    2    1    2    0    0 -0.29401931827E+02 -0.31681365900E+02  0.39294761636E+01  0.47787270474E+02  0.19999997398E+02 0.  0.
        -12    1    1    2    0    0  0.29401931827E+02  0.31681365900E+02 -0.39294761636E+01  0.43400729526E+02  0.00000000000E+00 0.  1.
         11    1    3    3    0    0 -0.73376079060E+01 -0.10625066288E+02  0.30127327677E+01  0.13259301732E+02  0.51100000000E-03 0. -1.
        -11    1    3    3    0    0 -0.41317633357E+01 -0.89553388866E+01  0.69542211998E+01  0.12067756858E+02  0.51100000000E-03 0.  1.
         12    1    3    3    0    0 -0.17932560586E+02 -0.12100960725E+02 -0.60374778039E+01  0.22460211884E+02  0.00000000000E+00 0. -1.
</event>
<event>
 7    1  0.1322363E-009  0.4778727E+02  0.7816164E-02  0.1312668E+00
        -11   -1    0    0    0    0  0.00000000000E+00  0.00000000000E+00  0.45593999997E+02  0.45594000000E+02  0.51100000000E-03 0.  1.
         11   -1    0    0    0    0 -0.00000000000E+00 -0.00000000000E+00 -0.45593999997E+02  0.45594000000E+02  0.51100000000E-03 0. -1.
    9900012    2    1    2    0    0 -0.29064511993E+02 -0.18847070193E+02 -0.26146992755E+02  0.47787272560E+02  0.20000006908E+02 0.  0.
        -12    1    1    2    0    0  0.29064511993E+02  0.18847070193E+02  0.26146992755E+02  0.43400727440E+02  0.00000000000E+00 0.  1.
         11    1    3    3    0    0 -0.24096960421E+02 -0.14126556788E+02 -0.17860857953E+02  0.33154688285E+02  0.51100000000E-03 0. -1.
        -11    1    3    3    0    0 -0.28642408057E+01 -0.21583009159E+01  0.18020864398E+01  0.40136833500E+01  0.51100000000E-03 0.  1.
        -12    1    3    3    0    0 -0.21033107664E+01 -0.25622124887E+01 -0.10088221242E+02  0.10618900924E+02  0.00000000000E+00 0.  1.
</event>
<event>
 7    1  0.1322363E-009  0.4778728E+02  0.7816164E-02  0.1312668E+00
        -11   -1    0    0    0    0  0.00000000000E+00  0.00000000000E+00  0.45593999997E+02  0.45594000000E+02  0.51100000000E-03 0.  1.
         11   -1    0    0    0    0 -0.00000000000E+00 -0.00000000000E+00 -0.45593999997E+02  0.45594000000E+02  0.51100000000E-03 0. -1.
    9900012    2    1    2    0    0  0.20592415973E+02  0.49455814316E+01 -0.37882930146E+02  0.47787276876E+02  0.20000026586E+02 0.  0.
        -12    1    1    2    0    0 -0.20592415973E+02 -0.49455814316E+01  0.37882930146E+02  0.43400723124E+02  0.00000000000E+00 0.  1.
         11    1    3    3    0    0  0.21131846683E+01 -0.35607338753E+01 -0.74397030322E+01  0.85143148075E+01  0.51100000000E-03 0. -1.
        -11    1    3    3    0    0  0.90820324001E+01 -0.31868569782E+01 -0.14281880806E+02  0.17222412419E+02  0.51100000000E-03 0.  1.
         12    1    3    3    0    0  0.93971989048E+01  0.11693172285E+02 -0.16161346307E+02  0.22050549649E+02  0.00000000000E+00 0. -1.
</event>
<event>
 7    1  0.1322363E-009  0.4778727E+02  0.7816164E-02  0.1312668E+00
        -11   -1    0    0    0    0  0.00000000000E+00  0.00000000000E+00  0.45593999997E+02  0.45594000000E+02  0.51100000000E-03 0.  1.
         11   -1    0    0    0    0 -0.00000000000E+00 -0.00000000000E+00 -0.45593999997E+02  0.45594000000E+02  0.51100000000E-03 0. -1.
    9900012    2    1    2    0    0  0.20094151808E+02  0.23075847220E+02 -0.30779114036E+02  0.47787268179E+02  0.19999986935E+02 0.  0.
        -12    1    1    2    0    0 -0.20094151808E+02 -0.23075847220E+02  0.30779114036E+02  0.43400731821E+02  0.00000000000E+00 0.  1.
         11    1    3    3    0    0  0.88813737608E+01  0.14212429130E+02 -0.12858380334E+02  0.21123680710E+02  0.51100000000E-03 0. -1.
        -11    1    3    3    0    0 -0.10511354947E+01  0.45562890737E+00  0.16970169053E+01  0.20475229346E+01  0.51100000000E-03 0.  1.
         12    1    3    3    0    0  0.12263913542E+02  0.84077891829E+01 -0.19617750607E+02  0.24616064535E+02  0.00000000000E+00 0. -1.
</event>
<event>
 7    1  0.1322363E-009  0.4778727E+02  0.7816164E-02  0.1312668E+00
        -11   -1    0    0    0    0  0.00000000000E+00  0.00000000000E+00  0.45593999997E+02  0.45594000000E+02  0.51100000000E-03 0.  1.
         11   -1    0    0    0    0 -0.00000000000E+00 -0.00000000000E+00 -0.45593999997E+02  0.45594000000E+02  0.51100000000E-03 0. -1.
    9900012    2    1    2    0    0 -0.67094395934E+01 -0.22426580549E+02 -0.36546621225E+02  0.47787267082E+02  0.19999981936E+02 0.  0.
        -12    1    1    2    0    0  0.67094395934E+01  0.22426580549E+02  0.36546621225E+02  0.43400732918E+02  0.00000000000E+00 0.  1.
         11    1    3    3    0    0 -0.73554734102E+01 -0.12531407047E+02 -0.22020168245E+02  0.26382322897E+02  0.51100000000E-03 0. -1.
        -11    1    3    3    0    0 -0.24418371284E+01  0.12093366221E+01  0.16733231911E+00  0.27300300352E+01  0.51100000000E-03 0.  1.
         12    1    3    3    0    0  0.30878709452E+01 -0.11104510124E+02 -0.14693785300E+02  0.18674914150E+02  0.00000000000E+00 0. -1.
</event>
<event>
 7    1  0.1322363E-009  0.4778729E+02  0.7816164E-02  0.1312668E+00
        -11   -1    0    0    0    0  0.00000000000E+00  0.00000000000E+00  0.45593999997E+02  0.45594000000E+02  0.51100000000E-03 0.  1.
         11   -1    0    0    0    0 -0.00000000000E+00 -0.00000000000E+00 -0.45593999997E+02  0.45594000000E+02  0.51100000000E-03 0. -1.
    9900012    2    1    2    0    0  0.20715459049E+02  0.37306178818E+02 -0.79208923286E+01  0.47787288521E+02  0.20000079684E+02 0.  0.
        -12    1    1    2    0    0 -0.20715459049E+02 -0.37306178818E+02  0.79208923286E+01  0.43400711479E+02  0.00000000000E+00 0.  1.
         11    1    3    3    0    0  0.57813961404E+00  0.95124510377E+01 -0.52788868425E+01  0.10894384641E+02  0.51100000000E-03 0. -1.
        -11    1    3    3    0    0  0.13481420178E+02  0.26391338541E+02 -0.11179670773E+00  0.29635518196E+02  0.51100000000E-03 0.  1.
        -12    1    3    3    0    0  0.66558992575E+01  0.14023892392E+01 -0.25302087784E+01  0.72573856840E+01  0.00000000000E+00 0.  1.
</event>
<event>
 7    1  0.1322363E-009  0.4778727E+02  0.7816164E-02  0.1312668E+00
        -11   -1    0    0    0    0  0.00000000000E+00  0.00000000000E+00  0.45593999997E+02  0.45594000000E+02  0.51100000000E-03 0.  1.
         11   -1    0    0    0    0 -0.00000000000E+00 -0.00000000000E+00 -0.45593999997E+02  0.45594000000E+02  0.51100000000E-03 0. -1.
    9900012    2    1    2    0    0  0.11147070062E+02  0.24773367635E+02 -0.33847398569E+02  0.47787270688E+02  0.19999998373E+02 0.  0.
        -12    1    1    2    0    0 -0.11147070062E+02 -0.24773367635E+02  0.33847398569E+02  0.43400729312E+02  0.00000000000E+00 0.  1.
         11    1    3    3    0    0 -0.52876836338E+01  0.85444734253E+01 -0.78111820139E+01  0.12727222362E+02  0.51100000000E-03 0. -1.
        -11    1    3    3    0    0  0.96725668452E+01  0.66573828596E+01 -0.13732112127E+02  0.18067932910E+02  0.51100000000E-03 0.  1.
         12    1    3    3    0    0  0.67621868508E+01  0.95715113505E+01 -0.12304104428E+02  0.16992115416E+02  0.00000000000E+00 0. -1.
</event>
<event>
 7    1  0.1322363E-009  0.4778728E+02  0.7816164E-02  0.1312668E+00
        -11   -1    0    0    0    0  0.00000000000E+00  0.00000000000E+00  0.45593999997E+02  0.45594000000E+02  0.51100000000E-03 0. -1.
         11   -1    0    0    0    0 -0.00000000000E+00 -0.00000000000E+00 -0.45593999997E+02  0.45594000000E+02  0.51100000000E-03 0.  1.
    9900012    2    1    2    0    0 -0.25435304335E+02  0.17475750412E+02  0.30516655767E+02  0.47787276063E+02  0.20000022880E+02 0.  0.
        -12    1    1    2    0    0  0.25435304335E+02 -0.17475750412E+02 -0.30516655767E+02  0.43400723937E+02  0.00000000000E+00 0.  1.
         11    1    3    3    0    0 -0.19081536953E+02  0.10726948393E+02  0.26670338893E+02  0.34503325220E+02  0.51100000000E-03 0. -1.
        -11    1    3    3    0    0 -0.49556438811E+01  0.45486951459E+01  0.66477106783E+01  0.94573300318E+01  0.51100000000E-03 0.  1.
        -12    1    3    3    0    0 -0.13981235010E+01  0.22001068734E+01 -0.28013938048E+01  0.38266208106E+01  0.00000000000E+00 0.  1.
</event>
<event>
 7    1  0.1322363E-009  0.4778727E+02  0.7816164E-02  0.1312668E+00
        -11   -1    0    0    0    0  0.00000000000E+00  0.00000000000E+00  0.45593999997E+02  0.45594000000E+02  0.51100000000E-03 0.  1.
         11   -1    0    0    0    0 -0.00000000000E+00 -0.00000000000E+00 -0.45593999997E+02  0.45594000000E+02  0.51100000000E-03 0. -1.
    9900012    2    1    2    0    0 -0.27768954978E+02 -0.13270830896E+02 -0.30600554831E+02  0.47787265338E+02  0.19999973980E+02 0.  0.
        -12    1    1    2    0    0  0.27768954978E+02  0.13270830896E+02  0.30600554831E+02  0.43400734662E+02  0.00000000000E+00 0.  1.
         11    1    3    3    0    0 -0.36225234654E+01 -0.36326290816E+01 -0.12565362013E+02  0.13572287688E+02  0.51100000000E-03 0. -1.
        -11    1    3    3    0    0 -0.16138580495E+02 -0.84735869943E-01 -0.13181057134E+02  0.20837495723E+02  0.51100000000E-03 0.  1.
        -12    1    3    3    0    0 -0.80078510178E+01 -0.95534659440E+01 -0.48541356843E+01  0.13377481927E+02  0.00000000000E+00 0.  1.
</event>
<event>
 7    1  0.1322363E-009  0.4778727E+02  0.7816164E-02  0.1312668E+00
        -11   -1    0    0    0    0  0.00000000000E+00  0.00000000000E+00  0.45593999997E+02  0.45594000000E+02  0.51100000000E-03 0.  1.
         11   -1    0    0    0    0 -0.00000000000E+00 -0.00000000000E+00 -0.45593999997E+02  0.45594000000E+02  0.51100000000E-03 0. -1.
    9900012    2    1    2    0    0 -0.22652294158E+02 -0.36613808659E+02 -0.54704420346E+01  0.47787272457E+02  0.20000006442E+02 0.  0.
        -12    1    1    2    0    0  0.22652294158E+02  0.36613808659E+02  0.54704420346E+01  0.43400727543E+02  0.00000000000E+00 0.  1.
         11    1    3    3    0    0 -0.10572651385E+02 -0.65230743968E+01 -0.36841721596E+01  0.12957800032E+02  0.51100000000E-03 0. -1.
        -11    1    3    3    0    0 -0.29673984536E+01 -0.71264762943E+01  0.50134934566E+01  0.92047398038E+01  0.51100000000E-03 0.  1.
         12    1    3    3    0    0 -0.91122443193E+01 -0.22964257968E+02 -0.67997633316E+01  0.25624732622E+02  0.00000000000E+00 0. -1.
</event>
<event>
 7    1  0.1322363E-009  0.4778728E+02  0.7816164E-02  0.1312668E+00
        -11   -1    0    0    0    0  0.00000000000E+00  0.00000000000E+00  0.45593999997E+02  0.45594000000E+02  0.51100000000E-03 0. -1.
         11   -1    0    0    0    0 -0.00000000000E+00 -0.00000000000E+00 -0.45593999997E+02  0.45594000000E+02  0.51100000000E-03 0.  1.
    9900012    2    1    2    0    0  0.23529411403E+02  0.13566359059E+02  0.33851787456E+02  0.47787276353E+02  0.20000024206E+02 0.  0.
        -12    1    1    2    0    0 -0.23529411403E+02 -0.13566359059E+02 -0.33851787456E+02  0.43400723647E+02  0.00000000000E+00 0.  1.
         11    1    3    3    0    0  0.18714395745E+02  0.10745585176E+02  0.14802709746E+02  0.26168997401E+02  0.51100000000E-03 0. -1.
        -11    1    3    3    0    0 -0.23050267394E+01  0.19477434986E+01  0.49009543014E+01  0.57555370150E+01  0.51100000000E-03 0.  1.
        -12    1    3    3    0    0  0.71200423975E+01  0.87303038424E+00  0.14148123409E+02  0.15862741938E+02  0.00000000000E+00 0.  1.
</event>
<event>
 7    1  0.1322363E-009  0.4778728E+02  0.7816164E-02  0.1312668E+00
        -11   -1    0    0    0    0  0.00000000000E+00  0.00000000000E+00  0.45593999997E+02  0.45594000000E+02  0.51100000000E-03 0.  1.
         11   -1    0    0    0    0 -0.00000000000E+00 -0.00000000000E+00 -0.45593999997E+02  0.45594000000E+02  0.51100000000E-03 0. -1.
    9900012    2    1    2    0    0  0.15512715737E+02 -0.34755388890E+02 -0.20857632282E+02  0.47787283061E+02  0.20000054788E+02 0.  0.
        -12    1    1    2    0    0 -0.15512715737E+02  0.34755388890E+02  0.20857632282E+02  0.43400716939E+02  0.00000000000E+00 0.  1.
         11    1    3    3    0    0 -0.14750442710E+01 -0.47798491643E+01 -0.26568496187E+01  0.56640589503E+01  0.51100000000E-03 0. -1.
        -11    1    3    3    0    0 -0.17367238694E+01  0.81818511647E+00 -0.12922219317E+01  0.23141898075E+01  0.51100000000E-03 0.  1.
         12    1    3    3    0    0  0.18724483878E+02 -0.30793724842E+02 -0.16908560731E+02  0.39809034303E+02  0.00000000000E+00 0. -1.
</event>
<event>
 7    1  0.2246208E-009  0.4778725E+02  0.7816164E-02  0.1312668E+00
        -11   -1    0    0    0    0  0.00000000000E+00  0.00000000000E+00  0.45593999997E+02  0.45594000000E+02  0.51100000000E-03 0.  1.
         11   -1    0    0    0    0 -0.00000000000E+00 -0.00000000000E+00 -0.45593999997E+02  0.45594000000E+02  0.51100000000E-03 0. -1.
    9900012    2    1    2    0    0 -0.21424706580E+02  0.37543915643E+02 -0.38808832819E+01  0.47787252208E+02  0.19999914115E+02 0.  0.
        -12    1    1    2    0    0  0.21424706580E+02 -0.37543915643E+02  0.38808832819E+01  0.43400747792E+02  0.00000000000E+00 0.  1.
         11    1    3    3    0    0 -0.18855271588E+02  0.34743600206E+02 -0.91589930677E+01  0.40577409678E+02  0.51100000000E-03 0. -1.
        -11    1    3    3    0    0  0.45000324611E-01  0.21868395932E+01  0.19235725703E+01  0.29128034828E+01  0.51100000000E-03 0.  1.
         12    1    3    3    0    0 -0.26144353164E+01  0.61347584454E+00  0.33545372156E+01  0.42970390464E+01  0.00000000000E+00 0. -1.
</event>
<event>
 7    1  0.1322363E-009  0.4778728E+02  0.7816164E-02  0.1312668E+00
        -11   -1    0    0    0    0  0.00000000000E+00  0.00000000000E+00  0.45593999997E+02  0.45594000000E+02  0.51100000000E-03 0.  1.
         11   -1    0    0    0    0 -0.00000000000E+00 -0.00000000000E+00 -0.45593999997E+02  0.45594000000E+02  0.51100000000E-03 0. -1.
    9900012    2    1    2    0    0 -0.42596850823E+02  0.16090748362E+01 -0.81573075946E+01  0.47787280086E+02  0.20000041225E+02 0.  0.
        -12    1    1    2    0    0  0.42596850823E+02 -0.16090748362E+01  0.81573075946E+01  0.43400719914E+02  0.00000000000E+00 0.  1.
         11    1    3    3    0    0 -0.42378694984E+01  0.45405276439E+01 -0.78881497674E+00  0.62608432738E+01  0.51100000000E-03 0. -1.
        -11    1    3    3    0    0 -0.14947298962E+02 -0.69403819677E+01 -0.66266715424E+01  0.17762416055E+02  0.51100000000E-03 0.  1.
         12    1    3    3    0    0 -0.23411682362E+02  0.40089291599E+01 -0.74182107542E+00  0.23764020757E+02  0.00000000000E+00 0. -1.
</event>
<event>
 7    1  0.1322363E-009  0.4778727E+02  0.7816164E-02  0.1312668E+00
        -11   -1    0    0    0    0  0.00000000000E+00  0.00000000000E+00  0.45593999997E+02  0.45594000000E+02  0.51100000000E-03 0.  1.
         11   -1    0    0    0    0 -0.00000000000E+00 -0.00000000000E+00 -0.45593999997E+02  0.45594000000E+02  0.51100000000E-03 0. -1.
    9900012    2    1    2    0    0  0.38202899875E+02 -0.18040223759E+02 -0.99353882426E+01  0.47787272222E+02  0.20000005369E+02 0.  0.
        -12    1    1    2    0    0 -0.38202899875E+02  0.18040223759E+02  0.99353882426E+01  0.43400727778E+02  0.00000000000E+00 0.  1.
         11    1    3    3    0    0  0.84485946111E+01  0.14951721144E+00 -0.28599351995E+01  0.89207811264E+01  0.51100000000E-03 0. -1.
        -11    1    3    3    0    0  0.21492578777E+02 -0.40976464361E+01 -0.42473096288E+01  0.22288142321E+02  0.51100000000E-03 0.  1.
        -12    1    3    3    0    0  0.82617264874E+01 -0.14092094534E+02 -0.28281434143E+01  0.16578348774E+02  0.00000000000E+00 0.  1.
</event>
<event>
 7    1  0.1322363E-009  0.4778727E+02  0.7816164E-02  0.1312668E+00
        -11   -1    0    0    0    0  0.00000000000E+00  0.00000000000E+00  0.45593999997E+02  0.45594000000E+02  0.51100000000E-03 0.  1.
         11   -1    0    0    0    0 -0.00000000000E+00 -0.00000000000E+00 -0.45593999997E+02  0.45594000000E+02  0.51100000000E-03 0. -1.
    9900012    2    1    2    0    0  0.74055929151E+01 -0.49381994135E+01 -0.42478163971E+02  0.47787273805E+02  0.20000012588E+02 0.  0.
        -12    1    1    2    0    0 -0.74055929151E+01  0.49381994135E+01  0.42478163971E+02  0.43400726195E+02  0.00000000000E+00 0.  1.
         11    1    3    3    0    0  0.29788578837E+01 -0.17785855154E+01 -0.22086063142E+02  0.22356903768E+02  0.51100000000E-03 0. -1.
        -11    1    3    3    0    0 -0.40070531488E+01 -0.28036057043E+01 -0.21745080688E+01  0.53521178504E+01  0.51100000000E-03 0.  1.
         12    1    3    3    0    0  0.84337881801E+01 -0.35600819380E+00 -0.18217592760E+02  0.20078252187E+02  0.00000000000E+00 0. -1.
</event>
<event>
 7    1  0.1322363E-009  0.4778727E+02  0.7816164E-02  0.1312668E+00
        -11   -1    0    0    0    0  0.00000000000E+00  0.00000000000E+00  0.45593999997E+02  0.45594000000E+02  0.51100000000E-03 0.  1.
         11   -1    0    0    0    0 -0.00000000000E+00 -0.00000000000E+00 -0.45593999997E+02  0.45594000000E+02  0.51100000000E-03 0. -1.
    9900012    2    1    2    0    0 -0.38533679399E+02 -0.56561617446E+01 -0.19151678699E+02  0.47787269468E+02  0.19999992813E+02 0.  0.
        -12    1    1    2    0    0  0.38533679399E+02  0.56561617446E+01  0.19151678699E+02  0.43400730532E+02  0.00000000000E+00 0.  1.
         11    1    3    3    0    0 -0.77307905778E+00  0.37042435455E+00 -0.21024852156E+01  0.22705307254E+01  0.51100000000E-03 0. -1.
        -11    1    3    3    0    0 -0.12026407565E+02 -0.42501951336E+01  0.26893336225E+01  0.13035764388E+02  0.51100000000E-03 0.  1.
        -12    1    3    3    0    0 -0.25734192777E+02 -0.17763909656E+01 -0.19738527106E+02  0.32480974355E+02  0.00000000000E+00 0.  1.
</event>
<event>
 7    1  0.1322363E-009  0.4778728E+02  0.7816164E-02  0.1312668E+00
        -11   -1    0    0    0    0  0.00000000000E+00  0.00000000000E+00  0.45593999997E+02  0.45594000000E+02  0.51100000000E-03 0.  1.
         11   -1    0    0    0    0 -0.00000000000E+00 -0.00000000000E+00 -0.45593999997E+02  0.45594000000E+02  0.51100000000E-03 0. -1.
    9900012    2    1    2    0    0  0.30734941732E+02  0.12529210775E+02 -0.27964352562E+02  0.47787276733E+02  0.20000025935E+02 0.  0.
        -12    1    1    2    0    0 -0.30734941732E+02 -0.12529210775E+02  0.27964352562E+02  0.43400723267E+02  0.00000000000E+00 0.  1.
         11    1    3    3    0    0  0.13895409505E+02  0.86752252042E+01 -0.20051656242E+02  0.25892293371E+02  0.51100000000E-03 0. -1.
        -11    1    3    3    0    0 -0.15839636023E+01  0.28875486718E+00 -0.26775673937E+00  0.16321807496E+01  0.51100000000E-03 0.  1.
        -12    1    3    3    0    0  0.18423495829E+02  0.35652307033E+01 -0.76449395799E+01  0.20262802613E+02  0.00000000000E+00 0.  1.
</event>
<event>
 7    1  0.1322363E-009  0.4778727E+02  0.7816164E-02  0.1312668E+00
        -11   -1    0    0    0    0  0.00000000000E+00  0.00000000000E+00  0.45593999997E+02  0.45594000000E+02  0.51100000000E-03 0.  1.
         11   -1    0    0    0    0 -0.00000000000E+00 -0.00000000000E+00 -0.45593999997E+02  0.45594000000E+02  0.51100000000E-03 0. -1.
    9900012    2    1    2    0    0  0.83875616439E+01 -0.22049972661E+02 -0.36428981882E+02  0.47787271830E+02  0.20000003582E+02 0.  0.
        -12    1    1    2    0    0 -0.83875616439E+01  0.22049972661E+02  0.36428981882E+02  0.43400728170E+02  0.00000000000E+00 0.  1.
         11    1    3    3    0    0  0.38491171760E+01  0.15506370643E+01 -0.11136815094E+02  0.11884815061E+02  0.51100000000E-03 0.  1.
        -11    1    3    3    0    0  0.63083892566E+01 -0.10515514906E+02 -0.12780896890E+02  0.17712231772E+02  0.51100000000E-03 0. -1.
        -12    1    3    3    0    0 -0.17699447888E+01 -0.13085094819E+02 -0.12511269898E+02  0.18190224997E+02  0.00000000000E+00 0.  1.
</event>
<event>
 7    1  0.1322363E-009  0.4778727E+02  0.7816164E-02  0.1312668E+00
        -11   -1    0    0    0    0  0.00000000000E+00  0.00000000000E+00  0.45593999997E+02  0.45594000000E+02  0.51100000000E-03 0.  1.
         11   -1    0    0    0    0 -0.00000000000E+00 -0.00000000000E+00 -0.45593999997E+02  0.45594000000E+02  0.51100000000E-03 0. -1.
    9900012    2    1    2    0    0 -0.19761502371E+02 -0.13138711354E+02 -0.36338418176E+02  0.47787270196E+02  0.19999996131E+02 0.  0.
        -12    1    1    2    0    0  0.19761502371E+02  0.13138711354E+02  0.36338418176E+02  0.43400729804E+02  0.00000000000E+00 0.  1.
         11    1    3    3    0    0 -0.20756238218E+02 -0.94729834561E+01 -0.29887318352E+02  0.37600673386E+02  0.51100000000E-03 0. -1.
        -11    1    3    3    0    0 -0.72075003079E-01  0.17917842776E+01 -0.33995842477E+01  0.38435477130E+01  0.51100000000E-03 0.  1.
         12    1    3    3    0    0  0.10668108499E+01 -0.54575121760E+01 -0.30515155760E+01  0.63430490973E+01  0.00000000000E+00 0. -1.
</event>
<event>
 7    1  0.1322363E-009  0.4778727E+02  0.7816164E-02  0.1312668E+00
        -11   -1    0    0    0    0  0.00000000000E+00  0.00000000000E+00  0.45593999997E+02  0.45594000000E+02  0.51100000000E-03 0.  1.
         11   -1    0    0    0    0 -0.00000000000E+00 -0.00000000000E+00 -0.45593999997E+02  0.45594000000E+02  0.51100000000E-03 0. -1.
    9900012    2    1    2    0    0 -0.97201524112E+01  0.87922685937E+01 -0.41374368175E+02  0.47787266229E+02  0.19999978046E+02 0.  0.
        -12    1    1    2    0    0  0.97201524112E+01 -0.87922685937E+01  0.41374368175E+02  0.43400733771E+02  0.00000000000E+00 0.  1.
         11    1    3    3    0    0 -0.72017207450E+01  0.20734276087E+00 -0.25649900377E+02  0.26642544216E+02  0.51100000000E-03 0. -1.
        -11    1    3    3    0    0  0.12322182943E+01 -0.11705079277E+01  0.56464242681E+00  0.17908858324E+01  0.51100000000E-03 0.  1.
        -12    1    3    3    0    0 -0.37506499605E+01  0.97554337605E+01 -0.16289110225E+02  0.19353836181E+02  0.00000000000E+00 0.  1.
</event>
<event>
 7    1  0.1322363E-009  0.4778727E+02  0.7816164E-02  0.1312668E+00
        -11   -1    0    0    0    0  0.00000000000E+00  0.00000000000E+00  0.45593999997E+02  0.45594000000E+02  0.51100000000E-03 0.  1.
         11   -1    0    0    0    0 -0.00000000000E+00 -0.00000000000E+00 -0.45593999997E+02  0.45594000000E+02  0.51100000000E-03 0. -1.
    9900012    2    1    2    0    0 -0.17895016319E+02  0.22373949580E+02 -0.32600585974E+02  0.47787269192E+02  0.19999991552E+02 0.  0.
        -12    1    1    2    0    0  0.17895016319E+02 -0.22373949580E+02  0.32600585974E+02  0.43400730808E+02  0.00000000000E+00 0.  1.
         11    1    3    3    0    0 -0.31478623502E+01 -0.12083053902E+01 -0.71214399260E+01  0.78793366582E+01  0.51100000000E-03 0. -1.
        -11    1    3    3    0    0 -0.17763720204E+01  0.14922917329E+02 -0.14046047213E+02  0.20570376801E+02  0.51100000000E-03 0.  1.
         12    1    3    3    0    0 -0.12970781948E+02  0.86593376408E+01 -0.11433098835E+02  0.19337555732E+02  0.00000000000E+00 0. -1.
</event>
<event>
 7    1  0.1322363E-009  0.4778727E+02  0.7816164E-02  0.1312668E+00
        -11   -1    0    0    0    0  0.00000000000E+00  0.00000000000E+00  0.45593999997E+02  0.45594000000E+02  0.51100000000E-03 0.  1.
         11   -1    0    0    0    0 -0.00000000000E+00 -0.00000000000E+00 -0.45593999997E+02  0.45594000000E+02  0.51100000000E-03 0. -1.
    9900012    2    1    2    0    0  0.38204008797E+02  0.19906604495E+02  0.52729726737E+01  0.47787269228E+02  0.19999991719E+02 0.  0.
        -12    1    1    2    0    0 -0.38204008797E+02 -0.19906604495E+02 -0.52729726737E+01  0.43400730772E+02  0.00000000000E+00 0.  1.
         11    1    3    3    0    0  0.26296019221E+02  0.17847922518E+02 -0.27911498882E+01  0.31903283264E+02  0.51100000000E-03 0. -1.
        -11    1    3    3    0    0 -0.17411473856E+00 -0.59672338586E+00  0.20247066860E+01  0.21179783207E+01  0.51100000000E-03 0.  1.
        -12    1    3    3    0    0  0.12082104315E+02  0.26554053635E+01  0.60394158759E+01  0.13766007644E+02  0.00000000000E+00 0.  1.
</event>
<event>
 7    1  0.1322363E-009  0.4778727E+02  0.7816164E-02  0.1312668E+00
        -11   -1    0    0    0    0  0.00000000000E+00  0.00000000000E+00  0.45593999997E+02  0.45594000000E+02  0.51100000000E-03 0.  1.
         11   -1    0    0    0    0 -0.00000000000E+00 -0.00000000000E+00 -0.45593999997E+02  0.45594000000E+02  0.51100000000E-03 0. -1.
    9900012    2    1    2    0    0  0.35897093634E+01  0.42426918060E+02 -0.84079742733E+01  0.47787269353E+02  0.19999992286E+02 0.  0.
        -12    1    1    2    0    0 -0.35897093634E+01 -0.42426918060E+02  0.84079742733E+01  0.43400730647E+02  0.00000000000E+00 0.  1.
         11    1    3    3    0    0 -0.15075265803E+01  0.58769380164E+01  0.30975785598E+01  0.68121971517E+01  0.51100000000E-03 0. -1.
        -11    1    3    3    0    0 -0.39978387364E+01  0.13414582728E+02 -0.11478288519E+01  0.14044616607E+02  0.51100000000E-03 0.  1.
         12    1    3    3    0    0  0.90950746801E+01  0.23135397316E+02 -0.10357723981E+02  0.26930455593E+02  0.00000000000E+00 0. -1.
</event>
<event>
 7    1  0.1322363E-009  0.4778727E+02  0.7816164E-02  0.1312668E+00
        -11   -1    0    0    0    0  0.00000000000E+00  0.00000000000E+00  0.45593999997E+02  0.45594000000E+02  0.51100000000E-03 0. -1.
         11   -1    0    0    0    0 -0.00000000000E+00 -0.00000000000E+00 -0.45593999997E+02  0.45594000000E+02  0.51100000000E-03 0.  1.
    9900012    2    1    2    0    0  0.34782901902E+02 -0.21420636843E+02  0.14660464277E+02  0.47787272352E+02  0.20000005964E+02 0.  0.
        -12    1    1    2    0    0 -0.34782901902E+02  0.21420636843E+02 -0.14660464277E+02  0.43400727648E+02  0.00000000000E+00 0.  1.
         11    1    3    3    0    0  0.10861960704E+02 -0.14488455319E+02  0.13897373951E+02  0.22826180821E+02  0.51100000000E-03 0. -1.
        -11    1    3    3    0    0  0.10035114084E+02 -0.35305345877E+01 -0.10181225135E+00  0.10638541025E+02  0.51100000000E-03 0.  1.
         12    1    3    3    0    0  0.13885827115E+02 -0.34016469372E+01  0.86490257727E+00  0.14322550507E+02  0.00000000000E+00 0. -1.
</event>
<event>
 7    1  0.1322363E-009  0.4778727E+02  0.7816164E-02  0.1312668E+00
        -11   -1    0    0    0    0  0.00000000000E+00  0.00000000000E+00  0.45593999997E+02  0.45594000000E+02  0.51100000000E-03 0.  1.
         11   -1    0    0    0    0 -0.00000000000E+00 -0.00000000000E+00 -0.45593999997E+02  0.45594000000E+02  0.51100000000E-03 0. -1.
    9900012    2    1    2    0    0 -0.38977074714E+02  0.33667531827E+01 -0.18790315290E+02  0.47787270410E+02  0.19999997107E+02 0.  0.
        -12    1    1    2    0    0  0.38977074714E+02 -0.33667531827E+01  0.18790315290E+02  0.43400729590E+02  0.00000000000E+00 0.  1.
         11    1    3    3    0    0 -0.33082391445E+02  0.31305009156E+01 -0.13987544397E+02  0.36054071313E+02  0.51100000000E-03 0. -1.
        -11    1    3    3    0    0 -0.34782334376E+01 -0.42486035783E+01 -0.33646058674E+01  0.64396671588E+01  0.51100000000E-03 0.  1.
        -12    1    3    3    0    0 -0.24164498315E+01  0.44848558454E+01 -0.14381650248E+01  0.52935319382E+01  0.00000000000E+00 0.  1.
</event>
<event>
 7    1  0.1322363E-009  0.4778729E+02  0.7816164E-02  0.1312668E+00
        -11   -1    0    0    0    0  0.00000000000E+00  0.00000000000E+00  0.45593999997E+02  0.45594000000E+02  0.51100000000E-03 0. -1.
         11   -1    0    0    0    0 -0.00000000000E+00 -0.00000000000E+00 -0.45593999997E+02  0.45594000000E+02  0.51100000000E-03 0.  1.
    9900012    2    1    2    0    0  0.94248794195E+01  0.26660015649E+01  0.42281030681E+02  0.47787291804E+02  0.20000094652E+02 0.  0.
        -12    1    1    2    0    0 -0.94248794195E+01 -0.26660015649E+01 -0.42281030681E+02  0.43400708196E+02  0.00000000000E+00 0.  1.
         11    1    3    3    0    0  0.37301857461E+00  0.59541063367E+01  0.16159929439E+02  0.17225964265E+02  0.51100000000E-03 0. -1.
        -11    1    3    3    0    0  0.41469401559E+01 -0.32203275430E+01  0.24978848299E+02  0.25524703422E+02  0.51100000000E-03 0.  1.
         12    1    3    3    0    0  0.49049206890E+01 -0.67777228838E-01  0.11422529432E+01  0.50366241178E+01  0.00000000000E+00 0. -1.
</event>
<event>
 7    1  0.1322363E-009  0.4778727E+02  0.7816164E-02  0.1312668E+00
        -11   -1    0    0    0    0  0.00000000000E+00  0.00000000000E+00  0.45593999997E+02  0.45594000000E+02  0.51100000000E-03 0.  1.
         11   -1    0    0    0    0 -0.00000000000E+00 -0.00000000000E+00 -0.45593999997E+02  0.45594000000E+02  0.51100000000E-03 0. -1.
    9900012    2    1    2    0    0 -0.23125293746E+02  0.35309611562E+01 -0.36556485049E+02  0.47787268477E+02  0.19999988296E+02 0.  0.
        -12    1    1    2    0    0  0.23125293746E+02 -0.35309611562E+01  0.36556485049E+02  0.43400731523E+02  0.00000000000E+00 0.  1.
         11    1    3    3    0    0 -0.22776076926E+01 -0.31858025638E+00  0.71631890506E+00  0.24087555327E+01  0.51100000000E-03 0.  1.
        -11    1    3    3    0    0 -0.13668125059E+02  0.88082518063E+01 -0.29539599115E+02  0.33719295050E+02  0.51100000000E-03 0. -1.
        -12    1    3    3    0    0 -0.71795609940E+01 -0.49587103937E+01 -0.77332048394E+01  0.11659217895E+02  0.00000000000E+00 0.  1.
</event>
<event>
 7    1  0.1322363E-009  0.4778727E+02  0.7816164E-02  0.1312668E+00
        -11   -1    0    0    0    0  0.00000000000E+00  0.00000000000E+00  0.45593999997E+02  0.45594000000E+02  0.51100000000E-03 0. -1.
         11   -1    0    0    0    0 -0.00000000000E+00 -0.00000000000E+00 -0.45593999997E+02  0.45594000000E+02  0.51100000000E-03 0.  1.
    9900012    2    1    2    0    0  0.89597335634E+01  0.41330325605E+02 -0.97545261184E+01  0.47787269362E+02  0.19999992329E+02 0.  0.
        -12    1    1    2    0    0 -0.89597335634E+01 -0.41330325605E+02  0.97545261184E+01  0.43400730638E+02  0.00000000000E+00 0.  1.
         11    1    3    3    0    0  0.97805846866E+01  0.17086304221E+02 -0.83514184919E+00  0.19705306161E+02  0.51100000000E-03 0. -1.
        -11    1    3    3    0    0 -0.27937239651E+01  0.14302668857E+02  0.12035196164E-01  0.14572967273E+02  0.51100000000E-03 0.  1.
        -12    1    3    3    0    0  0.19728728419E+01  0.99413525265E+01 -0.89314194654E+01  0.13508995928E+02  0.00000000000E+00 0.  1.
</event>
<event>
 7    1  0.1322363E-009  0.4778727E+02  0.7816164E-02  0.1312668E+00
        -11   -1    0    0    0    0  0.00000000000E+00  0.00000000000E+00  0.45593999997E+02  0.45594000000E+02  0.51100000000E-03 0.  1.
         11   -1    0    0    0    0 -0.00000000000E+00 -0.00000000000E+00 -0.45593999997E+02  0.45594000000E+02  0.51100000000E-03 0. -1.
    9900012    2    1    2    0    0 -0.36845520041E+02 -0.22931477375E+02 -0.42224242358E+00  0.47787270854E+02  0.19999999133E+02 0.  0.
        -12    1    1    2    0    0  0.36845520041E+02  0.22931477375E+02  0.42224242358E+00  0.43400729146E+02  0.00000000000E+00 0.  1.
         11    1    3    3    0    0 -0.23762130630E+01 -0.54812308910E+01  0.47441535687E+01  0.76287137806E+01  0.51100000000E-03 0. -1.
        -11    1    3    3    0    0 -0.10377525153E+02 -0.71722894266E+00 -0.25440795686E+01  0.10708864868E+02  0.51100000000E-03 0.  1.
         12    1    3    3    0    0 -0.24091781825E+02 -0.16733017542E+02 -0.26223164237E+01  0.29449692205E+02  0.00000000000E+00 0. -1.
</event>
<event>
 7    1  0.1322363E-009  0.4778727E+02  0.7816164E-02  0.1312668E+00
        -11   -1    0    0    0    0  0.00000000000E+00  0.00000000000E+00  0.45593999997E+02  0.45594000000E+02  0.51100000000E-03 0. -1.
         11   -1    0    0    0    0 -0.00000000000E+00 -0.00000000000E+00 -0.45593999997E+02  0.45594000000E+02  0.51100000000E-03 0.  1.
    9900012    2    1    2    0    0  0.43252497843E+01 -0.36469589771E+02  0.23127570974E+02  0.47787270709E+02  0.19999998472E+02 0.  0.
        -12    1    1    2    0    0 -0.43252497843E+01  0.36469589771E+02 -0.23127570974E+02  0.43400729291E+02  0.00000000000E+00 0.  1.
         11    1    3    3    0    0 -0.52027406334E+01 -0.11075194876E+02  0.11639881106E+02  0.16888317977E+02  0.51100000000E-03 0. -1.
        -11    1    3    3    0    0 -0.13711056209E+00  0.42689970214E+00  0.15148750167E+01  0.15798383586E+01  0.51100000000E-03 0.  1.
        -12    1    3    3    0    0  0.96651009798E+01 -0.25821294597E+02  0.99728148510E+01  0.29319114374E+02  0.00000000000E+00 0.  1.
</event>
<event>
 7    1  0.1322363E-009  0.4778727E+02  0.7816164E-02  0.1312668E+00
        -11   -1    0    0    0    0  0.00000000000E+00  0.00000000000E+00  0.45593999997E+02  0.45594000000E+02  0.51100000000E-03 0.  1.
         11   -1    0    0    0    0 -0.00000000000E+00 -0.00000000000E+00 -0.45593999997E+02  0.45594000000E+02  0.51100000000E-03 0. -1.
    9900012    2    1    2    0    0 -0.26979609195E+02 -0.39281335812E+01 -0.33768233307E+02  0.47787272743E+02  0.20000007746E+02 0.  0.
        -12    1    1    2    0    0  0.26979609195E+02  0.39281335812E+01  0.33768233307E+02  0.43400727257E+02  0.00000000000E+00 0.  1.
         11    1    3    3    0    0 -0.78418335768E+01 -0.36713086911E+01 -0.12100365164E+02  0.14879237168E+02  0.51100000000E-03 0. -1.
        -11    1    3    3    0    0 -0.34407576289E+01  0.62645316289E+01 -0.99974765352E+01  0.12289536481E+02  0.51100000000E-03 0.  1.
        -12    1    3    3    0    0 -0.15697017989E+02 -0.65213565190E+01 -0.11670391608E+02  0.20618499094E+02  0.00000000000E+00 0.  1.
</event>
<event>
 7    1  0.1322363E-009  0.4778727E+02  0.7816164E-02  0.1312668E+00
        -11   -1    0    0    0    0  0.00000000000E+00  0.00000000000E+00  0.45593999997E+02  0.45594000000E+02  0.51100000000E-03 0.  1.
         11   -1    0    0    0    0 -0.00000000000E+00 -0.00000000000E+00 -0.45593999997E+02  0.45594000000E+02  0.51100000000E-03 0. -1.
    9900012    2    1    2    0    0 -0.35932095348E+02 -0.20716489048E+02  0.12780261558E+02  0.47787268669E+02  0.19999989171E+02 0.  0.
        -12    1    1    2    0    0  0.35932095348E+02  0.20716489048E+02 -0.12780261558E+02  0.43400731331E+02  0.00000000000E+00 0.  1.
         11    1    3    3    0    0 -0.11245248854E+02 -0.48915087612E+01  0.23533008863E+01  0.12486813247E+02  0.51100000000E-03 0. -1.
        -11    1    3    3    0    0 -0.16660016055E+01  0.33650232947E+01  0.12054672925E+01  0.39436144307E+01  0.51100000000E-03 0.  1.
        -12    1    3    3    0    0 -0.23020844888E+02 -0.19190003582E+02  0.92214933789E+01  0.31356840991E+02  0.00000000000E+00 0.  1.
</event>
<event>
 7    1  0.1322363E-009  0.4778726E+02  0.7816164E-02  0.1312668E+00
        -11   -1    0    0    0    0  0.00000000000E+00  0.00000000000E+00  0.45593999997E+02  0.45594000000E+02  0.51100000000E-03 0.  1.
         11   -1    0    0    0    0 -0.00000000000E+00 -0.00000000000E+00 -0.45593999997E+02  0.45594000000E+02  0.51100000000E-03 0. -1.
    9900012    2    1    2    0    0  0.12785734261E+02 -0.24986367960E+02 -0.33103330337E+02  0.47787261944E+02  0.19999958506E+02 0.  0.
        -12    1    1    2    0    0 -0.12785734261E+02  0.24986367960E+02  0.33103330337E+02  0.43400738056E+02  0.00000000000E+00 0.  1.
         11    1    3    3    0    0 -0.13354728928E+01  0.81095625848E+00 -0.26809891333E+01  0.31030373660E+01  0.51100000000E-03 0. -1.
        -11    1    3    3    0    0  0.38217342213E+01 -0.20351077502E+01  0.48934278179E+00  0.43573813963E+01  0.51100000000E-03 0.  1.
         12    1    3    3    0    0  0.10299472933E+02 -0.23762216469E+02 -0.30911683985E+02  0.40326843181E+02  0.00000000000E+00 0. -1.
</event>
<event>
 7    1  0.1322363E-009  0.4778727E+02  0.7816164E-02  0.1312668E+00
        -11   -1    0    0    0    0  0.00000000000E+00  0.00000000000E+00  0.45593999997E+02  0.45594000000E+02  0.51100000000E-03 0. -1.
         11   -1    0    0    0    0 -0.00000000000E+00 -0.00000000000E+00 -0.45593999997E+02  0.45594000000E+02  0.51100000000E-03 0.  1.
    9900012    2    1    2    0    0  0.34903849673E+02  0.25268182649E+02  0.51830001297E+01  0.47787271127E+02  0.20000000377E+02 0.  0.
        -12    1    1    2    0    0 -0.34903849673E+02 -0.25268182649E+02 -0.51830001297E+01  0.43400728873E+02  0.00000000000E+00 0.  1.
         11    1    3    3    0    0  0.25977265321E+02  0.17254133330E+02  0.82021202363E+01  0.32245902176E+02  0.51100000000E-03 0. -1.
        -11    1    3    3    0    0  0.64726039769E+01  0.63312468166E+00  0.13180148583E+01  0.66357073875E+01  0.51100000000E-03 0.  1.
        -12    1    3    3    0    0  0.24539803751E+01  0.73809246369E+01 -0.43371349648E+01  0.89056615633E+01  0.00000000000E+00 0.  1.
</event>
<event>
 7    1  0.1322363E-009  0.4778727E+02  0.7816164E-02  0.1312668E+00
        -11   -1    0    0    0    0  0.00000000000E+00  0.00000000000E+00  0.45593999997E+02  0.45594000000E+02  0.51100000000E-03 0.  1.
         11   -1    0    0    0    0 -0.00000000000E+00 -0.00000000000E+00 -0.45593999997E+02  0.45594000000E+02  0.51100000000E-03 0. -1.
    9900012    2    1    2    0    0 -0.39913410820E+02 -0.73270889942E+01  0.15390155861E+02  0.47787268511E+02  0.19999988447E+02 0.  0.
        -12    1    1    2    0    0  0.39913410820E+02  0.73270889942E+01 -0.15390155861E+02  0.43400731489E+02  0.00000000000E+00 0.  1.
         11    1    3    3    0    0 -0.17919015327E+02 -0.13873924439E+01  0.36011999855E+01  0.18329882969E+02  0.51100000000E-03 0. -1.
        -11    1    3    3    0    0 -0.20031173421E+02 -0.82240862881E-01  0.58021680766E+01  0.20854731521E+02  0.51100000000E-03 0.  1.
        -12    1    3    3    0    0 -0.19632220718E+01 -0.58574556874E+01  0.59867877991E+01  0.86026540198E+01  0.00000000000E+00 0.  1.
</event>
<event>
 7    1  0.1322363E-009  0.4778728E+02  0.7816164E-02  0.1312668E+00
        -11   -1    0    0    0    0  0.00000000000E+00  0.00000000000E+00  0.45593999997E+02  0.45594000000E+02  0.51100000000E-03 0. -1.
         11   -1    0    0    0    0 -0.00000000000E+00 -0.00000000000E+00 -0.45593999997E+02  0.45594000000E+02  0.51100000000E-03 0.  1.
    9900012    2    1    2    0    0  0.25037678980E+02  0.34824323266E+01  0.35279022355E+02  0.47787284315E+02  0.20000060508E+02 0.  0.
        -12    1    1    2    0    0 -0.25037678980E+02 -0.34824323266E+01 -0.35279022355E+02  0.43400715685E+02  0.00000000000E+00 0.  1.
         11    1    3    3    0    0  0.75003140507E+01 -0.41791266070E+01  0.19050552593E+01  0.87948306327E+01  0.51100000000E-03 0. -1.
        -11    1    3    3    0    0  0.54892326549E+01  0.63980253914E+00  0.53558675891E+01  0.76958651445E+01  0.51100000000E-03 0.  1.
         12    1    3    3    0    0  0.12048132274E+02  0.70217563944E+01  0.28018099507E+02  0.31296588538E+02  0.00000000000E+00 0. -1.
</event>
<event>
 7    1  0.1322363E-009  0.4778727E+02  0.7816164E-02  0.1312668E+00
        -11   -1    0    0    0    0  0.00000000000E+00  0.00000000000E+00  0.45593999997E+02  0.45594000000E+02  0.51100000000E-03 0.  1.
         11   -1    0    0    0    0 -0.00000000000E+00 -0.00000000000E+00 -0.45593999997E+02  0.45594000000E+02  0.51100000000E-03 0. -1.
    9900012    2    1    2    0    0 -0.36971269941E+02 -0.14930855037E+02 -0.17141128372E+02  0.47787268266E+02  0.19999987330E+02 0.  0.
        -12    1    1    2    0    0  0.36971269941E+02  0.14930855037E+02  0.17141128372E+02  0.43400731734E+02  0.00000000000E+00 0.  1.
         11    1    3    3    0    0 -0.58719069001E+01 -0.58780344185E+01 -0.83515390521E+01  0.11780440742E+02  0.51100000000E-03 0. -1.
        -11    1    3    3    0    0 -0.11698691865E+02 -0.10095182781E+02 -0.47139791905E+01  0.16155299651E+02  0.51100000000E-03 0.  1.
         12    1    3    3    0    0 -0.19400671176E+02  0.10423621628E+01 -0.40756101296E+01  0.19851527873E+02  0.00000000000E+00 0. -1.
</event>
<event>
 7    1  0.1322363E-009  0.4778729E+02  0.7816164E-02  0.1312668E+00
        -11   -1    0    0    0    0  0.00000000000E+00  0.00000000000E+00  0.45593999997E+02  0.45594000000E+02  0.51100000000E-03 0.  1.
         11   -1    0    0    0    0 -0.00000000000E+00 -0.00000000000E+00 -0.45593999997E+02  0.45594000000E+02  0.51100000000E-03 0. -1.
    9900012    2    1    2    0    0  0.22966532506E+02 -0.11304592145E+02 -0.35048056777E+02  0.47787289145E+02  0.20000082526E+02 0.  0.
        -12    1    1    2    0    0 -0.22966532506E+02  0.11304592145E+02  0.35048056777E+02  0.43400710855E+02  0.00000000000E+00 0.  1.
         11    1    3    3    0    0  0.10511724826E+02 -0.25877522041E+01 -0.93691271632E+01  0.14316890876E+02  0.51100000000E-03 0. -1.
        -11    1    3    3    0    0 -0.34468752045E+01 -0.15775453713E+01 -0.67263098039E+01  0.77209353004E+01  0.51100000000E-03 0.  1.
        -12    1    3    3    0    0  0.15901682885E+02 -0.71392945696E+01 -0.18952619810E+02  0.25749462969E+02  0.00000000000E+00 0.  1.
</event>
<event>
 7    1  0.1322363E-009  0.4778727E+02  0.7816164E-02  0.1312668E+00
        -11   -1    0    0    0    0  0.00000000000E+00  0.00000000000E+00  0.45593999997E+02  0.45594000000E+02  0.51100000000E-03 0.  1.
         11   -1    0    0    0    0 -0.00000000000E+00 -0.00000000000E+00 -0.45593999997E+02  0.45594000000E+02  0.51100000000E-03 0. -1.
    9900012    2    1    2    0    0 -0.18059709574E+02  0.19787622965E+02 -0.34145575040E+02  0.47787269276E+02  0.19999991939E+02 0.  0.
        -12    1    1    2    0    0  0.18059709574E+02 -0.19787622965E+02  0.34145575040E+02  0.43400730724E+02  0.00000000000E+00 0.  1.
         11    1    3    3    0    0 -0.17624267801E+02  0.12291952757E+02 -0.12710582069E+02  0.24965292205E+02  0.51100000000E-03 0. -1.
        -11    1    3    3    0    0  0.28672840828E+00  0.16645370622E+01 -0.76982908913E+01  0.78814072170E+01  0.51100000000E-03 0.  1.
         12    1    3    3    0    0 -0.72217018186E+00  0.58311331463E+01 -0.13736702080E+02  0.14940569854E+02  0.00000000000E+00 0. -1.
</event>
<event>
 7    1  0.1322363E-009  0.4778727E+02  0.7816164E-02  0.1312668E+00
        -11   -1    0    0    0    0  0.00000000000E+00  0.00000000000E+00  0.45593999997E+02  0.45594000000E+02  0.51100000000E-03 0.  1.
         11   -1    0    0    0    0 -0.00000000000E+00 -0.00000000000E+00 -0.45593999997E+02  0.45594000000E+02  0.51100000000E-03 0. -1.
    9900012    2    1    2    0    0  0.42919799782E+02  0.57440977742E+01 -0.29188275942E+01  0.47787269279E+02  0.19999991952E+02 0.  0.
        -12    1    1    2    0    0 -0.42919799782E+02 -0.57440977742E+01  0.29188275942E+01  0.43400730721E+02  0.00000000000E+00 0.  1.
         11    1    3    3    0    0  0.21833311466E+02 -0.21682956661E+01 -0.56448934653E+01  0.22655238206E+02  0.51100000000E-03 0. -1.
        -11    1    3    3    0    0  0.17131770441E+02  0.18481344014E+01 -0.42449266737E+00  0.17236396187E+02  0.51100000000E-03 0.  1.
         12    1    3    3    0    0  0.39547178742E+01  0.60642590390E+01  0.31505585384E+01  0.78956348865E+01  0.00000000000E+00 0. -1.
</event>
<event>
 7    1  0.1322363E-009  0.4778727E+02  0.7816164E-02  0.1312668E+00
        -11   -1    0    0    0    0  0.00000000000E+00  0.00000000000E+00  0.45593999997E+02  0.45594000000E+02  0.51100000000E-03 0.  1.
         11   -1    0    0    0    0 -0.00000000000E+00 -0.00000000000E+00 -0.45593999997E+02  0.45594000000E+02  0.51100000000E-03 0. -1.
    9900012    2    1    2    0    0  0.12764488423E+02 -0.33634477974E+02 -0.24277830519E+02  0.47787270421E+02  0.19999997158E+02 0.  0.
        -12    1    1    2    0    0 -0.12764488423E+02  0.33634477974E+02  0.24277830519E+02  0.43400729579E+02  0.00000000000E+00 0.  1.
         11    1    3    3    0    0  0.41895183103E+00 -0.11858257515E+02 -0.31835540002E+01  0.12285308635E+02  0.51100000000E-03 0.  1.
        -11    1    3    3    0    0  0.12798663411E+02 -0.23082880494E+02 -0.21520033904E+02  0.34054911782E+02  0.51100000000E-03 0. -1.
         12    1    3    3    0    0 -0.45312681831E+00  0.13066600356E+01  0.42575738536E+00  0.14470500037E+01  0.00000000000E+00 0. -1.
</event>
<event>
 7    1  0.1322363E-009  0.4778730E+02  0.7816164E-02  0.1312668E+00
        -11   -1    0    0    0    0  0.00000000000E+00  0.00000000000E+00  0.45593999997E+02  0.45594000000E+02  0.51100000000E-03 0.  1.
         11   -1    0    0    0    0 -0.00000000000E+00 -0.00000000000E+00 -0.45593999997E+02  0.45594000000E+02  0.51100000000E-03 0. -1.
    9900012    2    1    2    0    0 -0.12320969061E+01  0.24011855176E+02 -0.36132169253E+02  0.47787298315E+02  0.20000124338E+02 0.  0.
        -12    1    1    2    0    0  0.12320969061E+01 -0.24011855176E+02  0.36132169253E+02  0.43400701685E+02  0.00000000000E+00 0.  1.
         11    1    3    3    0    0 -0.61280648980E+01  0.17154651823E+00 -0.85982102810E+01  0.10559916093E+02  0.51100000000E-03 0.  1.
        -11    1    3    3    0    0 -0.37357244151E+00  0.11896910510E+02 -0.14780745858E+02  0.18977525772E+02  0.51100000000E-03 0. -1.
         12    1    3    3    0    0  0.52695404334E+01  0.11943398148E+02 -0.12753213114E+02  0.18249856450E+02  0.00000000000E+00 0. -1.
</event>
<event>
 7    1  0.1322363E-009  0.4778727E+02  0.7816164E-02  0.1312668E+00
        -11   -1    0    0    0    0  0.00000000000E+00  0.00000000000E+00  0.45593999997E+02  0.45594000000E+02  0.51100000000E-03 0.  1.
         11   -1    0    0    0    0 -0.00000000000E+00 -0.00000000000E+00 -0.45593999997E+02  0.45594000000E+02  0.51100000000E-03 0. -1.
    9900012    2    1    2    0    0 -0.84496563353E+01  0.17496624687E+02 -0.38808439206E+02  0.47787268195E+02  0.19999987008E+02 0.  0.
        -12    1    1    2    0    0  0.84496563353E+01 -0.17496624687E+02  0.38808439206E+02  0.43400731805E+02  0.00000000000E+00 0.  1.
         11    1    3    3    0    0 -0.64073995483E+01  0.21619104353E+01 -0.12304039756E+02  0.14039872517E+02  0.51100000000E-03 0. -1.
        -11    1    3    3    0    0  0.54125474880E+00  0.14113217353E+02 -0.27337805655E+02  0.30770626887E+02  0.51100000000E-03 0.  1.
        -12    1    3    3    0    0 -0.25835115358E+01  0.12214968984E+01  0.83340620539E+00  0.29767687905E+01  0.00000000000E+00 0.  1.
</event>
<event>
 7    1  0.1322363E-009  0.4778727E+02  0.7816164E-02  0.1312668E+00
        -11   -1    0    0    0    0  0.00000000000E+00  0.00000000000E+00  0.45593999997E+02  0.45594000000E+02  0.51100000000E-03 0.  1.
         11   -1    0    0    0    0 -0.00000000000E+00 -0.00000000000E+00 -0.45593999997E+02  0.45594000000E+02  0.51100000000E-03 0. -1.
    9900012    2    1    2    0    0  0.30278348830E+02 -0.28824520182E+02 -0.11661570017E+02  0.47787267439E+02  0.19999983561E+02 0.  0.
        -12    1    1    2    0    0 -0.30278348830E+02  0.28824520182E+02  0.11661570017E+02  0.43400732561E+02  0.00000000000E+00 0.  1.
         11    1    3    3    0    0  0.29067127924E+01 -0.34560319928E+01 -0.51419487307E+01  0.68434474794E+01  0.51100000000E-03 0. -1.
        -11    1    3    3    0    0  0.19055709762E+01  0.15358145975E+01  0.17222396586E+01  0.29926638511E+01  0.51100000000E-03 0.  1.
         12    1    3    3    0    0  0.25466065061E+02 -0.26904302787E+02 -0.82418609450E+01  0.37951156108E+02  0.00000000000E+00 0. -1.
</event>
<event>
 7    1  0.1322363E-009  0.4778727E+02  0.7816164E-02  0.1312668E+00
        -11   -1    0    0    0    0  0.00000000000E+00  0.00000000000E+00  0.45593999997E+02  0.45594000000E+02  0.51100000000E-03 0.  1.
         11   -1    0    0    0    0 -0.00000000000E+00 -0.00000000000E+00 -0.45593999997E+02  0.45594000000E+02  0.51100000000E-03 0. -1.
    9900012    2    1    2    0    0  0.22505404182E+02  0.71266840614E-01 -0.37109634335E+02  0.47787271241E+02  0.20000000896E+02 0.  0.
        -12    1    1    2    0    0 -0.22505404182E+02 -0.71266840614E-01  0.37109634335E+02  0.43400728759E+02  0.00000000000E+00 0.  1.
         11    1    3    3    0    0  0.18965238186E+02  0.70432937034E+01 -0.24060973955E+02  0.31435946201E+02  0.51100000000E-03 0. -1.
        -11    1    3    3    0    0 -0.11685022959E+01 -0.73706309483E+00 -0.32345101992E+00  0.14189011399E+01  0.51100000000E-03 0.  1.
         12    1    3    3    0    0  0.47086682918E+01 -0.62349637679E+01 -0.12725209360E+02  0.14932423900E+02  0.00000000000E+00 0. -1.
</event>
<event>
 7    1  0.1322363E-009  0.4778728E+02  0.7816164E-02  0.1312668E+00
        -11   -1    0    0    0    0  0.00000000000E+00  0.00000000000E+00  0.45593999997E+02  0.45594000000E+02  0.51100000000E-03 0.  1.
         11   -1    0    0    0    0 -0.00000000000E+00 -0.00000000000E+00 -0.45593999997E+02  0.45594000000E+02  0.51100000000E-03 0. -1.
    9900012    2    1    2    0    0 -0.43077441236E+02 -0.28215464042E+01  0.44716537564E+01  0.47787277023E+02  0.20000027260E+02 0.  0.
        -12    1    1    2    0    0  0.43077441236E+02  0.28215464042E+01 -0.44716537564E+01  0.43400722977E+02  0.00000000000E+00 0.  1.
         11    1    3    3    0    0 -0.68903653170E+01 -0.37848100397E+01 -0.33501773724E+01  0.85455023215E+01  0.51100000000E-03 0. -1.
        -11    1    3    3    0    0 -0.70990760506E+01  0.20337174111E+01 -0.32911276993E+01  0.80848258531E+01  0.51100000000E-03 0.  1.
        -12    1    3    3    0    0 -0.29087999869E+02 -0.10704537756E+01  0.11112958828E+02  0.31156948849E+02  0.00000000000E+00 0.  1.
</event>
<event>
 7    1  0.1322363E-009  0.4778723E+02  0.7816164E-02  0.1312668E+00
        -11   -1    0    0    0    0  0.00000000000E+00  0.00000000000E+00  0.45593999997E+02  0.45594000000E+02  0.51100000000E-03 0.  1.
         11   -1    0    0    0    0 -0.00000000000E+00 -0.00000000000E+00 -0.45593999997E+02  0.45594000000E+02  0.51100000000E-03 0. -1.
    9900012    2    1    2    0    0  0.39307728945E+02  0.16993902766E+02 -0.70524278470E+01  0.47787227835E+02  0.19999802989E+02 0.  0.
        -12    1    1    2    0    0 -0.39307728945E+02 -0.16993902766E+02  0.70524278470E+01  0.43400772165E+02  0.00000000000E+00 0.  1.
         11    1    3    3    0    0  0.90544090032E+01 -0.96705298881E+00 -0.53502303086E+01  0.10561367265E+02  0.51100000000E-03 0. -1.
        -11    1    3    3    0    0  0.56812825721E+01 -0.84404468270E+00 -0.25219134599E+01  0.62729124695E+01  0.51100000000E-03 0.  1.
        -12    1    3    3    0    0  0.24572037369E+02  0.18805000438E+02  0.81971592143E+00  0.30952948101E+02  0.00000000000E+00 0.  1.
</event>
<event>
 7    1  0.1322363E-009  0.4778727E+02  0.7816164E-02  0.1312668E+00
        -11   -1    0    0    0    0  0.00000000000E+00  0.00000000000E+00  0.45593999997E+02  0.45594000000E+02  0.51100000000E-03 0.  1.
         11   -1    0    0    0    0 -0.00000000000E+00 -0.00000000000E+00 -0.45593999997E+02  0.45594000000E+02  0.51100000000E-03 0. -1.
    9900012    2    1    2    0    0  0.35220622812E+01 -0.40268575856E+02  0.15800652280E+02  0.47787265713E+02  0.19999975691E+02 0.  0.
        -12    1    1    2    0    0 -0.35220622812E+01  0.40268575856E+02 -0.15800652280E+02  0.43400734287E+02  0.00000000000E+00 0.  1.
         11    1    3    3    0    0 -0.10627603213E+01 -0.22929745127E+02  0.21065793955E+01  0.23050820985E+02  0.51100000000E-03 0. -1.
        -11    1    3    3    0    0 -0.27274879630E+01 -0.75325651417E+01  0.77106319054E+01  0.11119018520E+02  0.51100000000E-03 0.  1.
         12    1    3    3    0    0  0.73123105655E+01 -0.98062655877E+01  0.59834409792E+01  0.13617426208E+02  0.00000000000E+00 0. -1.
</event>
<event>
 7    1  0.1322363E-009  0.4778727E+02  0.7816164E-02  0.1312668E+00
        -11   -1    0    0    0    0  0.00000000000E+00  0.00000000000E+00  0.45593999997E+02  0.45594000000E+02  0.51100000000E-03 0. -1.
         11   -1    0    0    0    0 -0.00000000000E+00 -0.00000000000E+00 -0.45593999997E+02  0.45594000000E+02  0.51100000000E-03 0.  1.
    9900012    2    1    2    0    0 -0.12631762788E+02 -0.37606879671E+01  0.41351167399E+02  0.47787271315E+02  0.20000001233E+02 0.  0.
        -12    1    1    2    0    0  0.12631762788E+02  0.37606879671E+01 -0.41351167399E+02  0.43400728685E+02  0.00000000000E+00 0.  1.
         11    1    3    3    0    0 -0.86406714636E+00 -0.44592298322E+01  0.23021627420E+01  0.50922781033E+01  0.51100000000E-03 0. -1.
        -11    1    3    3    0    0  0.11563002626E+01  0.22421056250E+01  0.16229866099E+02  0.16424756369E+02  0.51100000000E-03 0.  1.
         12    1    3    3    0    0 -0.12923995904E+02 -0.15435637599E+01  0.22819138558E+02  0.26270236843E+02  0.00000000000E+00 0. -1.
</event>
<event>
 7    1  0.1322363E-009  0.4778727E+02  0.7816164E-02  0.1312668E+00
        -11   -1    0    0    0    0  0.00000000000E+00  0.00000000000E+00  0.45593999997E+02  0.45594000000E+02  0.51100000000E-03 0.  1.
         11   -1    0    0    0    0 -0.00000000000E+00 -0.00000000000E+00 -0.45593999997E+02  0.45594000000E+02  0.51100000000E-03 0. -1.
    9900012    2    1    2    0    0 -0.39344110020E+02 -0.37184052509E+00 -0.18317372576E+02  0.47787269629E+02  0.19999993547E+02 0.  0.
        -12    1    1    2    0    0  0.39344110020E+02  0.37184052509E+00  0.18317372576E+02  0.43400730371E+02  0.00000000000E+00 0.  1.
         11    1    3    3    0    0 -0.20752133730E+02  0.53650776334E+01 -0.14045130029E+02  0.25626173927E+02  0.51100000000E-03 0. -1.
        -11    1    3    3    0    0 -0.21448074965E+01 -0.36701121590E+01 -0.36008227317E+01  0.55709825941E+01  0.51100000000E-03 0.  1.
        -12    1    3    3    0    0 -0.16447168794E+02 -0.20668059994E+01 -0.67141981569E+00  0.16590113108E+02  0.00000000000E+00 0.  1.
</event>
<event>
 7    1  0.1322363E-009  0.4778728E+02  0.7816164E-02  0.1312668E+00
        -11   -1    0    0    0    0  0.00000000000E+00  0.00000000000E+00  0.45593999997E+02  0.45594000000E+02  0.51100000000E-03 0.  1.
         11   -1    0    0    0    0 -0.00000000000E+00 -0.00000000000E+00 -0.45593999997E+02  0.45594000000E+02  0.51100000000E-03 0. -1.
    9900012    2    1    2    0    0  0.12076131050E+02 -0.39588489065E+02 -0.13059149318E+02  0.47787276636E+02  0.20000025496E+02 0.  0.
        -12    1    1    2    0    0 -0.12076131050E+02  0.39588489065E+02  0.13059149318E+02  0.43400723364E+02  0.00000000000E+00 0.  1.
         11    1    3    3    0    0  0.43010980191E+01 -0.26680829461E+02 -0.16552763501E+02  0.31691640611E+02  0.51100000000E-03 0. -1.
        -11    1    3    3    0    0  0.60239593145E+00 -0.47224535018E+01  0.17577767852E+01  0.50748623058E+01  0.51100000000E-03 0.  1.
        -12    1    3    3    0    0  0.71726370991E+01 -0.81852061027E+01  0.17358373978E+01  0.11020773719E+02  0.00000000000E+00 0.  1.
</event>
<event>
 7    1  0.1322363E-009  0.4778725E+02  0.7816164E-02  0.1312668E+00
        -11   -1    0    0    0    0  0.00000000000E+00  0.00000000000E+00  0.45593999997E+02  0.45594000000E+02  0.51100000000E-03 0.  1.
         11   -1    0    0    0    0 -0.00000000000E+00 -0.00000000000E+00 -0.45593999997E+02  0.45594000000E+02  0.51100000000E-03 0. -1.
    9900012    2    1    2    0    0  0.10083596288E+02 -0.37279773638E+02 -0.19803137464E+02  0.47787254730E+02  0.19999925616E+02 0.  0.
        -12    1    1    2    0    0 -0.10083596288E+02  0.37279773638E+02  0.19803137464E+02  0.43400745270E+02  0.00000000000E+00 0.  1.
         11    1    3    3    0    0 -0.77247178049E-01 -0.47005923408E+00  0.17114089520E+01  0.17764694402E+01  0.51100000000E-03 0.  1.
        -11    1    3    3    0    0  0.40305041215E+01 -0.33346587093E+02 -0.16993196836E+02  0.37643174324E+02  0.51100000000E-03 0. -1.
         12    1    3    3    0    0  0.61303393443E+01 -0.34631273105E+01 -0.45213495801E+01  0.83676109656E+01  0.00000000000E+00 0. -1.
</event>
<event>
 7    1  0.1322363E-009  0.4778727E+02  0.7816164E-02  0.1312668E+00
        -11   -1    0    0    0    0  0.00000000000E+00  0.00000000000E+00  0.45593999997E+02  0.45594000000E+02  0.51100000000E-03 0.  1.
         11   -1    0    0    0    0 -0.00000000000E+00 -0.00000000000E+00 -0.45593999997E+02  0.45594000000E+02  0.51100000000E-03 0. -1.
    9900012    2    1    2    0    0 -0.22988105120E+02 -0.35115227457E+02 -0.11049477856E+02  0.47787272618E+02  0.20000007176E+02 0.  0.
        -12    1    1    2    0    0  0.22988105120E+02  0.35115227457E+02  0.11049477856E+02  0.43400727382E+02  0.00000000000E+00 0.  1.
         11    1    3    3    0    0  0.23479928286E+01 -0.23310065473E+01 -0.74014886563E+00  0.33903513758E+01  0.51100000000E-03 0. -1.
        -11    1    3    3    0    0 -0.12729371651E+02 -0.12784830198E+02 -0.10262077618E+02  0.20755698569E+02  0.51100000000E-03 0.  1.
         12    1    3    3    0    0 -0.12606726298E+02 -0.19999390712E+02 -0.47251372559E-01  0.23641222673E+02  0.00000000000E+00 0. -1.
</event>
<event>
 7    1  0.1322363E-009  0.4778727E+02  0.7816164E-02  0.1312668E+00
        -11   -1    0    0    0    0  0.00000000000E+00  0.00000000000E+00  0.45593999997E+02  0.45594000000E+02  0.51100000000E-03 0.  1.
         11   -1    0    0    0    0 -0.00000000000E+00 -0.00000000000E+00 -0.45593999997E+02  0.45594000000E+02  0.51100000000E-03 0. -1.
    9900012    2    1    2    0    0 -0.37868146791E+02 -0.20524307314E+02 -0.53272183382E+01  0.47787274345E+02  0.20000015050E+02 0.  0.
        -12    1    1    2    0    0  0.37868146791E+02  0.20524307314E+02  0.53272183382E+01  0.43400725655E+02  0.00000000000E+00 0.  1.
         11    1    3    3    0    0 -0.95948776234E+01 -0.20595796051E+01  0.32935505751E+01  0.10351377706E+02  0.51100000000E-03 0.  1.
        -11    1    3    3    0    0 -0.25295598920E+02 -0.11243414667E+02 -0.10136004008E+02  0.29479149845E+02  0.51100000000E-03 0. -1.
         12    1    3    3    0    0 -0.29776702480E+01 -0.72213130417E+01  0.15152350947E+01  0.79567467940E+01  0.00000000000E+00 0. -1.
</event>
<event>
 7    1  0.1322363E-009  0.4778727E+02  0.7816164E-02  0.1312668E+00
        -11   -1    0    0    0    0  0.00000000000E+00  0.00000000000E+00  0.45593999997E+02  0.45594000000E+02  0.51100000000E-03 0.  1.
         11   -1    0    0    0    0 -0.00000000000E+00 -0.00000000000E+00 -0.45593999997E+02  0.45594000000E+02  0.51100000000E-03 0. -1.
    9900012    2    1    2    0    0 -0.23932210287E+02  0.88313314307E+01 -0.35112394927E+02  0.47787269804E+02  0.19999994344E+02 0.  0.
        -12    1    1    2    0    0  0.23932210287E+02 -0.88313314307E+01  0.35112394927E+02  0.43400730196E+02  0.00000000000E+00 0.  1.
         11    1    3    3    0    0 -0.20650448745E+02  0.11331288037E+01 -0.32754363725E+02  0.38737234769E+02  0.51100000000E-03 0. -1.
        -11    1    3    3    0    0 -0.21293153193E+01  0.20797520627E+01 -0.47974215648E+00  0.30148806227E+01  0.51100000000E-03 0.  1.
         12    1    3    3    0    0 -0.11524462231E+01  0.56184505644E+01 -0.18782890449E+01  0.60351544121E+01  0.00000000000E+00 0. -1.
</event>
<event>
 7    1  0.1322363E-009  0.4778727E+02  0.7816164E-02  0.1312668E+00
        -11   -1    0    0    0    0  0.00000000000E+00  0.00000000000E+00  0.45593999997E+02  0.45594000000E+02  0.51100000000E-03 0.  1.
         11   -1    0    0    0    0 -0.00000000000E+00 -0.00000000000E+00 -0.45593999997E+02  0.45594000000E+02  0.51100000000E-03 0. -1.
    9900012    2    1    2    0    0 -0.88764118952E+01  0.52963073542E+01 -0.42151888226E+02  0.47787271427E+02  0.20000001742E+02 0.  0.
        -12    1    1    2    0    0  0.88764118952E+01 -0.52963073542E+01  0.42151888226E+02  0.43400728573E+02  0.00000000000E+00 0.  1.
         11    1    3    3    0    0 -0.47472327904E+01 -0.24926216505E+01 -0.34354768483E+02  0.34770670107E+02  0.51100000000E-03 0. -1.
        -11    1    3    3    0    0 -0.44406958211E+01  0.28227259805E+01 -0.52240608319E+01  0.74147402633E+01  0.51100000000E-03 0.  1.
         12    1    3    3    0    0  0.31151671627E+00  0.49662030242E+01 -0.25730589104E+01  0.56018610567E+01  0.00000000000E+00 0. -1.
</event>
<event>
 7    1  0.1322363E-009  0.4778727E+02  0.7816164E-02  0.1312668E+00
        -11   -1    0    0    0    0  0.00000000000E+00  0.00000000000E+00  0.45593999997E+02  0.45594000000E+02  0.51100000000E-03 0.  1.
         11   -1    0    0    0    0 -0.00000000000E+00 -0.00000000000E+00 -0.45593999997E+02  0.45594000000E+02  0.51100000000E-03 0. -1.
    9900012    2    1    2    0    0  0.21722291563E+02 -0.99191425892E+01 -0.36240531804E+02  0.47787268602E+02  0.19999988862E+02 0.  0.
        -12    1    1    2    0    0 -0.21722291563E+02  0.99191425892E+01  0.36240531804E+02  0.43400731398E+02  0.00000000000E+00 0.  1.
         11    1    3    3    0    0  0.44177874604E+01 -0.62037136064E+01 -0.70251277993E+01  0.10361241693E+02  0.51100000000E-03 0. -1.
        -11    1    3    3    0    0  0.99494356799E+01 -0.63547760868E+01 -0.66585899234E+01  0.13554013040E+02  0.51100000000E-03 0.  1.
        -12    1    3    3    0    0  0.73550684231E+01  0.26393471040E+01 -0.22556814082E+02  0.23872013869E+02  0.00000000000E+00 0.  1.
</event>
<event>
 7    1  0.1322363E-009  0.4778727E+02  0.7816164E-02  0.1312668E+00
        -11   -1    0    0    0    0  0.00000000000E+00  0.00000000000E+00  0.45593999997E+02  0.45594000000E+02  0.51100000000E-03 0.  1.
         11   -1    0    0    0    0 -0.00000000000E+00 -0.00000000000E+00 -0.45593999997E+02  0.45594000000E+02  0.51100000000E-03 0. -1.
    9900012    2    1    2    0    0 -0.11243586401E+02  0.30518405559E+02 -0.28737289823E+02  0.47787272594E+02  0.20000007063E+02 0.  0.
        -12    1    1    2    0    0  0.11243586401E+02 -0.30518405559E+02  0.28737289823E+02  0.43400727406E+02  0.00000000000E+00 0.  1.
         11    1    3    3    0    0 -0.13756779242E+02  0.26501635784E+02 -0.21707345156E+02  0.36916046759E+02  0.51100000000E-03 0. -1.
        -11    1    3    3    0    0 -0.10346187657E+01 -0.13877477549E+01 -0.22102765224E+01  0.28074191686E+01  0.51100000000E-03 0.  1.
        -12    1    3    3    0    0  0.35478116060E+01  0.54045175304E+01 -0.48196681449E+01  0.80638066665E+01  0.00000000000E+00 0.  1.
</event>
<event>
 7    1  0.1322363E-009  0.4778727E+02  0.7816164E-02  0.1312668E+00
        -11   -1    0    0    0    0  0.00000000000E+00  0.00000000000E+00  0.45593999997E+02  0.45594000000E+02  0.51100000000E-03 0. -1.
         11   -1    0    0    0    0 -0.00000000000E+00 -0.00000000000E+00 -0.45593999997E+02  0.45594000000E+02  0.51100000000E-03 0.  1.
    9900012    2    1    2    0    0  0.37521189201E+02  0.18386944103E+01  0.21734829079E+02  0.47787271535E+02  0.20000002239E+02 0.  0.
        -12    1    1    2    0    0 -0.37521189201E+02 -0.18386944103E+01 -0.21734829079E+02  0.43400728465E+02  0.00000000000E+00 0.  1.
         11    1    3    3    0    0  0.92241951480E+01 -0.32335616360E+01  0.83893257028E+00  0.98104793513E+01  0.51100000000E-03 0.  1.
        -11    1    3    3    0    0  0.23327875637E+02  0.68721599035E+01  0.10858717253E+02  0.26633214303E+02  0.51100000000E-03 0. -1.
         12    1    3    3    0    0  0.49691184152E+01 -0.17999038572E+01  0.10037179256E+02  0.11343577881E+02  0.00000000000E+00 0. -1.
</event>
<event>
 7    1  0.1322363E-009  0.4778727E+02  0.7816164E-02  0.1312668E+00
        -11   -1    0    0    0    0  0.00000000000E+00  0.00000000000E+00  0.45593999997E+02  0.45594000000E+02  0.51100000000E-03 0.  1.
         11   -1    0    0    0    0 -0.00000000000E+00 -0.00000000000E+00 -0.45593999997E+02  0.45594000000E+02  0.51100000000E-03 0. -1.
    9900012    2    1    2    0    0  0.19887913464E+02 -0.10831741432E+00 -0.38575671769E+02  0.47787270893E+02  0.19999999309E+02 0.  0.
        -12    1    1    2    0    0 -0.19887913464E+02  0.10831741432E+00  0.38575671769E+02  0.43400729107E+02  0.00000000000E+00 0.  1.
         11    1    3    3    0    0  0.12500745217E+02 -0.10250619833E+01 -0.16022106310E+02  0.20347660159E+02  0.51100000000E-03 0. -1.
        -11    1    3    3    0    0  0.89714798389E+01 -0.40656497840E+01 -0.17943601897E+02  0.20469240532E+02  0.51100000000E-03 0.  1.
        -12    1    3    3    0    0 -0.15843115924E+01  0.49823943530E+01 -0.46099635619E+01  0.69703702020E+01  0.00000000000E+00 0.  1.
</event>
<event>
 7    1  0.1322363E-009  0.4778727E+02  0.7816164E-02  0.1312668E+00
        -11   -1    0    0    0    0  0.00000000000E+00  0.00000000000E+00  0.45593999997E+02  0.45594000000E+02  0.51100000000E-03 0. -1.
         11   -1    0    0    0    0 -0.00000000000E+00 -0.00000000000E+00 -0.45593999997E+02  0.45594000000E+02  0.51100000000E-03 0.  1.
    9900012    2    1    2    0    0 -0.11195926891E+02 -0.24704970043E+02  0.33881249438E+02  0.47787269738E+02  0.19999994042E+02 0.  0.
        -12    1    1    2    0    0  0.11195926891E+02  0.24704970043E+02 -0.33881249438E+02  0.43400730262E+02  0.00000000000E+00 0.  1.
         11    1    3    3    0    0 -0.11694353095E+02 -0.42750590272E+01  0.90785292808E+01  0.15409533353E+02  0.51100000000E-03 0. -1.
        -11    1    3    3    0    0  0.55595789341E+00 -0.75727583877E+01  0.12226310179E+02  0.14392304181E+02  0.51100000000E-03 0.  1.
        -12    1    3    3    0    0 -0.57531689690E-01 -0.12857152629E+02  0.12576409979E+02  0.17985432204E+02  0.00000000000E+00 0.  1.
</event>
<event>
 7    1  0.1322363E-009  0.4778727E+02  0.7816164E-02  0.1312668E+00
        -11   -1    0    0    0    0  0.00000000000E+00  0.00000000000E+00  0.45593999997E+02  0.45594000000E+02  0.51100000000E-03 0. -1.
         11   -1    0    0    0    0 -0.00000000000E+00 -0.00000000000E+00 -0.45593999997E+02  0.45594000000E+02  0.51100000000E-03 0.  1.
    9900012    2    1    2    0    0  0.38396463929E+02  0.92445103793E+01  0.17996496696E+02  0.47787270654E+02  0.19999998222E+02 0.  0.
        -12    1    1    2    0    0 -0.38396463929E+02 -0.92445103793E+01 -0.17996496696E+02  0.43400729346E+02  0.00000000000E+00 0.  1.
         11    1    3    3    0    0  0.10955482499E+02  0.30045096241E+01  0.13744608764E+02  0.17831543545E+02  0.51100000000E-03 0. -1.
        -11    1    3    3    0    0  0.14379896712E+02 -0.15088158133E+01  0.23966064052E+01  0.14656113985E+02  0.51100000000E-03 0.  1.
        -12    1    3    3    0    0  0.13061084717E+02  0.77488165685E+01  0.18552815270E+01  0.15299613124E+02  0.00000000000E+00 0.  1.
</event>
<event>
 7    1  0.1322363E-009  0.4778726E+02  0.7816164E-02  0.1312668E+00
        -11   -1    0    0    0    0  0.00000000000E+00  0.00000000000E+00  0.45593999997E+02  0.45594000000E+02  0.51100000000E-03 0.  1.
         11   -1    0    0    0    0 -0.00000000000E+00 -0.00000000000E+00 -0.45593999997E+02  0.45594000000E+02  0.51100000000E-03 0. -1.
    9900012    2    1    2    0    0 -0.22233955960E+02  0.98474073649E+01 -0.35948625374E+02  0.47787263880E+02  0.19999967335E+02 0.  0.
        -12    1    1    2    0    0  0.22233955960E+02 -0.98474073649E+01  0.35948625374E+02  0.43400736120E+02  0.00000000000E+00 0.  1.
         11    1    3    3    0    0  0.10950455419E+01  0.46359986380E+00 -0.10572949639E+02  0.10639610609E+02  0.51100000000E-03 0. -1.
        -11    1    3    3    0    0 -0.57197052251E+01  0.58212111493E+01 -0.36069248462E+01  0.89225239823E+01  0.51100000000E-03 0.  1.
         12    1    3    3    0    0 -0.17609296277E+02  0.35625963518E+01 -0.21768750889E+02  0.28225129289E+02  0.00000000000E+00 0. -1.
</event>
<event>
 7    1  0.1322363E-009  0.4778726E+02  0.7816164E-02  0.1312668E+00
        -11   -1    0    0    0    0  0.00000000000E+00  0.00000000000E+00  0.45593999997E+02  0.45594000000E+02  0.51100000000E-03 0.  1.
         11   -1    0    0    0    0 -0.00000000000E+00 -0.00000000000E+00 -0.45593999997E+02  0.45594000000E+02  0.51100000000E-03 0. -1.
    9900012    2    1    2    0    0  0.53433003339E+01  0.36112877734E+02 -0.23471969983E+02  0.47787260703E+02  0.19999952849E+02 0.  0.
        -12    1    1    2    0    0 -0.53433003339E+01 -0.36112877734E+02  0.23471969983E+02  0.43400739297E+02  0.00000000000E+00 0.  1.
         11    1    3    3    0    0  0.38769115285E+01  0.33862847205E+02 -0.14045273256E+02  0.36864516340E+02  0.51100000000E-03 0. -1.
        -11    1    3    3    0    0  0.15143646637E+00  0.36164880235E+01 -0.60626958585E+01  0.70610339159E+01  0.51100000000E-03 0.  1.
        -12    1    3    3    0    0  0.13149523391E+01 -0.13664574952E+01 -0.33640008679E+01  0.38617104473E+01  0.00000000000E+00 0.  1.
</event>
<event>
 7    1  0.1322363E-009  0.4778727E+02  0.7816164E-02  0.1312668E+00
        -11   -1    0    0    0    0  0.00000000000E+00  0.00000000000E+00  0.45593999997E+02  0.45594000000E+02  0.51100000000E-03 0.  1.
         11   -1    0    0    0    0 -0.00000000000E+00 -0.00000000000E+00 -0.45593999997E+02  0.45594000000E+02  0.51100000000E-03 0. -1.
    9900012    2    1    2    0    0  0.29326708568E+02  0.15760939083E+02 -0.27841707156E+02  0.47787266209E+02  0.19999977953E+02 0.  0.
        -12    1    1    2    0    0 -0.29326708568E+02 -0.15760939083E+02  0.27841707156E+02  0.43400733791E+02  0.00000000000E+00 0.  1.
         11    1    3    3    0    0  0.10756711103E+02  0.82606375245E+01 -0.55245206733E+01  0.14644633658E+02  0.51100000000E-03 0. -1.
        -11    1    3    3    0    0  0.11324740983E+02  0.84446774473E+01 -0.21588662529E+02  0.25799858247E+02  0.51100000000E-03 0.  1.
         12    1    3    3    0    0  0.72452564831E+01 -0.94437588859E+00 -0.72852395410E+00  0.73427743038E+01  0.00000000000E+00 0. -1.
</event>
<event>
 7    1  0.1322363E-009  0.4778727E+02  0.7816164E-02  0.1312668E+00
        -11   -1    0    0    0    0  0.00000000000E+00  0.00000000000E+00  0.45593999997E+02  0.45594000000E+02  0.51100000000E-03 0.  1.
         11   -1    0    0    0    0 -0.00000000000E+00 -0.00000000000E+00 -0.45593999997E+02  0.45594000000E+02  0.51100000000E-03 0. -1.
    9900012    2    1    2    0    0  0.81750791538E+01  0.28587792263E+02 -0.31615338437E+02  0.47787269475E+02  0.19999992842E+02 0.  0.
        -12    1    1    2    0    0 -0.81750791538E+01 -0.28587792263E+02  0.31615338437E+02  0.43400730525E+02  0.00000000000E+00 0.  1.
         11    1    3    3    0    0  0.61811311831E+00  0.52085427902E+00 -0.55564407005E+01  0.56149253358E+01  0.51100000000E-03 0. -1.
        -11    1    3    3    0    0  0.68653694924E+01  0.25559497457E+01 -0.35355040905E+01  0.81342465420E+01  0.51100000000E-03 0.  1.
         12    1    3    3    0    0  0.69159654305E+00  0.25510988238E+02 -0.22523393646E+02  0.34038097597E+02  0.00000000000E+00 0. -1.
</event>
<event>
 7    1  0.2176721E-009  0.4778727E+02  0.7816164E-02  0.1312668E+00
        -11   -1    0    0    0    0  0.00000000000E+00  0.00000000000E+00  0.45593999997E+02  0.45594000000E+02  0.51100000000E-03 0. -1.
         11   -1    0    0    0    0 -0.00000000000E+00 -0.00000000000E+00 -0.45593999997E+02  0.45594000000E+02  0.51100000000E-03 0.  1.
    9900012    2    1    2    0    0  0.23971330686E+02  0.10906435129E+02  0.34497078667E+02  0.47787268915E+02  0.19999990293E+02 0.  0.
        -12    1    1    2    0    0 -0.23971330686E+02 -0.10906435129E+02 -0.34497078667E+02  0.43400731085E+02  0.00000000000E+00 0.  1.
         11    1    3    3    0    0  0.11918106898E+01  0.47616861129E+01  0.94602146816E+00  0.49989023033E+01  0.51100000000E-03 0. -1.
        -11    1    3    3    0    0  0.61583423317E+01 -0.36466974581E+01  0.10849163676E+02  0.12997227987E+02  0.51100000000E-03 0.  1.
         12    1    3    3    0    0  0.16621177665E+02  0.97914464743E+01  0.22701893524E+02  0.29791138625E+02  0.00000000000E+00 0. -1.
</event>
<event>
 7    1  0.1322363E-009  0.4778727E+02  0.7816164E-02  0.1312668E+00
        -11   -1    0    0    0    0  0.00000000000E+00  0.00000000000E+00  0.45593999997E+02  0.45594000000E+02  0.51100000000E-03 0.  1.
         11   -1    0    0    0    0 -0.00000000000E+00 -0.00000000000E+00 -0.45593999997E+02  0.45594000000E+02  0.51100000000E-03 0. -1.
    9900012    2    1    2    0    0 -0.18979615911E+02 -0.26692169532E+02 -0.28476753829E+02  0.47787271399E+02  0.20000001618E+02 0.  0.
        -12    1    1    2    0    0  0.18979615911E+02  0.26692169532E+02  0.28476753829E+02  0.43400728601E+02  0.00000000000E+00 0.  1.
         11    1    3    3    0    0 -0.95803051696E+01 -0.80710650787E+00 -0.83738556387E+01  0.12749710843E+02  0.51100000000E-03 0.  1.
        -11    1    3    3    0    0 -0.75281098418E+01 -0.13629676052E+02 -0.72354567632E+01  0.17169517813E+02  0.51100000000E-03 0. -1.
        -12    1    3    3    0    0 -0.18712008998E+01 -0.12255386971E+02 -0.12867441427E+02  0.17868042744E+02  0.00000000000E+00 0.  1.
</event>
<event>
 7    1  0.1322363E-009  0.4778727E+02  0.7816164E-02  0.1312668E+00
        -11   -1    0    0    0    0  0.00000000000E+00  0.00000000000E+00  0.45593999997E+02  0.45594000000E+02  0.51100000000E-03 0.  1.
         11   -1    0    0    0    0 -0.00000000000E+00 -0.00000000000E+00 -0.45593999997E+02  0.45594000000E+02  0.51100000000E-03 0. -1.
    9900012    2    1    2    0    0  0.16764908328E+02 -0.23471218096E+02 -0.32429353997E+02  0.47787271540E+02  0.20000002262E+02 0.  0.
        -12    1    1    2    0    0 -0.16764908328E+02  0.23471218096E+02  0.32429353997E+02  0.43400728460E+02  0.00000000000E+00 0.  1.
         11    1    3    3    0    0  0.15289707858E+02 -0.86736170902E+01 -0.12037415727E+02  0.21305073984E+02  0.51100000000E-03 0.  1.
        -11    1    3    3    0    0  0.23839803854E+01 -0.43160988829E+01 -0.12166226304E+02  0.13127419197E+02  0.51100000000E-03 0. -1.
         12    1    3    3    0    0 -0.90877991490E+00 -0.10481502123E+02 -0.82257119663E+01  0.13354778360E+02  0.00000000000E+00 0. -1.
</event>
<event>
 7    1  0.1322363E-009  0.4778727E+02  0.7816164E-02  0.1312668E+00
        -11   -1    0    0    0    0  0.00000000000E+00  0.00000000000E+00  0.45593999997E+02  0.45594000000E+02  0.51100000000E-03 0.  1.
         11   -1    0    0    0    0 -0.00000000000E+00 -0.00000000000E+00 -0.45593999997E+02  0.45594000000E+02  0.51100000000E-03 0. -1.
    9900012    2    1    2    0    0  0.43064169138E+02  0.34573938229E+01 -0.41408718580E+01  0.47787273562E+02  0.20000011480E+02 0.  0.
        -12    1    1    2    0    0 -0.43064169138E+02 -0.34573938229E+01  0.41408718580E+01  0.43400726438E+02  0.00000000000E+00 0.  1.
         11    1    3    3    0    0  0.18046083276E+02 -0.56349086534E+00 -0.21257197140E+01  0.18179585478E+02  0.51100000000E-03 0. -1.
        -11    1    3    3    0    0  0.10201998675E+02  0.89571806493E+01  0.13153755243E+01  0.13639724160E+02  0.51100000000E-03 0.  1.
        -12    1    3    3    0    0  0.14816087187E+02 -0.49362959611E+01 -0.33305276683E+01  0.15967963924E+02  0.00000000000E+00 0.  1.
</event>
<event>
 7    1  0.1322363E-009  0.4778731E+02  0.7816164E-02  0.1312668E+00
        -11   -1    0    0    0    0  0.00000000000E+00  0.00000000000E+00  0.45593999997E+02  0.45594000000E+02  0.51100000000E-03 0.  1.
         11   -1    0    0    0    0 -0.00000000000E+00 -0.00000000000E+00 -0.45593999997E+02  0.45594000000E+02  0.51100000000E-03 0. -1.
    9900012    2    1    2    0    0  0.28270748177E+02  0.32881454684E+02  0.17874600739E+01  0.47787305557E+02  0.20000157356E+02 0.  0.
        -12    1    1    2    0    0 -0.28270748177E+02 -0.32881454684E+02 -0.17874600739E+01  0.43400694443E+02  0.00000000000E+00 0.  1.
         11    1    3    3    0    0  0.21473283406E+02  0.13959802742E+02  0.31056457429E+01  0.25799671094E+02  0.51100000000E-03 0. -1.
        -11    1    3    3    0    0  0.21964366149E+00  0.47347788887E+01  0.31897497434E+01  0.57132195958E+01  0.51100000000E-03 0.  1.
        -12    1    3    3    0    0  0.65778211096E+01  0.14186873053E+02 -0.45079354125E+01  0.16274414867E+02  0.00000000000E+00 0.  1.
</event>
<event>
 7    1  0.1322363E-009  0.4778727E+02  0.7816164E-02  0.1312668E+00
        -11   -1    0    0    0    0  0.00000000000E+00  0.00000000000E+00  0.45593999997E+02  0.45594000000E+02  0.51100000000E-03 0.  1.
         11   -1    0    0    0    0 -0.00000000000E+00 -0.00000000000E+00 -0.45593999997E+02  0.45594000000E+02  0.51100000000E-03 0. -1.
    9900012    2    1    2    0    0  0.17019746350E+02  0.17529657521E+02 -0.35870077283E+02  0.47787273014E+02  0.20000008979E+02 0.  0.
        -12    1    1    2    0    0 -0.17019746350E+02 -0.17529657521E+02  0.35870077283E+02  0.43400726986E+02  0.00000000000E+00 0.  1.
         11    1    3    3    0    0  0.10494785848E+01  0.55250454560E+01 -0.11995622523E+02  0.13248490200E+02  0.51100000000E-03 0. -1.
        -11    1    3    3    0    0  0.72451775553E+01  0.10687547760E+02 -0.52664124969E+01  0.13944582309E+02  0.51100000000E-03 0.  1.
         12    1    3    3    0    0  0.87250902101E+01  0.13170643044E+01 -0.18608042263E+02  0.20594200505E+02  0.00000000000E+00 0. -1.
</event>
<event>
 7    1  0.1322363E-009  0.4778727E+02  0.7816164E-02  0.1312668E+00
        -11   -1    0    0    0    0  0.00000000000E+00  0.00000000000E+00  0.45593999997E+02  0.45594000000E+02  0.51100000000E-03 0.  1.
         11   -1    0    0    0    0 -0.00000000000E+00 -0.00000000000E+00 -0.45593999997E+02  0.45594000000E+02  0.51100000000E-03 0. -1.
    9900012    2    1    2    0    0 -0.31884922967E+02  0.12035929019E+02 -0.26872127738E+02  0.47787272482E+02  0.20000006553E+02 0.  0.
        -12    1    1    2    0    0  0.31884922967E+02 -0.12035929019E+02  0.26872127738E+02  0.43400727518E+02  0.00000000000E+00 0.  1.
         11    1    3    3    0    0 -0.12194248847E+02  0.33490344020E+01 -0.14922214583E+02  0.19559862593E+02  0.51100000000E-03 0.  1.
        -11    1    3    3    0    0 -0.19572615819E+02  0.74950941112E+01 -0.55013931002E+01  0.21668619062E+02  0.51100000000E-03 0. -1.
         12    1    3    3    0    0 -0.11805830129E+00  0.11918005058E+01 -0.64485200548E+01  0.65587908264E+01  0.00000000000E+00 0. -1.
</event>
<event>
 7    1  0.1322363E-009  0.4778726E+02  0.7816164E-02  0.1312668E+00
        -11   -1    0    0    0    0  0.00000000000E+00  0.00000000000E+00  0.45593999997E+02  0.45594000000E+02  0.51100000000E-03 0.  1.
         11   -1    0    0    0    0 -0.00000000000E+00 -0.00000000000E+00 -0.45593999997E+02  0.45594000000E+02  0.51100000000E-03 0. -1.
    9900012    2    1    2    0    0 -0.21963018298E+02  0.12627834160E+02 -0.35239008690E+02  0.47787261507E+02  0.19999956515E+02 0.  0.
        -12    1    1    2    0    0  0.21963018298E+02 -0.12627834160E+02  0.35239008690E+02  0.43400738493E+02  0.00000000000E+00 0.  1.
         11    1    3    3    0    0 -0.98451051737E+01  0.62237713411E+01 -0.39841272457E+01  0.12309942963E+02  0.51100000000E-03 0. -1.
        -11    1    3    3    0    0 -0.11228103058E+02  0.86904776384E+01 -0.24874826587E+02  0.28641782379E+02  0.51100000000E-03 0.  1.
        -12    1    3    3    0    0 -0.88981006611E+00 -0.22864148199E+01 -0.63800548573E+01  0.68355361651E+01  0.00000000000E+00 0.  1.
</event>
<event>
 7    1  0.1322363E-009  0.4778727E+02  0.7816164E-02  0.1312668E+00
        -11   -1    0    0    0    0  0.00000000000E+00  0.00000000000E+00  0.45593999997E+02  0.45594000000E+02  0.51100000000E-03 0.  1.
         11   -1    0    0    0    0 -0.00000000000E+00 -0.00000000000E+00 -0.45593999997E+02  0.45594000000E+02  0.51100000000E-03 0. -1.
    9900012    2    1    2    0    0  0.84800216982E+00 -0.28959397985E+02 -0.32314967827E+02  0.47787274373E+02  0.20000015176E+02 0.  0.
        -12    1    1    2    0    0 -0.84800216982E+00  0.28959397985E+02  0.32314967827E+02  0.43400725627E+02  0.00000000000E+00 0.  1.
         11    1    3    3    0    0  0.64458987755E+01 -0.75917777006E+01 -0.25049507143E+01  0.10269346524E+02  0.51100000000E-03 0.  1.
        -11    1    3    3    0    0 -0.10079378476E+01 -0.24235611220E+01 -0.72117149088E+01  0.76745305657E+01  0.51100000000E-03 0. -1.
         12    1    3    3    0    0 -0.45899587581E+01 -0.18944059162E+02 -0.22598302204E+02  0.29843397284E+02  0.00000000000E+00 0. -1.
</event>
<event>
 7    1  0.1322363E-009  0.4778727E+02  0.7816164E-02  0.1312668E+00
        -11   -1    0    0    0    0  0.00000000000E+00  0.00000000000E+00  0.45593999997E+02  0.45594000000E+02  0.51100000000E-03 0. -1.
         11   -1    0    0    0    0 -0.00000000000E+00 -0.00000000000E+00 -0.45593999997E+02  0.45594000000E+02  0.51100000000E-03 0.  1.
    9900012    2    1    2    0    0 -0.41702163714E+02 -0.92892969460E+00 -0.11987069177E+02  0.47787271938E+02  0.20000004074E+02 0.  0.
        -12    1    1    2    0    0  0.41702163714E+02  0.92892969460E+00  0.11987069177E+02  0.43400728062E+02  0.00000000000E+00 0.  1.
         11    1    3    3    0    0 -0.79320630177E+01 -0.19684102253E+01  0.38320556072E+01  0.90264562797E+01  0.51100000000E-03 0. -1.
        -11    1    3    3    0    0 -0.27019311642E+01 -0.26102451307E+01 -0.11553808567E+00  0.37586115746E+01  0.51100000000E-03 0.  1.
         12    1    3    3    0    0 -0.31068169533E+02  0.36497256614E+01 -0.15703586699E+02  0.35002204084E+02  0.00000000000E+00 0. -1.
</event>
<event>
 7    1  0.1322363E-009  0.4778727E+02  0.7816164E-02  0.1312668E+00
        -11   -1    0    0    0    0  0.00000000000E+00  0.00000000000E+00  0.45593999997E+02  0.45594000000E+02  0.51100000000E-03 0.  1.
         11   -1    0    0    0    0 -0.00000000000E+00 -0.00000000000E+00 -0.45593999997E+02  0.45594000000E+02  0.51100000000E-03 0. -1.
    9900012    2    1    2    0    0  0.17230181247E+02  0.15316342778E+02 -0.36771643477E+02  0.47787271136E+02  0.20000000419E+02 0.  0.
        -12    1    1    2    0    0 -0.17230181247E+02 -0.15316342778E+02  0.36771643477E+02  0.43400728864E+02  0.00000000000E+00 0.  1.
         11    1    3    3    0    0  0.10676451868E+02  0.10815011575E+02 -0.20949653604E+02  0.25881249704E+02  0.51100000000E-03 0. -1.
        -11    1    3    3    0    0  0.54015927115E+01 -0.38881471708E+01 -0.63188344339E+01  0.91772850618E+01  0.51100000000E-03 0.  1.
         12    1    3    3    0    0  0.11521366669E+01  0.83894783737E+01 -0.95031554395E+01  0.12728736370E+02  0.00000000000E+00 0. -1.
</event>
<event>
 7    1  0.1322363E-009  0.4778727E+02  0.7816164E-02  0.1312668E+00
        -11   -1    0    0    0    0  0.00000000000E+00  0.00000000000E+00  0.45593999997E+02  0.45594000000E+02  0.51100000000E-03 0.  1.
         11   -1    0    0    0    0 -0.00000000000E+00 -0.00000000000E+00 -0.45593999997E+02  0.45594000000E+02  0.51100000000E-03 0. -1.
    9900012    2    1    2    0    0  0.34491262001E+02 -0.19094435750E+02 -0.18148784879E+02  0.47787273928E+02  0.20000013146E+02 0.  0.
        -12    1    1    2    0    0 -0.34491262001E+02  0.19094435750E+02  0.18148784879E+02  0.43400726072E+02  0.00000000000E+00 0.  1.
         11    1    3    3    0    0  0.83805785120E+01 -0.89360120041E+01 -0.95230357160E+01  0.15516913876E+02  0.51100000000E-03 0. -1.
        -11    1    3    3    0    0 -0.47916718449E+00 -0.36997980134E+01 -0.11679235582E+01  0.39092393416E+01  0.51100000000E-03 0.  1.
         12    1    3    3    0    0  0.26589850673E+02 -0.64586257321E+01 -0.74578256052E+01  0.28361120710E+02  0.00000000000E+00 0. -1.
</event>
<event>
 7    1  0.1322363E-009  0.4778727E+02  0.7816164E-02  0.1312668E+00
        -11   -1    0    0    0    0  0.00000000000E+00  0.00000000000E+00  0.45593999997E+02  0.45594000000E+02  0.51100000000E-03 0.  1.
         11   -1    0    0    0    0 -0.00000000000E+00 -0.00000000000E+00 -0.45593999997E+02  0.45594000000E+02  0.51100000000E-03 0. -1.
    9900012    2    1    2    0    0 -0.39593728755E+02 -0.16664965903E+02  0.61837570630E+01  0.47787270782E+02  0.19999998803E+02 0.  0.
        -12    1    1    2    0    0  0.39593728755E+02  0.16664965903E+02 -0.61837570630E+01  0.43400729218E+02  0.00000000000E+00 0.  1.
         11    1    3    3    0    0 -0.54645416919E+01 -0.72161897732E+01  0.15052082531E+01  0.91760701224E+01  0.51100000000E-03 0. -1.
        -11    1    3    3    0    0 -0.23545848617E+02 -0.35556178649E+01  0.94125052380E+01  0.25605559174E+02  0.51100000000E-03 0.  1.
        -12    1    3    3    0    0 -0.10583338446E+02 -0.58931582645E+01 -0.47339564280E+01  0.13005641486E+02  0.00000000000E+00 0.  1.
</event>
<event>
 7    1  0.1322363E-009  0.4778727E+02  0.7816164E-02  0.1312668E+00
        -11   -1    0    0    0    0  0.00000000000E+00  0.00000000000E+00  0.45593999997E+02  0.45594000000E+02  0.51100000000E-03 0.  1.
         11   -1    0    0    0    0 -0.00000000000E+00 -0.00000000000E+00 -0.45593999997E+02  0.45594000000E+02  0.51100000000E-03 0. -1.
    9900012    2    1    2    0    0  0.38526704177E+02 -0.91623823232E+01 -0.17758572788E+02  0.47787273139E+02  0.20000009549E+02 0.  0.
        -12    1    1    2    0    0 -0.38526704177E+02  0.91623823232E+01  0.17758572788E+02  0.43400726861E+02  0.00000000000E+00 0.  1.
         11    1    3    3    0    0  0.21007045160E+02  0.13764954292E+01 -0.88220466037E+01  0.22825844838E+02  0.51100000000E-03 0. -1.
        -11    1    3    3    0    0  0.73098950465E+01 -0.40583286393E+01  0.20659751768E+01  0.86123661457E+01  0.51100000000E-03 0.  1.
         12    1    3    3    0    0  0.10209763971E+02 -0.64805491131E+01 -0.11002501361E+02  0.16349062155E+02  0.00000000000E+00 0. -1.
</event>
<event>
 7    1  0.1322363E-009  0.4778727E+02  0.7816164E-02  0.1312668E+00
        -11   -1    0    0    0    0  0.00000000000E+00  0.00000000000E+00  0.45593999997E+02  0.45594000000E+02  0.51100000000E-03 0. -1.
         11   -1    0    0    0    0 -0.00000000000E+00 -0.00000000000E+00 -0.45593999997E+02  0.45594000000E+02  0.51100000000E-03 0.  1.
    9900012    2    1    2    0    0  0.36870601740E+02 -0.12877550547E+01  0.22858777112E+02  0.47787271011E+02  0.19999999848E+02 0.  0.
        -12    1    1    2    0    0 -0.36870601740E+02  0.12877550547E+01 -0.22858777112E+02  0.43400728989E+02  0.00000000000E+00 0.  1.
         11    1    3    3    0    0  0.16571881030E+02  0.35647435279E+01  0.54292345315E+01  0.17799191700E+02  0.51100000000E-03 0. -1.
        -11    1    3    3    0    0 -0.16597776384E+01  0.58640783648E+00  0.95274178409E+00  0.20016126318E+01  0.51100000000E-03 0.  1.
        -12    1    3    3    0    0  0.21958498348E+02 -0.54389064191E+01  0.16476800796E+02  0.27986466680E+02  0.00000000000E+00 0.  1.
</event>
<event>
 7    1  0.1322363E-009  0.4778727E+02  0.7816164E-02  0.1312668E+00
        -11   -1    0    0    0    0  0.00000000000E+00  0.00000000000E+00  0.45593999997E+02  0.45594000000E+02  0.51100000000E-03 0.  1.
         11   -1    0    0    0    0 -0.00000000000E+00 -0.00000000000E+00 -0.45593999997E+02  0.45594000000E+02  0.51100000000E-03 0. -1.
    9900012    2    1    2    0    0 -0.29032401738E+02  0.29330970063E+02 -0.13432688248E+02  0.47787271100E+02  0.20000000255E+02 0.  0.
        -12    1    1    2    0    0  0.29032401738E+02 -0.29330970063E+02  0.13432688248E+02  0.43400728900E+02  0.00000000000E+00 0.  1.
         11    1    3    3    0    0 -0.84028895357E+01  0.12851752432E+02 -0.15319866944E+01  0.15431237041E+02  0.51100000000E-03 0. -1.
        -11    1    3    3    0    0  0.68795160650E+00 -0.97893956948E+00 -0.32699419835E+01  0.34819708399E+01  0.51100000000E-03 0.  1.
        -12    1    3    3    0    0 -0.21317463808E+02  0.17458157200E+02 -0.86307595700E+01  0.28874063219E+02  0.00000000000E+00 0.  1.
</event>
<event>
 7    1  0.1322363E-009  0.4778727E+02  0.7816164E-02  0.1312668E+00
        -11   -1    0    0    0    0  0.00000000000E+00  0.00000000000E+00  0.45593999997E+02  0.45594000000E+02  0.51100000000E-03 0. -1.
         11   -1    0    0    0    0 -0.00000000000E+00 -0.00000000000E+00 -0.45593999997E+02  0.45594000000E+02  0.51100000000E-03 0.  1.
    9900012    2    1    2    0    0  0.37563368071E+02 -0.13324323905E+02  0.17177862048E+02  0.47787272207E+02  0.20000005302E+02 0.  0.
        -12    1    1    2    0    0 -0.37563368071E+02  0.13324323905E+02 -0.17177862048E+02  0.43400727793E+02  0.00000000000E+00 0.  1.
         11    1    3    3    0    0  0.21636449702E+01  0.22980282841E+01  0.19892944199E+00  0.31625728032E+01  0.51100000000E-03 0. -1.
        -11    1    3    3    0    0  0.76618726106E+01 -0.77710861755E+00  0.96056029488E+01  0.12311612322E+02  0.51100000000E-03 0.  1.
         12    1    3    3    0    0  0.27737850490E+02 -0.14845243571E+02  0.73733296576E+01  0.32313087082E+02  0.00000000000E+00 0. -1.
</event>
<event>
 7    1  0.1322363E-009  0.4778727E+02  0.7816164E-02  0.1312668E+00
        -11   -1    0    0    0    0  0.00000000000E+00  0.00000000000E+00  0.45593999997E+02  0.45594000000E+02  0.51100000000E-03 0.  1.
         11   -1    0    0    0    0 -0.00000000000E+00 -0.00000000000E+00 -0.45593999997E+02  0.45594000000E+02  0.51100000000E-03 0. -1.
    9900012    2    1    2    0    0  0.74449520143E+01  0.38210104789E+02 -0.19188109471E+02  0.47787274619E+02  0.20000016300E+02 0.  0.
        -12    1    1    2    0    0 -0.74449520143E+01 -0.38210104789E+02  0.19188109471E+02  0.43400725381E+02  0.00000000000E+00 0.  1.
         11    1    3    3    0    0  0.64114147216E+01  0.13234051452E+02 -0.43718242343E+00  0.14711814480E+02  0.51100000000E-03 0. -1.
        -11    1    3    3    0    0  0.53383837364E+01  0.14011972057E+02 -0.13510771677E+02  0.20183524306E+02  0.51100000000E-03 0.  1.
        -12    1    3    3    0    0 -0.43048464437E+01  0.10964081280E+02 -0.52401553707E+01  0.12891935833E+02  0.00000000000E+00 0.  1.
</event>
<event>
 7    1  0.1322363E-009  0.4778727E+02  0.7816164E-02  0.1312668E+00
        -11   -1    0    0    0    0  0.00000000000E+00  0.00000000000E+00  0.45593999997E+02  0.45594000000E+02  0.51100000000E-03 0.  1.
         11   -1    0    0    0    0 -0.00000000000E+00 -0.00000000000E+00 -0.45593999997E+02  0.45594000000E+02  0.51100000000E-03 0. -1.
    9900012    2    1    2    0    0  0.10918789726E+02 -0.40561173064E+02 -0.10917634585E+02  0.47787268735E+02  0.19999989472E+02 0.  0.
        -12    1    1    2    0    0 -0.10918789726E+02  0.40561173064E+02  0.10917634585E+02  0.43400731265E+02  0.00000000000E+00 0.  1.
         11    1    3    3    0    0  0.43939339679E+00  0.98688303566E+00 -0.87625996840E+00  0.13909839958E+01  0.51100000000E-03 0. -1.
        -11    1    3    3    0    0  0.49070276267E+01 -0.24781520465E+02  0.14757059158E+01  0.25305738181E+02  0.51100000000E-03 0.  1.
         12    1    3    3    0    0  0.55723687026E+01 -0.16766535634E+02 -0.11517080532E+02  0.21090546558E+02  0.00000000000E+00 0. -1.
</event>
<event>
 7    1  0.1322363E-009  0.4778727E+02  0.7816164E-02  0.1312668E+00
        -11   -1    0    0    0    0  0.00000000000E+00  0.00000000000E+00  0.45593999997E+02  0.45594000000E+02  0.51100000000E-03 0.  1.
         11   -1    0    0    0    0 -0.00000000000E+00 -0.00000000000E+00 -0.45593999997E+02  0.45594000000E+02  0.51100000000E-03 0. -1.
    9900012    2    1    2    0    0  0.18439378185E+02 -0.39035952679E+02 -0.44505104976E+01  0.47787270593E+02  0.19999997941E+02 0.  0.
        -12    1    1    2    0    0 -0.18439378185E+02  0.39035952679E+02  0.44505104976E+01  0.43400729407E+02  0.00000000000E+00 0.  1.
         11    1    3    3    0    0  0.39106214032E+01 -0.20337814794E+02 -0.59996250780E+01  0.21561891654E+02  0.51100000000E-03 0. -1.
        -11    1    3    3    0    0  0.13506974196E+02 -0.20128152600E+02  0.22258405120E+01  0.24342046858E+02  0.51100000000E-03 0.  1.
        -12    1    3    3    0    0  0.10217825857E+01  0.14300147154E+01 -0.67672593155E+00  0.18833320804E+01  0.00000000000E+00 0.  1.
</event>
<event>
 7    1  0.1322363E-009  0.4778727E+02  0.7816164E-02  0.1312668E+00
        -11   -1    0    0    0    0  0.00000000000E+00  0.00000000000E+00  0.45593999997E+02  0.45594000000E+02  0.51100000000E-03 0. -1.
         11   -1    0    0    0    0 -0.00000000000E+00 -0.00000000000E+00 -0.45593999997E+02  0.45594000000E+02  0.51100000000E-03 0.  1.
    9900012    2    1    2    0    0 -0.25854562470E+02 -0.34729893068E+02 -0.29998799693E+01  0.47787272438E+02  0.20000006356E+02 0.  0.
        -12    1    1    2    0    0  0.25854562470E+02  0.34729893068E+02  0.29998799693E+01  0.43400727562E+02  0.00000000000E+00 0.  1.
         11    1    3    3    0    0 -0.42635260735E+01 -0.10206749149E+02  0.31059998692E+01  0.11489239236E+02  0.51100000000E-03 0.  1.
        -11    1    3    3    0    0 -0.15309191944E+02 -0.21932635855E+02 -0.98939578652E+01  0.28518455008E+02  0.51100000000E-03 0. -1.
         12    1    3    3    0    0 -0.62818444517E+01 -0.25905080640E+01  0.37880780267E+01  0.77795781943E+01  0.00000000000E+00 0. -1.
</event>
<event>
 7    1  0.1322363E-009  0.4778726E+02  0.7816164E-02  0.1312668E+00
        -11   -1    0    0    0    0  0.00000000000E+00  0.00000000000E+00  0.45593999997E+02  0.45594000000E+02  0.51100000000E-03 0.  1.
         11   -1    0    0    0    0 -0.00000000000E+00 -0.00000000000E+00 -0.45593999997E+02  0.45594000000E+02  0.51100000000E-03 0. -1.
    9900012    2    1    2    0    0  0.18221645515E+02 -0.30188923863E+00 -0.39389141269E+02  0.47787263228E+02  0.19999964362E+02 0.  0.
        -12    1    1    2    0    0 -0.18221645515E+02  0.30188923863E+00  0.39389141269E+02  0.43400736772E+02  0.00000000000E+00 0.  1.
         11    1    3    3    0    0  0.11901486897E+02 -0.35393063802E+01 -0.31513238302E+02  0.33871171644E+02  0.51100000000E-03 0. -1.
        -11    1    3    3    0    0  0.32156642065E+01  0.50479619184E+01 -0.83685677820E+01  0.10288602568E+02  0.51100000000E-03 0.  1.
        -12    1    3    3    0    0  0.31044944122E+01 -0.18105447768E+01  0.49266481430E+00  0.36274890163E+01  0.00000000000E+00 0.  1.
</event>
<event>
 7    1  0.1322363E-009  0.4778727E+02  0.7816164E-02  0.1312668E+00
        -11   -1    0    0    0    0  0.00000000000E+00  0.00000000000E+00  0.45593999997E+02  0.45594000000E+02  0.51100000000E-03 0. -1.
         11   -1    0    0    0    0 -0.00000000000E+00 -0.00000000000E+00 -0.45593999997E+02  0.45594000000E+02  0.51100000000E-03 0.  1.
    9900012    2    1    2    0    0 -0.30039819499E+02  0.29130873989E+02  0.11516271090E+02  0.47787273339E+02  0.20000010463E+02 0.  0.
        -12    1    1    2    0    0  0.30039819499E+02 -0.29130873989E+02 -0.11516271090E+02  0.43400726661E+02  0.00000000000E+00 0.  1.
         11    1    3    3    0    0 -0.13530909547E+02  0.15954701312E+02  0.70645629768E+01  0.22080445137E+02  0.51100000000E-03 0. -1.
        -11    1    3    3    0    0  0.36113141217E+00  0.49842782521E+01 -0.26462439456E+01  0.56547372063E+01  0.51100000000E-03 0.  1.
         12    1    3    3    0    0 -0.16870041364E+02  0.81918944249E+01  0.70979520591E+01  0.20052090996E+02  0.00000000000E+00 0. -1.
</event>
<event>
 7    1  0.1322363E-009  0.4778728E+02  0.7816164E-02  0.1312668E+00
        -11   -1    0    0    0    0  0.00000000000E+00  0.00000000000E+00  0.45593999997E+02  0.45594000000E+02  0.51100000000E-03 0.  1.
         11   -1    0    0    0    0 -0.00000000000E+00 -0.00000000000E+00 -0.45593999997E+02  0.45594000000E+02  0.51100000000E-03 0. -1.
    9900012    2    1    2    0    0  0.22531403619E+02  0.91381757674E+01 -0.35950689238E+02  0.47787280397E+02  0.20000042642E+02 0.  0.
        -12    1    1    2    0    0 -0.22531403619E+02 -0.91381757674E+01  0.35950689238E+02  0.43400719603E+02  0.00000000000E+00 0.  1.
         11    1    3    3    0    0  0.22541623475E+02  0.69195035369E+01 -0.31530809401E+02  0.39372531793E+02  0.51100000000E-03 0. -1.
        -11    1    3    3    0    0  0.22111610763E+01  0.58579156737E+00  0.87180483659E+00  0.24479438311E+01  0.51100000000E-03 0.  1.
        -12    1    3    3    0    0 -0.22213809326E+01  0.16328806631E+01 -0.52916846736E+01  0.59668047724E+01  0.00000000000E+00 0.  1.
</event>
<event>
 7    1  0.1322363E-009  0.4778727E+02  0.7816164E-02  0.1312668E+00
        -11   -1    0    0    0    0  0.00000000000E+00  0.00000000000E+00  0.45593999997E+02  0.45594000000E+02  0.51100000000E-03 0.  1.
         11   -1    0    0    0    0 -0.00000000000E+00 -0.00000000000E+00 -0.45593999997E+02  0.45594000000E+02  0.51100000000E-03 0. -1.
    9900012    2    1    2    0    0 -0.36129037742E+02  0.10008725614E+01 -0.24027365869E+02  0.47787269307E+02  0.19999992080E+02 0.  0.
        -12    1    1    2    0    0  0.36129037742E+02 -0.10008725614E+01  0.24027365869E+02  0.43400730693E+02  0.00000000000E+00 0.  1.
         11    1    3    3    0    0 -0.21856947799E+02 -0.21867357992E+01 -0.14305188557E+02  0.26213477458E+02  0.51100000000E-03 0. -1.
        -11    1    3    3    0    0 -0.13567188570E+02  0.64666246009E+01 -0.51169294633E+01  0.15876674929E+02  0.51100000000E-03 0.  1.
         12    1    3    3    0    0 -0.70490137323E+00 -0.32790162403E+01 -0.46052478490E+01  0.56971169200E+01  0.00000000000E+00 0. -1.
</event>
<event>
 7    1  0.1322363E-009  0.4778726E+02  0.7816164E-02  0.1312668E+00
        -11   -1    0    0    0    0  0.00000000000E+00  0.00000000000E+00  0.45593999997E+02  0.45594000000E+02  0.51100000000E-03 0.  1.
         11   -1    0    0    0    0 -0.00000000000E+00 -0.00000000000E+00 -0.45593999997E+02  0.45594000000E+02  0.51100000000E-03 0. -1.
    9900012    2    1    2    0    0  0.34684122746E+02 -0.20437723092E+02 -0.16215293533E+02  0.47787255304E+02  0.19999928232E+02 0.  0.
        -12    1    1    2    0    0 -0.34684122746E+02  0.20437723092E+02  0.16215293533E+02  0.43400744696E+02  0.00000000000E+00 0.  1.
         11    1    3    3    0    0  0.17193182002E+02 -0.91253175608E+01 -0.66420430343E+01  0.20566809764E+02  0.51100000000E-03 0. -1.
        -11    1    3    3    0    0  0.15604314442E+02 -0.14710531022E+02 -0.69983326237E+01  0.22558169516E+02  0.51100000000E-03 0.  1.
        -12    1    3    3    0    0  0.18866263028E+01  0.33981254913E+01 -0.25749178748E+01  0.46622760239E+01  0.00000000000E+00 0.  1.
</event>
<event>
 7    1  0.1322363E-009  0.4778727E+02  0.7816164E-02  0.1312668E+00
        -11   -1    0    0    0    0  0.00000000000E+00  0.00000000000E+00  0.45593999997E+02  0.45594000000E+02  0.51100000000E-03 0. -1.
         11   -1    0    0    0    0 -0.00000000000E+00 -0.00000000000E+00 -0.45593999997E+02  0.45594000000E+02  0.51100000000E-03 0.  1.
    9900012    2    1    2    0    0 -0.33771110166E+02 -0.25348906253E+02 -0.10028370935E+02  0.47787272430E+02  0.20000006316E+02 0.  0.
        -12    1    1    2    0    0  0.33771110166E+02  0.25348906253E+02  0.10028370935E+02  0.43400727570E+02  0.00000000000E+00 0.  1.
         11    1    3    3    0    0 -0.25447328880E+02 -0.11969301867E+02  0.13176826150E+01  0.28152566882E+02  0.51100000000E-03 0. -1.
        -11    1    3    3    0    0 -0.22818329566E+01 -0.24832316811E+01 -0.37454786737E+01  0.50400210297E+01  0.51100000000E-03 0.  1.
         12    1    3    3    0    0 -0.60419483288E+01 -0.10896372704E+02 -0.76005748762E+01  0.14594684518E+02  0.00000000000E+00 0. -1.
</event>
<event>
 7    1  0.1322363E-009  0.4778727E+02  0.7816164E-02  0.1312668E+00
        -11   -1    0    0    0    0  0.00000000000E+00  0.00000000000E+00  0.45593999997E+02  0.45594000000E+02  0.51100000000E-03 0. -1.
         11   -1    0    0    0    0 -0.00000000000E+00 -0.00000000000E+00 -0.45593999997E+02  0.45594000000E+02  0.51100000000E-03 0.  1.
    9900012    2    1    2    0    0  0.18463985390E+02 -0.39165366022E+02 -0.29628838628E+01  0.47787270364E+02  0.19999996899E+02 0.  0.
        -12    1    1    2    0    0 -0.18463985390E+02  0.39165366022E+02  0.29628838628E+01  0.43400729636E+02  0.00000000000E+00 0.  1.
         11    1    3    3    0    0  0.11185484842E+02 -0.15447164803E+02 -0.48080528305E+01  0.19668435217E+02  0.51100000000E-03 0. -1.
        -11    1    3    3    0    0 -0.17153361488E+01  0.42539395308E+00 -0.12565107052E+01  0.21684458794E+01  0.51100000000E-03 0.  1.
        -12    1    3    3    0    0  0.89938366967E+01 -0.24143595172E+02  0.31016796729E+01  0.25950389268E+02  0.00000000000E+00 0.  1.
</event>
<event>
 7    1  0.1322363E-009  0.4778727E+02  0.7816164E-02  0.1312668E+00
        -11   -1    0    0    0    0  0.00000000000E+00  0.00000000000E+00  0.45593999997E+02  0.45594000000E+02  0.51100000000E-03 0.  1.
         11   -1    0    0    0    0 -0.00000000000E+00 -0.00000000000E+00 -0.45593999997E+02  0.45594000000E+02  0.51100000000E-03 0. -1.
    9900012    2    1    2    0    0  0.77398052633E+01 -0.12686245747E+02 -0.40777173039E+02  0.47787271230E+02  0.20000000847E+02 0.  0.
        -12    1    1    2    0    0 -0.77398052633E+01  0.12686245747E+02  0.40777173039E+02  0.43400728770E+02  0.00000000000E+00 0.  1.
         11    1    3    3    0    0  0.63475998000E+01  0.13036278712E+01 -0.20488190003E+02  0.21488541103E+02  0.51100000000E-03 0. -1.
        -11    1    3    3    0    0 -0.21641200409E+01 -0.18726411012E+01 -0.62557766298E+00  0.29294279167E+01  0.51100000000E-03 0.  1.
        -12    1    3    3    0    0  0.35563255042E+01 -0.12117232517E+02 -0.19663405373E+02  0.23369302211E+02  0.00000000000E+00 0.  1.
</event>
<event>
 7    1  0.1322363E-009  0.4778727E+02  0.7816164E-02  0.1312668E+00
        -11   -1    0    0    0    0  0.00000000000E+00  0.00000000000E+00  0.45593999997E+02  0.45594000000E+02  0.51100000000E-03 0.  1.
         11   -1    0    0    0    0 -0.00000000000E+00 -0.00000000000E+00 -0.45593999997E+02  0.45594000000E+02  0.51100000000E-03 0. -1.
    9900012    2    1    2    0    0 -0.13349793518E+02  0.12490651894E+02 -0.39362291309E+02  0.47787270181E+02  0.19999996064E+02 0.  0.
        -12    1    1    2    0    0  0.13349793518E+02 -0.12490651894E+02  0.39362291309E+02  0.43400729819E+02  0.00000000000E+00 0.  1.
         11    1    3    3    0    0 -0.34457022553E+01  0.93994982896E+01 -0.23634785505E+02  0.25667616139E+02  0.51100000000E-03 0. -1.
        -11    1    3    3    0    0 -0.76218237280E+01  0.15957752359E+01 -0.17299035353E+02  0.18970907199E+02  0.51100000000E-03 0.  1.
        -12    1    3    3    0    0 -0.22822675349E+01  0.14953783682E+01  0.15715295484E+01  0.31487468438E+01  0.00000000000E+00 0.  1.
</event>
<event>
 7    1  0.1322363E-009  0.4778727E+02  0.7816164E-02  0.1312668E+00
        -11   -1    0    0    0    0  0.00000000000E+00  0.00000000000E+00  0.45593999997E+02  0.45594000000E+02  0.51100000000E-03 0.  1.
         11   -1    0    0    0    0 -0.00000000000E+00 -0.00000000000E+00 -0.45593999997E+02  0.45594000000E+02  0.51100000000E-03 0. -1.
    9900012    2    1    2    0    0  0.11535118375E+02 -0.31971480864E-01 -0.41839732129E+02  0.47787272325E+02  0.20000005839E+02 0.  0.
        -12    1    1    2    0    0 -0.11535118375E+02  0.31971480864E-01  0.41839732129E+02  0.43400727675E+02  0.00000000000E+00 0.  1.
         11    1    3    3    0    0  0.74956747871E+01  0.55166448483E+01 -0.22716978544E+02  0.24549534116E+02  0.51100000000E-03 0. -1.
        -11    1    3    3    0    0  0.29640180900E+01  0.30862286452E+01 -0.44126517012E+01  0.61466825024E+01  0.51100000000E-03 0.  1.
        -12    1    3    3    0    0  0.10754254978E+01 -0.86348449743E+01 -0.14710101883E+02  0.17091055706E+02  0.00000000000E+00 0.  1.
</event>
<event>
 7    1  0.1322363E-009  0.4778729E+02  0.7816164E-02  0.1312668E+00
        -11   -1    0    0    0    0  0.00000000000E+00  0.00000000000E+00  0.45593999997E+02  0.45594000000E+02  0.51100000000E-03 0.  1.
         11   -1    0    0    0    0 -0.00000000000E+00 -0.00000000000E+00 -0.45593999997E+02  0.45594000000E+02  0.51100000000E-03 0. -1.
    9900012    2    1    2    0    0  0.41317779447E+02 -0.10992043506E+02  0.74590967459E+01  0.47787285224E+02  0.20000064649E+02 0.  0.
        -12    1    1    2    0    0 -0.41317779447E+02  0.10992043506E+02 -0.74590967459E+01  0.43400714776E+02  0.00000000000E+00 0.  1.
         11    1    3    3    0    0  0.66772664008E+01  0.15909324901E+01  0.30255866333E+00  0.68708438187E+01  0.51100000000E-03 0. -1.
        -11    1    3    3    0    0 -0.13865367226E+01  0.63796223905E+00  0.14737467565E+01  0.21216525788E+01  0.51100000000E-03 0.  1.
         12    1    3    3    0    0  0.36027049768E+02 -0.13220938235E+02  0.56827913261E+01  0.38794788826E+02  0.00000000000E+00 0. -1.
</event>
<event>
 7    1  0.1322363E-009  0.4778723E+02  0.7816164E-02  0.1312668E+00
        -11   -1    0    0    0    0  0.00000000000E+00  0.00000000000E+00  0.45593999997E+02  0.45594000000E+02  0.51100000000E-03 0.  1.
         11   -1    0    0    0    0 -0.00000000000E+00 -0.00000000000E+00 -0.45593999997E+02  0.45594000000E+02  0.51100000000E-03 0. -1.
    9900012    2    1    2    0    0  0.35319689567E+02 -0.19661935897E+02 -0.15797298499E+02  0.47787230028E+02  0.19999812987E+02 0.  0.
        -12    1    1    2    0    0 -0.35319689567E+02  0.19661935897E+02  0.15797298499E+02  0.43400769972E+02  0.00000000000E+00 0.  1.
         11    1    3    3    0    0  0.34682205096E+02 -0.20932900317E+02 -0.16838912879E+02  0.43870156749E+02  0.51100000000E-03 0. -1.
        -11    1    3    3    0    0  0.13599342928E+01 -0.31837808113E+00  0.15619496228E+01  0.20953455010E+01  0.51100000000E-03 0.  1.
         12    1    3    3    0    0 -0.72244982157E+00  0.15893425010E+01 -0.52033524299E+00  0.18217277775E+01  0.00000000000E+00 0. -1.
</event>
<event>
 7    1  0.1322363E-009  0.4778727E+02  0.7816164E-02  0.1312668E+00
        -11   -1    0    0    0    0  0.00000000000E+00  0.00000000000E+00  0.45593999997E+02  0.45594000000E+02  0.51100000000E-03 0. -1.
         11   -1    0    0    0    0 -0.00000000000E+00 -0.00000000000E+00 -0.45593999997E+02  0.45594000000E+02  0.51100000000E-03 0.  1.
    9900012    2    1    2    0    0  0.16536046321E+02  0.18113678939E+02  0.35806104394E+02  0.47787270692E+02  0.19999998392E+02 0.  0.
        -12    1    1    2    0    0 -0.16536046321E+02 -0.18113678939E+02 -0.35806104394E+02  0.43400729308E+02  0.00000000000E+00 0.  1.
         11    1    3    3    0    0  0.65517676933E+01  0.84653395961E+00  0.19774530576E+02  0.20848845038E+02  0.51100000000E-03 0. -1.
        -11    1    3    3    0    0  0.10401155835E+02  0.10497802244E+02  0.98329167433E+01  0.17750328070E+02  0.51100000000E-03 0.  1.
        -12    1    3    3    0    0 -0.41687720780E+00  0.67693427352E+01  0.61986570743E+01  0.91880975832E+01  0.00000000000E+00 0.  1.
</event>
<event>
 7    1  0.1322363E-009  0.4778728E+02  0.7816164E-02  0.1312668E+00
        -11   -1    0    0    0    0  0.00000000000E+00  0.00000000000E+00  0.45593999997E+02  0.45594000000E+02  0.51100000000E-03 0.  1.
         11   -1    0    0    0    0 -0.00000000000E+00 -0.00000000000E+00 -0.45593999997E+02  0.45594000000E+02  0.51100000000E-03 0. -1.
    9900012    2    1    2    0    0  0.29483488237E+02  0.25438951323E+02 -0.19162620597E+02  0.47787281674E+02  0.20000048466E+02 0.  0.
        -12    1    1    2    0    0 -0.29483488237E+02 -0.25438951323E+02  0.19162620597E+02  0.43400718326E+02  0.00000000000E+00 0.  1.
         11    1    3    3    0    0  0.20910898328E+01 -0.31006727562E+01 -0.17678569816E+01  0.41366830672E+01  0.51100000000E-03 0. -1.
        -11    1    3    3    0    0  0.13654533078E+02  0.12307772557E+02 -0.11097145564E+02  0.21472637910E+02  0.51100000000E-03 0.  1.
        -12    1    3    3    0    0  0.13737865326E+02  0.16231851522E+02 -0.62976180517E+01  0.22177960697E+02  0.00000000000E+00 0.  1.
</event>
<event>
 7    1  0.1322363E-009  0.4778727E+02  0.7816164E-02  0.1312668E+00
        -11   -1    0    0    0    0  0.00000000000E+00  0.00000000000E+00  0.45593999997E+02  0.45594000000E+02  0.51100000000E-03 0.  1.
         11   -1    0    0    0    0 -0.00000000000E+00 -0.00000000000E+00 -0.45593999997E+02  0.45594000000E+02  0.51100000000E-03 0. -1.
    9900012    2    1    2    0    0  0.85618691849E+01  0.16576333548E+02 -0.39186006788E+02  0.47787267681E+02  0.19999984667E+02 0.  0.
        -12    1    1    2    0    0 -0.85618691849E+01 -0.16576333548E+02  0.39186006788E+02  0.43400732319E+02  0.00000000000E+00 0.  1.
         11    1    3    3    0    0  0.68662582832E+01 -0.19727082892E+00 -0.49183156466E+01  0.84483280980E+01  0.51100000000E-03 0. -1.
        -11    1    3    3    0    0  0.51145169101E+01  0.12783446707E+02 -0.27653379215E+02  0.30891490337E+02  0.51100000000E-03 0.  1.
        -12    1    3    3    0    0 -0.34189060084E+01  0.39901576697E+01 -0.66143119255E+01  0.84474492465E+01  0.00000000000E+00 0.  1.
</event>
<event>
 7    1  0.1322363E-009  0.4778727E+02  0.7816164E-02  0.1312668E+00
        -11   -1    0    0    0    0  0.00000000000E+00  0.00000000000E+00  0.45593999997E+02  0.45594000000E+02  0.51100000000E-03 0.  1.
         11   -1    0    0    0    0 -0.00000000000E+00 -0.00000000000E+00 -0.45593999997E+02  0.45594000000E+02  0.51100000000E-03 0. -1.
    9900012    2    1    2    0    0  0.51548124811E+01 -0.38577470774E+02 -0.19204938149E+02  0.47787274288E+02  0.20000014787E+02 0.  0.
        -12    1    1    2    0    0 -0.51548124811E+01  0.38577470774E+02  0.19204938149E+02  0.43400725712E+02  0.00000000000E+00 0.  1.
         11    1    3    3    0    0  0.28435754106E+01 -0.10357750249E+02 -0.82173758066E+01  0.13523837353E+02  0.51100000000E-03 0. -1.
        -11    1    3    3    0    0 -0.60682238836E+01 -0.54653546554E+01 -0.35048297663E+01  0.88869159196E+01  0.51100000000E-03 0.  1.
        -12    1    3    3    0    0  0.83794609541E+01 -0.22754365870E+02 -0.74827325758E+01  0.25376521015E+02  0.00000000000E+00 0.  1.
</event>
<event>
 7    1  0.1322363E-009  0.4778728E+02  0.7816164E-02  0.1312668E+00
        -11   -1    0    0    0    0  0.00000000000E+00  0.00000000000E+00  0.45593999997E+02  0.45594000000E+02  0.51100000000E-03 0.  1.
         11   -1    0    0    0    0 -0.00000000000E+00 -0.00000000000E+00 -0.45593999997E+02  0.45594000000E+02  0.51100000000E-03 0. -1.
    9900012    2    1    2    0    0 -0.70801312905E+01 -0.38772810430E+02 -0.18170410856E+02  0.47787275140E+02  0.20000018673E+02 0.  0.
        -12    1    1    2    0    0  0.70801312905E+01  0.38772810430E+02  0.18170410856E+02  0.43400724860E+02  0.00000000000E+00 0.  1.
         11    1    3    3    0    0 -0.51671745582E+01 -0.24215628117E+02 -0.13705176731E+02  0.28300675036E+02  0.51100000000E-03 0. -1.
        -11    1    3    3    0    0 -0.10680803787E+01 -0.25059991188E+00 -0.50257853529E+01  0.51441340073E+01  0.51100000000E-03 0.  1.
         12    1    3    3    0    0 -0.84487635353E+00 -0.14306582401E+02  0.56055122774E+00  0.14342466096E+02  0.00000000000E+00 0. -1.
</event>
<event>
 7    1  0.1322363E-009  0.4778727E+02  0.7816164E-02  0.1312668E+00
        -11   -1    0    0    0    0  0.00000000000E+00  0.00000000000E+00  0.45593999997E+02  0.45594000000E+02  0.51100000000E-03 0. -1.
         11   -1    0    0    0    0 -0.00000000000E+00 -0.00000000000E+00 -0.45593999997E+02  0.45594000000E+02  0.51100000000E-03 0.  1.
    9900012    2    1    2    0    0 -0.38228065752E+02  0.25953864640E+01  0.20383869110E+02  0.47787272334E+02  0.20000005880E+02 0.  0.
        -12    1    1    2    0    0  0.38228065752E+02 -0.25953864640E+01 -0.20383869110E+02  0.43400727666E+02  0.00000000000E+00 0.  1.
         11    1    3    3    0    0 -0.15971947169E+02  0.38338278265E+01 -0.69874926156E+00  0.16440486093E+02  0.51100000000E-03 0.  1.
        -11    1    3    3    0    0 -0.14635281620E+02  0.16748349055E+01  0.11045035909E+02  0.18411663655E+02  0.51100000000E-03 0. -1.
        -12    1    3    3    0    0 -0.76208369628E+01 -0.29132762679E+01  0.10037582462E+02  0.12935122586E+02  0.00000000000E+00 0.  1.
</event>
<event>
 7    1  0.1322363E-009  0.4778727E+02  0.7816164E-02  0.1312668E+00
        -11   -1    0    0    0    0  0.00000000000E+00  0.00000000000E+00  0.45593999997E+02  0.45594000000E+02  0.51100000000E-03 0.  1.
         11   -1    0    0    0    0 -0.00000000000E+00 -0.00000000000E+00 -0.45593999997E+02  0.45594000000E+02  0.51100000000E-03 0. -1.
    9900012    2    1    2    0    0  0.28700829207E+02 -0.24856618385E+02 -0.21024604328E+02  0.47787273487E+02  0.20000011138E+02 0.  0.
        -12    1    1    2    0    0 -0.28700829207E+02  0.24856618385E+02  0.21024604328E+02  0.43400726513E+02  0.00000000000E+00 0.  1.
         11    1    3    3    0    0  0.10821824188E+02 -0.85770939015E+01 -0.25309183497E+01  0.14038659712E+02  0.51100000000E-03 0.  1.
        -11    1    3    3    0    0  0.97028475406E+01 -0.12134233373E+02 -0.19029071008E+02  0.24566041879E+02  0.51100000000E-03 0. -1.
         12    1    3    3    0    0  0.81761574785E+01 -0.41452911107E+01  0.53538502928E+00  0.91825718965E+01  0.00000000000E+00 0. -1.
</event>
<event>
 7    1  0.1322363E-009  0.4778728E+02  0.7816164E-02  0.1312668E+00
        -11   -1    0    0    0    0  0.00000000000E+00  0.00000000000E+00  0.45593999997E+02  0.45594000000E+02  0.51100000000E-03 0. -1.
         11   -1    0    0    0    0 -0.00000000000E+00 -0.00000000000E+00 -0.45593999997E+02  0.45594000000E+02  0.51100000000E-03 0.  1.
    9900012    2    1    2    0    0  0.86715561896E+01 -0.11261262777E+02  0.41007450552E+02  0.47787275042E+02  0.20000018227E+02 0.  0.
        -12    1    1    2    0    0 -0.86715561896E+01  0.11261262777E+02 -0.41007450552E+02  0.43400724958E+02  0.00000000000E+00 0.  1.
         11    1    3    3    0    0 -0.25106661960E+01 -0.67814640705E+01  0.14180007978E+02  0.15917422097E+02  0.51100000000E-03 0. -1.
        -11    1    3    3    0    0  0.89216855854E+01 -0.34882126501E+01  0.27654422481E+02  0.29266554020E+02  0.51100000000E-03 0.  1.
         12    1    3    3    0    0  0.22605368002E+01 -0.99158605631E+00 -0.82697990632E+00  0.26032989259E+01  0.00000000000E+00 0. -1.
</event>
<event>
 7    1  0.1322363E-009  0.4778727E+02  0.7816164E-02  0.1312668E+00
        -11   -1    0    0    0    0  0.00000000000E+00  0.00000000000E+00  0.45593999997E+02  0.45594000000E+02  0.51100000000E-03 0. -1.
         11   -1    0    0    0    0 -0.00000000000E+00 -0.00000000000E+00 -0.45593999997E+02  0.45594000000E+02  0.51100000000E-03 0.  1.
    9900012    2    1    2    0    0  0.38020855112E+02  0.18625915118E+02  0.95453222928E+01  0.47787270569E+02  0.19999997833E+02 0.  0.
        -12    1    1    2    0    0 -0.38020855112E+02 -0.18625915118E+02 -0.95453222928E+01  0.43400729431E+02  0.00000000000E+00 0.  1.
         11    1    3    3    0    0  0.23603762642E+02  0.19546175873E+02  0.49385941841E+01  0.31041590084E+02  0.51100000000E-03 0. -1.
        -11    1    3    3    0    0  0.12764077978E+02  0.17501920152E+01  0.30464520676E+01  0.13238796365E+02  0.51100000000E-03 0.  1.
        -12    1    3    3    0    0  0.16530144919E+01 -0.26704527708E+01  0.15602760411E+01  0.35068841207E+01  0.00000000000E+00 0.  1.
</event>
<event>
 7    1  0.1322363E-009  0.4778727E+02  0.7816164E-02  0.1312668E+00
        -11   -1    0    0    0    0  0.00000000000E+00  0.00000000000E+00  0.45593999997E+02  0.45594000000E+02  0.51100000000E-03 0. -1.
         11   -1    0    0    0    0 -0.00000000000E+00 -0.00000000000E+00 -0.45593999997E+02  0.45594000000E+02  0.51100000000E-03 0.  1.
    9900012    2    1    2    0    0 -0.41685640488E+02  0.48926305939E+01  0.11045053685E+02  0.47787266505E+02  0.19999979303E+02 0.  0.
        -12    1    1    2    0    0  0.41685640488E+02 -0.48926305939E+01 -0.11045053685E+02  0.43400733495E+02  0.00000000000E+00 0.  1.
         11    1    3    3    0    0 -0.68313379580E+01  0.14855657348E+01  0.53472040555E+01  0.88015155127E+01  0.51100000000E-03 0. -1.
        -11    1    3    3    0    0 -0.24138144765E+02  0.53500331571E+00 -0.37251189962E+01  0.24429751801E+02  0.51100000000E-03 0.  1.
        -12    1    3    3    0    0 -0.10716157765E+02  0.28720615434E+01  0.94229686253E+01  0.14555999192E+02  0.00000000000E+00 0.  1.
</event>
<event>
 7    1  0.1322363E-009  0.4778727E+02  0.7816164E-02  0.1312668E+00
        -11   -1    0    0    0    0  0.00000000000E+00  0.00000000000E+00  0.45593999997E+02  0.45594000000E+02  0.51100000000E-03 0. -1.
         11   -1    0    0    0    0 -0.00000000000E+00 -0.00000000000E+00 -0.45593999997E+02  0.45594000000E+02  0.51100000000E-03 0.  1.
    9900012    2    1    2    0    0 -0.18664461835E+02 -0.26714644487E+02  0.28663374929E+02  0.47787269269E+02  0.19999991906E+02 0.  0.
        -12    1    1    2    0    0  0.18664461835E+02  0.26714644487E+02 -0.28663374929E+02  0.43400730731E+02  0.00000000000E+00 0.  1.
         11    1    3    3    0    0 -0.46804840325E+01 -0.11643794626E+02  0.24914659491E+01  0.12794228657E+02  0.51100000000E-03 0. -1.
        -11    1    3    3    0    0 -0.14050698917E+02 -0.99764791547E+01  0.15544085749E+02  0.23207129905E+02  0.51100000000E-03 0.  1.
        -12    1    3    3    0    0  0.66721114384E-01 -0.50943707058E+01  0.10627823231E+02  0.11785910708E+02  0.00000000000E+00 0.  1.
</event>
<event>
 7    1  0.1322363E-009  0.4778727E+02  0.7816164E-02  0.1312668E+00
        -11   -1    0    0    0    0  0.00000000000E+00  0.00000000000E+00  0.45593999997E+02  0.45594000000E+02  0.51100000000E-03 0.  1.
         11   -1    0    0    0    0 -0.00000000000E+00 -0.00000000000E+00 -0.45593999997E+02  0.45594000000E+02  0.51100000000E-03 0. -1.
    9900012    2    1    2    0    0 -0.60779470067E+01 -0.34135034650E+02  0.26105193079E+02  0.47787272632E+02  0.20000007240E+02 0.  0.
        -12    1    1    2    0    0  0.60779470067E+01  0.34135034650E+02 -0.26105193079E+02  0.43400727368E+02  0.00000000000E+00 0.  1.
         11    1    3    3    0    0 -0.67475250672E+00 -0.20510511886E+02  0.14116945389E+02  0.24908322628E+02  0.51100000000E-03 0. -1.
        -11    1    3    3    0    0 -0.87344844119E+01 -0.12425165743E+02  0.69045294047E+01  0.16683779196E+02  0.51100000000E-03 0.  1.
        -12    1    3    3    0    0  0.33312899119E+01 -0.11993570200E+01  0.50837182851E+01  0.61951708080E+01  0.00000000000E+00 0.  1.
</event>
<event>
 7    1  0.1519464E-009  0.4778727E+02  0.7816164E-02  0.1312668E+00
        -11   -1    0    0    0    0  0.00000000000E+00  0.00000000000E+00  0.45593999997E+02  0.45594000000E+02  0.51100000000E-03 0.  1.
         11   -1    0    0    0    0 -0.00000000000E+00 -0.00000000000E+00 -0.45593999997E+02  0.45594000000E+02  0.51100000000E-03 0. -1.
    9900012    2    1    2    0    0 -0.70503324420E+01  0.42796410989E+02  0.15438030381E+01  0.47787270641E+02  0.19999998161E+02 0.  0.
        -12    1    1    2    0    0  0.70503324420E+01 -0.42796410989E+02 -0.15438030381E+01  0.43400729359E+02  0.00000000000E+00 0.  1.
         11    1    3    3    0    0 -0.83748694961E+00  0.30724371576E+02  0.27620344343E+01  0.30859637516E+02  0.51100000000E-03 0. -1.
        -11    1    3    3    0    0 -0.50935840912E+01  0.71155591386E+01  0.40198480982E+01  0.96298992592E+01  0.51100000000E-03 0.  1.
        -12    1    3    3    0    0 -0.11192614012E+01  0.49564802744E+01 -0.52380794945E+01  0.72977338665E+01  0.00000000000E+00 0.  1.
</event>
<event>
 7    1  0.1322363E-009  0.4778727E+02  0.7816164E-02  0.1312668E+00
        -11   -1    0    0    0    0  0.00000000000E+00  0.00000000000E+00  0.45593999997E+02  0.45594000000E+02  0.51100000000E-03 0.  1.
         11   -1    0    0    0    0 -0.00000000000E+00 -0.00000000000E+00 -0.45593999997E+02  0.45594000000E+02  0.51100000000E-03 0. -1.
    9900012    2    1    2    0    0 -0.22964647781E+02  0.24406812335E+02 -0.27578180014E+02  0.47787267876E+02  0.19999985554E+02 0.  0.
        -12    1    1    2    0    0  0.22964647781E+02 -0.24406812335E+02  0.27578180014E+02  0.43400732124E+02  0.00000000000E+00 0.  1.
         11    1    3    3    0    0 -0.17306179543E+01  0.13378600165E+02 -0.11704318581E+02  0.17859816757E+02  0.51100000000E-03 0.  1.
        -11    1    3    3    0    0 -0.60760043414E+01  0.15511523969E+01 -0.85627028340E+01  0.10613377530E+02  0.51100000000E-03 0. -1.
        -12    1    3    3    0    0 -0.15158025485E+02  0.94770597725E+01 -0.73111585985E+01  0.19314073589E+02  0.00000000000E+00 0.  1.
</event>
<event>
 7    1  0.1322363E-009  0.4778727E+02  0.7816164E-02  0.1312668E+00
        -11   -1    0    0    0    0  0.00000000000E+00  0.00000000000E+00  0.45593999997E+02  0.45594000000E+02  0.51100000000E-03 0.  1.
         11   -1    0    0    0    0 -0.00000000000E+00 -0.00000000000E+00 -0.45593999997E+02  0.45594000000E+02  0.51100000000E-03 0. -1.
    9900012    2    1    2    0    0  0.10395290441E+02 -0.37387276163E+01 -0.41971217471E+02  0.47787271394E+02  0.20000001592E+02 0.  0.
        -12    1    1    2    0    0 -0.10395290441E+02  0.37387276163E+01  0.41971217471E+02  0.43400728606E+02  0.00000000000E+00 0.  1.
         11    1    3    3    0    0  0.82691973895E+00  0.61628144770E+00 -0.95425151040E+00  0.14050605979E+01  0.51100000000E-03 0.  1.
        -11    1    3    3    0    0  0.86446366748E+01  0.56103238022E+01 -0.28805935220E+02  0.30593910842E+02  0.51100000000E-03 0. -1.
         12    1    3    3    0    0  0.92373402695E+00 -0.99653328662E+01 -0.12211030741E+02  0.15788299954E+02  0.00000000000E+00 0. -1.
</event>
<event>
 7    1  0.1322363E-009  0.4778726E+02  0.7816164E-02  0.1312668E+00
        -11   -1    0    0    0    0  0.00000000000E+00  0.00000000000E+00  0.45593999997E+02  0.45594000000E+02  0.51100000000E-03 0. -1.
         11   -1    0    0    0    0 -0.00000000000E+00 -0.00000000000E+00 -0.45593999997E+02  0.45594000000E+02  0.51100000000E-03 0.  1.
    9900012    2    1    2    0    0  0.29135005432E+02  0.38130507992E+01  0.31941138042E+02  0.47787260405E+02  0.19999951491E+02 0.  0.
        -12    1    1    2    0    0 -0.29135005432E+02 -0.38130507992E+01 -0.31941138042E+02  0.43400739595E+02  0.00000000000E+00 0.  1.
         11    1    3    3    0    0  0.12061005480E+02  0.10161255996E+01  0.13783856999E+01  0.12181966665E+02  0.51100000000E-03 0. -1.
        -11    1    3    3    0    0  0.61836330708E+01  0.36473009728E+01  0.98502927785E+01  0.12188863377E+02  0.51100000000E-03 0.  1.
         12    1    3    3    0    0  0.10890366881E+02 -0.85037577314E+00  0.20712459564E+02  0.23416430363E+02  0.00000000000E+00 0. -1.
</event>
<event>
 7    1  0.1322363E-009  0.4778729E+02  0.7816164E-02  0.1312668E+00
        -11   -1    0    0    0    0  0.00000000000E+00  0.00000000000E+00  0.45593999997E+02  0.45594000000E+02  0.51100000000E-03 0.  1.
         11   -1    0    0    0    0 -0.00000000000E+00 -0.00000000000E+00 -0.45593999997E+02  0.45594000000E+02  0.51100000000E-03 0. -1.
    9900012    2    1    2    0    0  0.80949829963E+01  0.25490435923E+02 -0.34180854925E+02  0.47787286680E+02  0.20000071290E+02 0.  0.
        -12    1    1    2    0    0 -0.80949829963E+01 -0.25490435923E+02  0.34180854925E+02  0.43400713320E+02  0.00000000000E+00 0.  1.
         11    1    3    3    0    0  0.15065219767E+01 -0.10591062744E+01 -0.31006098895E+01  0.36062579656E+01  0.51100000000E-03 0.  1.
        -11    1    3    3    0    0 -0.44806266669E+01  0.55572970587E+01 -0.40357164617E+01  0.82004008163E+01  0.51100000000E-03 0. -1.
         12    1    3    3    0    0  0.11069087686E+02  0.20992245139E+02 -0.27044528574E+02  0.35980627898E+02  0.00000000000E+00 0. -1.
</event>
<event>
 7    1  0.1322363E-009  0.4778727E+02  0.7816164E-02  0.1312668E+00
        -11   -1    0    0    0    0  0.00000000000E+00  0.00000000000E+00  0.45593999997E+02  0.45594000000E+02  0.51100000000E-03 0. -1.
         11   -1    0    0    0    0 -0.00000000000E+00 -0.00000000000E+00 -0.45593999997E+02  0.45594000000E+02  0.51100000000E-03 0.  1.
    9900012    2    1    2    0    0 -0.13483099421E+02 -0.12726775799E+02  0.39241030845E+02  0.47787270812E+02  0.19999998941E+02 0.  0.
        -12    1    1    2    0    0  0.13483099421E+02  0.12726775799E+02 -0.39241030845E+02  0.43400729188E+02  0.00000000000E+00 0.  1.
         11    1    3    3    0    0 -0.45742220467E+01 -0.12515276317E+01  0.21328370877E+01  0.51998868304E+01  0.51100000000E-03 0. -1.
        -11    1    3    3    0    0 -0.10412009077E+02 -0.13552257657E+02  0.35884788062E+02  0.39746592749E+02  0.51100000000E-03 0.  1.
        -12    1    3    3    0    0  0.15031317030E+01  0.20770094892E+01  0.12234056955E+01  0.28407912332E+01  0.00000000000E+00 0.  1.
</event>
<event>
 7    1  0.2044003E-009  0.4778727E+02  0.7816164E-02  0.1312668E+00
        -11   -1    0    0    0    0  0.00000000000E+00  0.00000000000E+00  0.45593999997E+02  0.45594000000E+02  0.51100000000E-03 0.  1.
         11   -1    0    0    0    0 -0.00000000000E+00 -0.00000000000E+00 -0.45593999997E+02  0.45594000000E+02  0.51100000000E-03 0. -1.
    9900012    2    1    2    0    0  0.30359990051E+02 -0.85091072927E+01 -0.29824309982E+02  0.47787269951E+02  0.19999995017E+02 0.  0.
        -12    1    1    2    0    0 -0.30359990051E+02  0.85091072927E+01  0.29824309982E+02  0.43400730049E+02  0.00000000000E+00 0.  1.
         11    1    3    3    0    0  0.12702239245E+02  0.50429630547E+00 -0.44488005271E+01  0.13468222711E+02  0.51100000000E-03 0. -1.
        -11    1    3    3    0    0 -0.15374176712E+01 -0.22020612159E+01 -0.22569967164E+01  0.35080993619E+01  0.51100000000E-03 0.  1.
         12    1    3    3    0    0  0.19195168478E+02 -0.68113423823E+01 -0.23118512739E+02  0.30810947879E+02  0.00000000000E+00 0. -1.
</event>
<event>
 7    1  0.1322363E-009  0.4778727E+02  0.7816164E-02  0.1312668E+00
        -11   -1    0    0    0    0  0.00000000000E+00  0.00000000000E+00  0.45593999997E+02  0.45594000000E+02  0.51100000000E-03 0.  1.
         11   -1    0    0    0    0 -0.00000000000E+00 -0.00000000000E+00 -0.45593999997E+02  0.45594000000E+02  0.51100000000E-03 0. -1.
    9900012    2    1    2    0    0 -0.10522910621E+02 -0.40164762473E+02 -0.12636600409E+02  0.47787268873E+02  0.19999990098E+02 0.  0.
        -12    1    1    2    0    0  0.10522910621E+02  0.40164762473E+02  0.12636600409E+02  0.43400731127E+02  0.00000000000E+00 0.  1.
         11    1    3    3    0    0 -0.73577686119E+01 -0.20822976739E+02 -0.46034469250E+01  0.22559362647E+02  0.51100000000E-03 0. -1.
        -11    1    3    3    0    0  0.33275226660E+01 -0.89246491177E+01 -0.87477147785E+01  0.12932296125E+02  0.51100000000E-03 0.  1.
        -12    1    3    3    0    0 -0.64926646755E+01 -0.10417136617E+02  0.71456129484E+00  0.12295610100E+02  0.00000000000E+00 0.  1.
</event>
<event>
 7    1  0.1322363E-009  0.4778726E+02  0.7816164E-02  0.1312668E+00
        -11   -1    0    0    0    0  0.00000000000E+00  0.00000000000E+00  0.45593999997E+02  0.45594000000E+02  0.51100000000E-03 0. -1.
         11   -1    0    0    0    0 -0.00000000000E+00 -0.00000000000E+00 -0.45593999997E+02  0.45594000000E+02  0.51100000000E-03 0.  1.
    9900012    2    1    2    0    0 -0.42147487134E+02 -0.89796771278E+01 -0.51554474928E+01  0.47787263694E+02  0.19999966487E+02 0.  0.
        -12    1    1    2    0    0  0.42147487134E+02  0.89796771278E+01  0.51554474928E+01  0.43400736306E+02  0.00000000000E+00 0.  1.
         11    1    3    3    0    0 -0.28412168910E+01 -0.93154757534E+00 -0.11115701097E+01  0.31899659366E+01  0.51100000000E-03 0. -1.
        -11    1    3    3    0    0 -0.20103310408E+02 -0.13617721358E+02 -0.46919834204E+00  0.24285913030E+02  0.51100000000E-03 0.  1.
         12    1    3    3    0    0 -0.19202959835E+02  0.55695918059E+01 -0.35746790410E+01  0.20311384727E+02  0.00000000000E+00 0. -1.
</event>
<event>
 7    1  0.1322363E-009  0.4778727E+02  0.7816164E-02  0.1312668E+00
        -11   -1    0    0    0    0  0.00000000000E+00  0.00000000000E+00  0.45593999997E+02  0.45594000000E+02  0.51100000000E-03 0. -1.
         11   -1    0    0    0    0 -0.00000000000E+00 -0.00000000000E+00 -0.45593999997E+02  0.45594000000E+02  0.51100000000E-03 0.  1.
    9900012    2    1    2    0    0 -0.74304649833E+01 -0.58002818049E+01  0.42364701844E+02  0.47787273725E+02  0.20000012221E+02 0.  0.
        -12    1    1    2    0    0  0.74304649833E+01  0.58002818049E+01 -0.42364701844E+02  0.43400726275E+02  0.00000000000E+00 0.  1.
         11    1    3    3    0    0 -0.76071467725E+01 -0.18426627011E+01  0.15475445126E+02  0.17342245816E+02  0.51100000000E-03 0. -1.
        -11    1    3    3    0    0 -0.28818268048E+01  0.25658585096E+01  0.16482535854E+01  0.41958665097E+01  0.51100000000E-03 0.  1.
         12    1    3    3    0    0  0.30585085939E+01 -0.65234776135E+01  0.25241003133E+02  0.26249161399E+02  0.00000000000E+00 0. -1.
</event>
<event>
 7    1  0.1322363E-009  0.4778727E+02  0.7816164E-02  0.1312668E+00
        -11   -1    0    0    0    0  0.00000000000E+00  0.00000000000E+00  0.45593999997E+02  0.45594000000E+02  0.51100000000E-03 0.  1.
         11   -1    0    0    0    0 -0.00000000000E+00 -0.00000000000E+00 -0.45593999997E+02  0.45594000000E+02  0.51100000000E-03 0. -1.
    9900012    2    1    2    0    0  0.32179316815E+02  0.12076409479E+02 -0.26500475452E+02  0.47787270792E+02  0.19999998850E+02 0.  0.
        -12    1    1    2    0    0 -0.32179316815E+02 -0.12076409479E+02  0.26500475452E+02  0.43400729208E+02  0.00000000000E+00 0.  1.
         11    1    3    3    0    0  0.17461685994E+02  0.10720543908E+02 -0.24722827959E+02  0.32110103737E+02  0.51100000000E-03 0. -1.
        -11    1    3    3    0    0  0.67659574205E+01 -0.16327283183E+01 -0.17728767335E+01  0.71824142007E+01  0.51100000000E-03 0.  1.
         12    1    3    3    0    0  0.79516734007E+01  0.29885938895E+01 -0.47707597795E-02  0.84947528550E+01  0.00000000000E+00 0. -1.
</event>
<event>
 7    1  0.1322363E-009  0.4778727E+02  0.7816164E-02  0.1312668E+00
        -11   -1    0    0    0    0  0.00000000000E+00  0.00000000000E+00  0.45593999997E+02  0.45594000000E+02  0.51100000000E-03 0.  1.
         11   -1    0    0    0    0 -0.00000000000E+00 -0.00000000000E+00 -0.45593999997E+02  0.45594000000E+02  0.51100000000E-03 0. -1.
    9900012    2    1    2    0    0  0.91841075891E+01 -0.44349493337E+01 -0.42185384650E+02  0.47787270906E+02  0.19999999370E+02 0.  0.
        -12    1    1    2    0    0 -0.91841075891E+01  0.44349493337E+01  0.42185384650E+02  0.43400729094E+02  0.00000000000E+00 0.  1.
         11    1    3    3    0    0  0.42246825679E+00 -0.10296259235E+02 -0.21548706571E+02  0.23885941238E+02  0.51100000000E-03 0.  1.
        -11    1    3    3    0    0  0.73642828635E+01  0.15548775966E+01 -0.13186780435E+02  0.15183592623E+02  0.51100000000E-03 0. -1.
        -12    1    3    3    0    0  0.13973564688E+01  0.43064323047E+01 -0.74498976438E+01  0.87177370458E+01  0.00000000000E+00 0.  1.
</event>
<event>
 7    1  0.1322363E-009  0.4778727E+02  0.7816164E-02  0.1312668E+00
        -11   -1    0    0    0    0  0.00000000000E+00  0.00000000000E+00  0.45593999997E+02  0.45594000000E+02  0.51100000000E-03 0.  1.
         11   -1    0    0    0    0 -0.00000000000E+00 -0.00000000000E+00 -0.45593999997E+02  0.45594000000E+02  0.51100000000E-03 0. -1.
    9900012    2    1    2    0    0  0.69669363013E+01 -0.40764397654E+02 -0.13166200658E+02  0.47787272388E+02  0.20000006124E+02 0.  0.
        -12    1    1    2    0    0 -0.69669363013E+01  0.40764397654E+02  0.13166200658E+02  0.43400727612E+02  0.00000000000E+00 0.  1.
         11    1    3    3    0    0 -0.22490539143E+01 -0.32585631985E+01  0.87905490581E+00  0.40557632348E+01  0.51100000000E-03 0.  1.
        -11    1    3    3    0    0  0.10968503766E+02 -0.25980889894E+02 -0.42796848956E+01  0.28524207572E+02  0.51100000000E-03 0. -1.
         12    1    3    3    0    0 -0.17525135508E+01 -0.11524944562E+02 -0.97655706684E+01  0.15207301581E+02  0.00000000000E+00 0. -1.
</event>
<event>
 7    1  0.1322363E-009  0.4778727E+02  0.7816164E-02  0.1312668E+00
        -11   -1    0    0    0    0  0.00000000000E+00  0.00000000000E+00  0.45593999997E+02  0.45594000000E+02  0.51100000000E-03 0.  1.
         11   -1    0    0    0    0 -0.00000000000E+00 -0.00000000000E+00 -0.45593999997E+02  0.45594000000E+02  0.51100000000E-03 0. -1.
    9900012    2    1    2    0    0 -0.26705633139E+02  0.54753441800E+01 -0.33770590761E+02  0.47787273789E+02  0.20000012514E+02 0.  0.
        -12    1    1    2    0    0  0.26705633139E+02 -0.54753441800E+01  0.33770590761E+02  0.43400726211E+02  0.00000000000E+00 0.  1.
         11    1    3    3    0    0  0.34694355873E+00 -0.14329347566E+01 -0.52182097182E+00  0.15639594744E+01  0.51100000000E-03 0.  1.
        -11    1    3    3    0    0 -0.28141788155E+02  0.90033726163E+01 -0.29230020547E+02  0.41562183057E+02  0.51100000000E-03 0. -1.
         12    1    3    3    0    0  0.10892114575E+01 -0.20950936797E+01 -0.40187492423E+01  0.46611312574E+01  0.00000000000E+00 0. -1.
</event>
<event>
 7    1  0.1322363E-009  0.4778727E+02  0.7816164E-02  0.1312668E+00
        -11   -1    0    0    0    0  0.00000000000E+00  0.00000000000E+00  0.45593999997E+02  0.45594000000E+02  0.51100000000E-03 0.  1.
         11   -1    0    0    0    0 -0.00000000000E+00 -0.00000000000E+00 -0.45593999997E+02  0.45594000000E+02  0.51100000000E-03 0. -1.
    9900012    2    1    2    0    0  0.22253043666E+02  0.36340056118E+02 -0.82356297963E+01  0.47787271559E+02  0.20000002345E+02 0.  0.
        -12    1    1    2    0    0 -0.22253043666E+02 -0.36340056118E+02  0.82356297963E+01  0.43400728441E+02  0.00000000000E+00 0.  1.
         11    1    3    3    0    0  0.34212231276E+01  0.12584925502E+02 -0.30027658126E+01  0.13382889089E+02  0.51100000000E-03 0. -1.
        -11    1    3    3    0    0  0.21562386153E+02  0.20610764673E+02 -0.43022975404E+01  0.30137184365E+02  0.51100000000E-03 0.  1.
        -12    1    3    3    0    0 -0.27305656151E+01  0.31443659436E+01 -0.93056644330E+00  0.42671981054E+01  0.00000000000E+00 0.  1.
</event>
<event>
 7    1  0.1322363E-009  0.4778727E+02  0.7816164E-02  0.1312668E+00
        -11   -1    0    0    0    0  0.00000000000E+00  0.00000000000E+00  0.45593999997E+02  0.45594000000E+02  0.51100000000E-03 0. -1.
         11   -1    0    0    0    0 -0.00000000000E+00 -0.00000000000E+00 -0.45593999997E+02  0.45594000000E+02  0.51100000000E-03 0.  1.
    9900012    2    1    2    0    0 -0.23621973902E+02  0.28751118399E+02  0.22338280261E+02  0.47787271604E+02  0.20000002553E+02 0.  0.
        -12    1    1    2    0    0  0.23621973902E+02 -0.28751118399E+02 -0.22338280261E+02  0.43400728396E+02  0.00000000000E+00 0.  1.
         11    1    3    3    0    0 -0.12515098685E+02  0.10026550143E+02  0.63417253342E+01  0.17244618968E+02  0.51100000000E-03 0. -1.
        -11    1    3    3    0    0  0.16769118880E+01 -0.13488324185E+01  0.74920340858E+00  0.22787471080E+01  0.51100000000E-03 0.  1.
         12    1    3    3    0    0 -0.12783787105E+02  0.20073400675E+02  0.15247351518E+02  0.28263905529E+02  0.00000000000E+00 0. -1.
</event>
<event>
 7    1  0.1322363E-009  0.4778727E+02  0.7816164E-02  0.1312668E+00
        -11   -1    0    0    0    0  0.00000000000E+00  0.00000000000E+00  0.45593999997E+02  0.45594000000E+02  0.51100000000E-03 0.  1.
         11   -1    0    0    0    0 -0.00000000000E+00 -0.00000000000E+00 -0.45593999997E+02  0.45594000000E+02  0.51100000000E-03 0. -1.
    9900012    2    1    2    0    0 -0.38363370036E+02 -0.10326382571E+02 -0.17471152468E+02  0.47787268370E+02  0.19999987804E+02 0.  0.
        -12    1    1    2    0    0  0.38363370036E+02  0.10326382571E+02  0.17471152468E+02  0.43400731630E+02  0.00000000000E+00 0.  1.
         11    1    3    3    0    0 -0.13675322535E+02 -0.21121343292E+01 -0.11591394566E+02  0.18050927569E+02  0.51100000000E-03 0. -1.
        -11    1    3    3    0    0 -0.12748826896E+02 -0.10691943885E+02 -0.12227340857E+01  0.16683684551E+02  0.51100000000E-03 0.  1.
         12    1    3    3    0    0 -0.11939220605E+02  0.24776956441E+01 -0.46570238167E+01  0.13052656250E+02  0.00000000000E+00 0. -1.
</event>
<event>
 7    1  0.1322363E-009  0.4778727E+02  0.7816164E-02  0.1312668E+00
        -11   -1    0    0    0    0  0.00000000000E+00  0.00000000000E+00  0.45593999997E+02  0.45594000000E+02  0.51100000000E-03 0.  1.
         11   -1    0    0    0    0 -0.00000000000E+00 -0.00000000000E+00 -0.45593999997E+02  0.45594000000E+02  0.51100000000E-03 0. -1.
    9900012    2    1    2    0    0  0.32105045873E+02 -0.26413933945E+02  0.12457669637E+02  0.47787269480E+02  0.19999992865E+02 0.  0.
        -12    1    1    2    0    0 -0.32105045873E+02  0.26413933945E+02 -0.12457669637E+02  0.43400730520E+02  0.00000000000E+00 0.  1.
         11    1    3    3    0    0  0.10468922211E+01 -0.77374625849E+01 -0.71321516548E+00  0.78404710770E+01  0.51100000000E-03 0. -1.
        -11    1    3    3    0    0  0.17290789614E+02 -0.16227916716E+02  0.88532381993E+01  0.25311983590E+02  0.51100000000E-03 0.  1.
        -12    1    3    3    0    0  0.13767364038E+02 -0.24485546438E+01  0.43176466036E+01  0.14634814812E+02  0.00000000000E+00 0.  1.
</event>
<event>
 7    1  0.1322363E-009  0.4778727E+02  0.7816164E-02  0.1312668E+00
        -11   -1    0    0    0    0  0.00000000000E+00  0.00000000000E+00  0.45593999997E+02  0.45594000000E+02  0.51100000000E-03 0. -1.
         11   -1    0    0    0    0 -0.00000000000E+00 -0.00000000000E+00 -0.45593999997E+02  0.45594000000E+02  0.51100000000E-03 0.  1.
    9900012    2    1    2    0    0 -0.83003786306E+01 -0.27109928070E+01  0.42513259801E+02  0.47787273896E+02  0.20000013003E+02 0.  0.
        -12    1    1    2    0    0  0.83003786306E+01  0.27109928070E+01 -0.42513259801E+02  0.43400726104E+02  0.00000000000E+00 0.  1.
         11    1    3    3    0    0  0.37652753805E+01 -0.52854625347E+01  0.20116886661E+02  0.21137704277E+02  0.51100000000E-03 0. -1.
        -11    1    3    3    0    0 -0.33020883159E+01  0.44102808843E+00  0.10776736748E+01  0.35013817032E+01  0.51100000000E-03 0.  1.
        -12    1    3    3    0    0 -0.87635656952E+01  0.21334416392E+01  0.21318699465E+02  0.23148187916E+02  0.00000000000E+00 0.  1.
</event>
<event>
 7    1  0.1322363E-009  0.4778727E+02  0.7816164E-02  0.1312668E+00
        -11   -1    0    0    0    0  0.00000000000E+00  0.00000000000E+00  0.45593999997E+02  0.45594000000E+02  0.51100000000E-03 0. -1.
         11   -1    0    0    0    0 -0.00000000000E+00 -0.00000000000E+00 -0.45593999997E+02  0.45594000000E+02  0.51100000000E-03 0.  1.
    9900012    2    1    2    0    0 -0.17932403469E+02 -0.37759718802E+02 -0.11672873879E+02  0.47787269099E+02  0.19999991130E+02 0.  0.
        -12    1    1    2    0    0  0.17932403469E+02  0.37759718802E+02  0.11672873879E+02  0.43400730901E+02  0.00000000000E+00 0.  1.
         11    1    3    3    0    0  0.24625550741E+01 -0.30492781183E+01  0.23420841573E+01  0.45659208268E+01  0.51100000000E-03 0. -1.
        -11    1    3    3    0    0 -0.92128495901E+01 -0.22031180703E+02 -0.67085001869E+01  0.24804303977E+02  0.51100000000E-03 0.  1.
         12    1    3    3    0    0 -0.11182108953E+02 -0.12679259980E+02 -0.73064578497E+01  0.18417044296E+02  0.00000000000E+00 0. -1.
</event>
<event>
 7    1  0.1322363E-009  0.4778727E+02  0.7816164E-02  0.1312668E+00
        -11   -1    0    0    0    0  0.00000000000E+00  0.00000000000E+00  0.45593999997E+02  0.45594000000E+02  0.51100000000E-03 0. -1.
         11   -1    0    0    0    0 -0.00000000000E+00 -0.00000000000E+00 -0.45593999997E+02  0.45594000000E+02  0.51100000000E-03 0.  1.
    9900012    2    1    2    0    0  0.12630887906E+02  0.41424745970E+02 -0.28416068069E+01  0.47787266858E+02  0.19999980914E+02 0.  0.
        -12    1    1    2    0    0 -0.12630887906E+02 -0.41424745970E+02  0.28416068069E+01  0.43400733142E+02  0.00000000000E+00 0.  1.
         11    1    3    3    0    0  0.12583113028E+01  0.43508699912E+00  0.10397165920E+00  0.13354618671E+01  0.51100000000E-03 0. -1.
        -11    1    3    3    0    0  0.12053214202E+02  0.36018176382E+02 -0.85472969060E+01  0.38931289307E+02  0.51100000000E-03 0.  1.
         12    1    3    3    0    0 -0.68063759806E+00  0.49714825891E+01  0.56017184400E+01  0.75205156841E+01  0.00000000000E+00 0. -1.
</event>
<event>
 7    1  0.1322363E-009  0.4778727E+02  0.7816164E-02  0.1312668E+00
        -11   -1    0    0    0    0  0.00000000000E+00  0.00000000000E+00  0.45593999997E+02  0.45594000000E+02  0.51100000000E-03 0.  1.
         11   -1    0    0    0    0 -0.00000000000E+00 -0.00000000000E+00 -0.45593999997E+02  0.45594000000E+02  0.51100000000E-03 0. -1.
    9900012    2    1    2    0    0 -0.34245038578E+02  0.11108451912E+02 -0.24238459233E+02  0.47787271008E+02  0.19999999834E+02 0.  0.
        -12    1    1    2    0    0  0.34245038578E+02 -0.11108451912E+02  0.24238459233E+02  0.43400728992E+02  0.00000000000E+00 0.  1.
         11    1    3    3    0    0 -0.11357040309E+02 -0.36432751704E+01 -0.10050396365E+02  0.15596996054E+02  0.51100000000E-03 0. -1.
        -11    1    3    3    0    0 -0.60526378582E+01  0.23052638045E+01 -0.81305462160E+01  0.10394924160E+02  0.51100000000E-03 0.  1.
        -12    1    3    3    0    0 -0.16835360410E+02  0.12446463278E+02 -0.60575166518E+01  0.21795350794E+02  0.00000000000E+00 0.  1.
</event>
<event>
 7    1  0.1322363E-009  0.4778727E+02  0.7816164E-02  0.1312668E+00
        -11   -1    0    0    0    0  0.00000000000E+00  0.00000000000E+00  0.45593999997E+02  0.45594000000E+02  0.51100000000E-03 0. -1.
         11   -1    0    0    0    0 -0.00000000000E+00 -0.00000000000E+00 -0.45593999997E+02  0.45594000000E+02  0.51100000000E-03 0.  1.
    9900012    2    1    2    0    0 -0.42868160536E+02 -0.65198265950E+01  0.18537149546E+01  0.47787267452E+02  0.19999983621E+02 0.  0.
        -12    1    1    2    0    0  0.42868160536E+02  0.65198265950E+01 -0.18537149546E+01  0.43400732548E+02  0.00000000000E+00 0.  1.
         11    1    3    3    0    0 -0.10852835566E+01  0.31140441144E+01 -0.30524025306E+01  0.44935812683E+01  0.51100000000E-03 0.  1.
        -11    1    3    3    0    0 -0.53937859924E+01 -0.21376415450E+01  0.14480940540E+01  0.59799176714E+01  0.51100000000E-03 0. -1.
        -12    1    3    3    0    0 -0.36389090987E+02 -0.74962291644E+01  0.34580234312E+01  0.37313768512E+02  0.00000000000E+00 0.  1.
</event>
<event>
 7    1  0.1322363E-009  0.4778727E+02  0.7816164E-02  0.1312668E+00
        -11   -1    0    0    0    0  0.00000000000E+00  0.00000000000E+00  0.45593999997E+02  0.45594000000E+02  0.51100000000E-03 0.  1.
         11   -1    0    0    0    0 -0.00000000000E+00 -0.00000000000E+00 -0.45593999997E+02  0.45594000000E+02  0.51100000000E-03 0. -1.
    9900012    2    1    2    0    0  0.58582744606E+01  0.37775491210E+02 -0.20550332459E+02  0.47787270974E+02  0.19999999680E+02 0.  0.
        -12    1    1    2    0    0 -0.58582744606E+01 -0.37775491210E+02  0.20550332459E+02  0.43400729026E+02  0.00000000000E+00 0.  1.
         11    1    3    3    0    0  0.51878915276E+01  0.74500943618E+01 -0.65283522722E+01  0.11182017177E+02  0.51100000000E-03 0. -1.
        -11    1    3    3    0    0  0.17852858963E+01  0.26055667228E+02 -0.50411904127E+01  0.26598846619E+02  0.51100000000E-03 0.  1.
        -12    1    3    3    0    0 -0.11149029634E+01  0.42697296202E+01 -0.89807897742E+01  0.10006407178E+02  0.00000000000E+00 0.  1.
</event>
<event>
 7    1  0.1322363E-009  0.4778727E+02  0.7816164E-02  0.1312668E+00
        -11   -1    0    0    0    0  0.00000000000E+00  0.00000000000E+00  0.45593999997E+02  0.45594000000E+02  0.51100000000E-03 0. -1.
         11   -1    0    0    0    0 -0.00000000000E+00 -0.00000000000E+00 -0.45593999997E+02  0.45594000000E+02  0.51100000000E-03 0.  1.
    9900012    2    1    2    0    0 -0.18129331428E+02 -0.38538303954E+02  0.83516198028E+01  0.47787273243E+02  0.20000010026E+02 0.  0.
        -12    1    1    2    0    0  0.18129331428E+02  0.38538303954E+02 -0.83516198028E+01  0.43400726757E+02  0.00000000000E+00 0.  1.
         11    1    3    3    0    0 -0.18297791486E+00 -0.14267448517E+02  0.57219970003E+01  0.15373185033E+02  0.51100000000E-03 0. -1.
        -11    1    3    3    0    0 -0.45078173862E+00 -0.68959677907E+01  0.34896980665E+01  0.77418065593E+01  0.51100000000E-03 0.  1.
        -12    1    3    3    0    0 -0.17495571774E+02 -0.17374887646E+02 -0.86007526399E+00  0.24672281651E+02  0.00000000000E+00 0.  1.
</event>
<event>
 7    1  0.1322363E-009  0.4778727E+02  0.7816164E-02  0.1312668E+00
        -11   -1    0    0    0    0  0.00000000000E+00  0.00000000000E+00  0.45593999997E+02  0.45594000000E+02  0.51100000000E-03 0.  1.
         11   -1    0    0    0    0 -0.00000000000E+00 -0.00000000000E+00 -0.45593999997E+02  0.45594000000E+02  0.51100000000E-03 0. -1.
    9900012    2    1    2    0    0  0.11213815481E+02  0.38344741558E+02 -0.16957439199E+02  0.47787267207E+02  0.19999982503E+02 0.  0.
        -12    1    1    2    0    0 -0.11213815481E+02 -0.38344741558E+02  0.16957439199E+02  0.43400732793E+02  0.00000000000E+00 0.  1.
         11    1    3    3    0    0  0.44630433431E+01  0.38050079661E+01  0.31168549169E+00  0.58731584017E+01  0.51100000000E-03 0. -1.
        -11    1    3    3    0    0 -0.33546780359E+01  0.20903813366E+02 -0.85424224984E+01  0.22829723178E+02  0.51100000000E-03 0.  1.
         12    1    3    3    0    0  0.10105450174E+02  0.13635920225E+02 -0.87267021928E+01  0.19084385627E+02  0.00000000000E+00 0. -1.
</event>
<event>
 7    1  0.1322363E-009  0.4778726E+02  0.7816164E-02  0.1312668E+00
        -11   -1    0    0    0    0  0.00000000000E+00  0.00000000000E+00  0.45593999997E+02  0.45594000000E+02  0.51100000000E-03 0. -1.
         11   -1    0    0    0    0 -0.00000000000E+00 -0.00000000000E+00 -0.45593999997E+02  0.45594000000E+02  0.51100000000E-03 0.  1.
    9900012    2    1    2    0    0 -0.11078995674E+02 -0.19637604957E+02  0.37084293580E+02  0.47787256873E+02  0.19999935388E+02 0.  0.
        -12    1    1    2    0    0  0.11078995674E+02  0.19637604957E+02 -0.37084293580E+02  0.43400743127E+02  0.00000000000E+00 0.  1.
         11    1    3    3    0    0 -0.18196556004E+01 -0.19407442790E+02  0.21322652414E+02  0.28889712501E+02  0.51100000000E-03 0. -1.
        -11    1    3    3    0    0 -0.29932329198E+01  0.85924107182E-01  0.15704390775E+01  0.33812875391E+01  0.51100000000E-03 0.  1.
         12    1    3    3    0    0 -0.62661071541E+01 -0.31608627401E+00  0.14191202089E+02  0.15516256834E+02  0.00000000000E+00 0. -1.
</event>
<event>
 7    1  0.1322363E-009  0.4778727E+02  0.7816164E-02  0.1312668E+00
        -11   -1    0    0    0    0  0.00000000000E+00  0.00000000000E+00  0.45593999997E+02  0.45594000000E+02  0.51100000000E-03 0. -1.
         11   -1    0    0    0    0 -0.00000000000E+00 -0.00000000000E+00 -0.45593999997E+02  0.45594000000E+02  0.51100000000E-03 0.  1.
    9900012    2    1    2    0    0 -0.18389009787E+02  0.38414057662E+02  0.83563032751E+01  0.47787270612E+02  0.19999998027E+02 0.  0.
        -12    1    1    2    0    0  0.18389009787E+02 -0.38414057662E+02 -0.83563032751E+01  0.43400729388E+02  0.00000000000E+00 0.  1.
         11    1    3    3    0    0 -0.43107694792E+00  0.12586117928E+02 -0.17415044060E+01  0.12713340619E+02  0.51100000000E-03 0. -1.
        -11    1    3    3    0    0 -0.81256674401E+01  0.78809101992E+01 -0.17095285909E+01  0.11448043727E+02  0.51100000000E-03 0.  1.
         12    1    3    3    0    0 -0.98322653991E+01  0.17947029535E+02  0.11807336272E+02  0.23625886266E+02  0.00000000000E+00 0. -1.
</event>
<event>
 7    1  0.1322363E-009  0.4778727E+02  0.7816164E-02  0.1312668E+00
        -11   -1    0    0    0    0  0.00000000000E+00  0.00000000000E+00  0.45593999997E+02  0.45594000000E+02  0.51100000000E-03 0.  1.
         11   -1    0    0    0    0 -0.00000000000E+00 -0.00000000000E+00 -0.45593999997E+02  0.45594000000E+02  0.51100000000E-03 0. -1.
    9900012    2    1    2    0    0  0.39207778282E+02 -0.93495501880E+01 -0.16092213044E+02  0.47787270891E+02  0.19999999302E+02 0.  0.
        -12    1    1    2    0    0 -0.39207778282E+02  0.93495501880E+01  0.16092213044E+02  0.43400729109E+02  0.00000000000E+00 0.  1.
         11    1    3    3    0    0  0.10835437859E+02  0.26066462380E+01 -0.69880759867E+00  0.11166452012E+02  0.51100000000E-03 0. -1.
        -11    1    3    3    0    0  0.11824963892E+02 -0.93781098219E+01 -0.20971380899E+01  0.15237345678E+02  0.51100000000E-03 0.  1.
         12    1    3    3    0    0  0.16547376531E+02 -0.25780866041E+01 -0.13296267355E+02  0.21383473202E+02  0.00000000000E+00 0. -1.
</event>
<event>
 7    1  0.1322363E-009  0.4778727E+02  0.7816164E-02  0.1312668E+00
        -11   -1    0    0    0    0  0.00000000000E+00  0.00000000000E+00  0.45593999997E+02  0.45594000000E+02  0.51100000000E-03 0. -1.
         11   -1    0    0    0    0 -0.00000000000E+00 -0.00000000000E+00 -0.45593999997E+02  0.45594000000E+02  0.51100000000E-03 0.  1.
    9900012    2    1    2    0    0 -0.36647607540E+02 -0.22618627730E+02 -0.53827386449E+01  0.47787270351E+02  0.19999996837E+02 0.  0.
        -12    1    1    2    0    0  0.36647607540E+02  0.22618627730E+02  0.53827386449E+01  0.43400729649E+02  0.00000000000E+00 0.  1.
         11    1    3    3    0    0 -0.32751834137E+02 -0.20817779709E+02 -0.40181610379E+01  0.39015486794E+02  0.51100000000E-03 0. -1.
        -11    1    3    3    0    0 -0.87274764995E+00 -0.25079778190E+01  0.26133362522E+01  0.37257439297E+01  0.51100000000E-03 0.  1.
         12    1    3    3    0    0 -0.30230257521E+01  0.70712979764E+00 -0.39779138593E+01  0.50460396273E+01  0.00000000000E+00 0. -1.
</event>
<event>
 7    1  0.1322363E-009  0.4778727E+02  0.7816164E-02  0.1312668E+00
        -11   -1    0    0    0    0  0.00000000000E+00  0.00000000000E+00  0.45593999997E+02  0.45594000000E+02  0.51100000000E-03 0.  1.
         11   -1    0    0    0    0 -0.00000000000E+00 -0.00000000000E+00 -0.45593999997E+02  0.45594000000E+02  0.51100000000E-03 0. -1.
    9900012    2    1    2    0    0  0.78732735988E+01 -0.35437896383E+02 -0.23786347336E+02  0.47787271241E+02  0.20000000897E+02 0.  0.
        -12    1    1    2    0    0 -0.78732735988E+01  0.35437896383E+02  0.23786347336E+02  0.43400728759E+02  0.00000000000E+00 0.  1.
         11    1    3    3    0    0  0.44883398452E+01 -0.12775746842E+01 -0.49662465598E+01  0.68147631502E+01  0.51100000000E-03 0. -1.
        -11    1    3    3    0    0 -0.18546782923E+01 -0.15134233750E+00 -0.26891751851E+00  0.18801736526E+01  0.51100000000E-03 0.  1.
         12    1    3    3    0    0  0.52396120458E+01 -0.34008979361E+02 -0.18551183257E+02  0.39092334438E+02  0.00000000000E+00 0. -1.
</event>
<event>
 7    1  0.1322363E-009  0.4778727E+02  0.7816164E-02  0.1312668E+00
        -11   -1    0    0    0    0  0.00000000000E+00  0.00000000000E+00  0.45593999997E+02  0.45594000000E+02  0.51100000000E-03 0.  1.
         11   -1    0    0    0    0 -0.00000000000E+00 -0.00000000000E+00 -0.45593999997E+02  0.45594000000E+02  0.51100000000E-03 0. -1.
    9900012    2    1    2    0    0 -0.43393061737E+02  0.16129306733E+00  0.79966408298E+00  0.47787270916E+02  0.19999999414E+02 0.  0.
        -12    1    1    2    0    0  0.43393061737E+02 -0.16129306733E+00 -0.79966408298E+00  0.43400729084E+02  0.00000000000E+00 0.  1.
         11    1    3    3    0    0 -0.16769370109E+02  0.36971146369E+01 -0.95324479166E+00  0.17198520471E+02  0.51100000000E-03 0. -1.
        -11    1    3    3    0    0 -0.10015139777E+02 -0.91412871210E+00  0.77927764078E+01  0.12722657759E+02  0.51100000000E-03 0.  1.
         12    1    3    3    0    0 -0.16608551851E+02 -0.26216928575E+01 -0.60398675332E+01  0.17866092686E+02  0.00000000000E+00 0. -1.
</event>
<event>
 7    1  0.1322363E-009  0.4778725E+02  0.7816164E-02  0.1312668E+00
        -11   -1    0    0    0    0  0.00000000000E+00  0.00000000000E+00  0.45593999997E+02  0.45594000000E+02  0.51100000000E-03 0. -1.
         11   -1    0    0    0    0 -0.00000000000E+00 -0.00000000000E+00 -0.45593999997E+02  0.45594000000E+02  0.51100000000E-03 0.  1.
    9900012    2    1    2    0    0  0.72503785362E+01 -0.42287324973E+02  0.65451865562E+01  0.47787247594E+02  0.19999893081E+02 0.  0.
        -12    1    1    2    0    0 -0.72503785362E+01  0.42287324973E+02 -0.65451865562E+01  0.43400752406E+02  0.00000000000E+00 0.  1.
         11    1    3    3    0    0  0.29288038325E+01 -0.18296481945E+02 -0.35357515311E+01  0.18863739889E+02  0.51100000000E-03 0. -1.
        -11    1    3    3    0    0  0.30740999878E+01 -0.24901260318E+02  0.80054430794E+01  0.26336476137E+02  0.51100000000E-03 0.  1.
        -12    1    3    3    0    0  0.12474747159E+01  0.91041728943E+00  0.20754950079E+01  0.25870315683E+01  0.00000000000E+00 0.  1.
</event>
<event>
 7    1  0.1322363E-009  0.4778727E+02  0.7816164E-02  0.1312668E+00
        -11   -1    0    0    0    0  0.00000000000E+00  0.00000000000E+00  0.45593999997E+02  0.45594000000E+02  0.51100000000E-03 0. -1.
         11   -1    0    0    0    0 -0.00000000000E+00 -0.00000000000E+00 -0.45593999997E+02  0.45594000000E+02  0.51100000000E-03 0.  1.
    9900012    2    1    2    0    0  0.16118150693E+02  0.32537818679E+02  0.23772233897E+02  0.47787268087E+02  0.19999986514E+02 0.  0.
        -12    1    1    2    0    0 -0.16118150693E+02 -0.32537818679E+02 -0.23772233897E+02  0.43400731913E+02  0.00000000000E+00 0.  1.
         11    1    3    3    0    0  0.11069504867E+02  0.27594668400E+02  0.20346788631E+02  0.36027648688E+02  0.51100000000E-03 0. -1.
        -11    1    3    3    0    0  0.10560068601E+01  0.50590751629E+01  0.52512083488E+01  0.73678070942E+01  0.51100000000E-03 0.  1.
        -12    1    3    3    0    0  0.39926389650E+01 -0.11592488343E+00 -0.18257630831E+01  0.43918123046E+01  0.00000000000E+00 0.  1.
</event>
<event>
 7    1  0.1322363E-009  0.4778727E+02  0.7816164E-02  0.1312668E+00
        -11   -1    0    0    0    0  0.00000000000E+00  0.00000000000E+00  0.45593999997E+02  0.45594000000E+02  0.51100000000E-03 0. -1.
         11   -1    0    0    0    0 -0.00000000000E+00 -0.00000000000E+00 -0.45593999997E+02  0.45594000000E+02  0.51100000000E-03 0.  1.
    9900012    2    1    2    0    0 -0.23743173841E+02 -0.31867930301E+02  0.17444761022E+02  0.47787274512E+02  0.20000015811E+02 0.  0.
        -12    1    1    2    0    0  0.23743173841E+02  0.31867930301E+02 -0.17444761022E+02  0.43400725488E+02  0.00000000000E+00 0.  1.
         11    1    3    3    0    0 -0.10428777008E+01  0.18350050884E+01  0.47423591038E+00  0.21632701018E+01  0.51100000000E-03 0.  1.
        -11    1    3    3    0    0 -0.50102679395E+01 -0.15770586591E+02  0.10566549280E+02  0.19633291884E+02  0.51100000000E-03 0. -1.
        -12    1    3    3    0    0 -0.17690028201E+02 -0.17932348799E+02  0.64039758317E+01  0.25990712527E+02  0.00000000000E+00 0.  1.
</event>
<event>
 7    1  0.1322363E-009  0.4778727E+02  0.7816164E-02  0.1312668E+00
        -11   -1    0    0    0    0  0.00000000000E+00  0.00000000000E+00  0.45593999997E+02  0.45594000000E+02  0.51100000000E-03 0. -1.
         11   -1    0    0    0    0 -0.00000000000E+00 -0.00000000000E+00 -0.45593999997E+02  0.45594000000E+02  0.51100000000E-03 0.  1.
    9900012    2    1    2    0    0 -0.20192361155E+02 -0.35185152585E+02 -0.15423906062E+02  0.47787270862E+02  0.19999999169E+02 0.  0.
        -12    1    1    2    0    0  0.20192361155E+02  0.35185152585E+02  0.15423906062E+02  0.43400729138E+02  0.00000000000E+00 0.  1.
         11    1    3    3    0    0 -0.15933680964E+02 -0.17481979908E+02 -0.31020433509E+00  0.23655824601E+02  0.51100000000E-03 0. -1.
        -11    1    3    3    0    0 -0.38013264304E+00 -0.78921211789E+01 -0.41838900856E+01  0.89406383462E+01  0.51100000000E-03 0.  1.
        -12    1    3    3    0    0 -0.38785475480E+01 -0.98110514984E+01 -0.10929811641E+02  0.15190807915E+02  0.00000000000E+00 0.  1.
</event>
<event>
 7    1  0.1322363E-009  0.4778727E+02  0.7816164E-02  0.1312668E+00
        -11   -1    0    0    0    0  0.00000000000E+00  0.00000000000E+00  0.45593999997E+02  0.45594000000E+02  0.51100000000E-03 0.  1.
         11   -1    0    0    0    0 -0.00000000000E+00 -0.00000000000E+00 -0.45593999997E+02  0.45594000000E+02  0.51100000000E-03 0. -1.
    9900012    2    1    2    0    0 -0.21522740781E+02 -0.36362326786E+02 -0.99083831487E+01  0.47787271473E+02  0.20000001956E+02 0.  0.
        -12    1    1    2    0    0  0.21522740781E+02  0.36362326786E+02  0.99083831487E+01  0.43400728527E+02  0.00000000000E+00 0.  1.
         11    1    3    3    0    0 -0.50824573605E+01 -0.46229222121E+01 -0.58071346204E+01  0.89958654593E+01  0.51100000000E-03 0. -1.
        -11    1    3    3    0    0 -0.85728123540E+00 -0.69795964614E+01  0.44378256379E+01  0.83152867981E+01  0.51100000000E-03 0.  1.
         12    1    3    3    0    0 -0.15583002185E+02 -0.24759808113E+02 -0.85390741662E+01  0.30476119216E+02  0.00000000000E+00 0. -1.
</event>
<event>
 7    1  0.1322363E-009  0.4778727E+02  0.7816164E-02  0.1312668E+00
        -11   -1    0    0    0    0  0.00000000000E+00  0.00000000000E+00  0.45593999997E+02  0.45594000000E+02  0.51100000000E-03 0. -1.
         11   -1    0    0    0    0 -0.00000000000E+00 -0.00000000000E+00 -0.45593999997E+02  0.45594000000E+02  0.51100000000E-03 0.  1.
    9900012    2    1    2    0    0  0.20295642919E+02  0.11852970416E+02  0.36485850102E+02  0.47787270895E+02  0.19999999317E+02 0.  0.
        -12    1    1    2    0    0 -0.20295642919E+02 -0.11852970416E+02 -0.36485850102E+02  0.43400729105E+02  0.00000000000E+00 0.  1.
         11    1    3    3    0    0  0.19058112162E+02  0.13309308995E+02  0.35330213049E+02  0.42291527514E+02  0.51100000000E-03 0. -1.
        -11    1    3    3    0    0 -0.36278248260E+00  0.15219917794E+01 -0.61254074671E+00  0.16802608529E+01  0.51100000000E-03 0.  1.
         12    1    3    3    0    0  0.16003132396E+01 -0.29783303585E+01  0.17681778004E+01  0.38154825282E+01  0.00000000000E+00 0. -1.
</event>
<event>
 7    1  0.1322363E-009  0.4778727E+02  0.7816164E-02  0.1312668E+00
        -11   -1    0    0    0    0  0.00000000000E+00  0.00000000000E+00  0.45593999997E+02  0.45594000000E+02  0.51100000000E-03 0. -1.
         11   -1    0    0    0    0 -0.00000000000E+00 -0.00000000000E+00 -0.45593999997E+02  0.45594000000E+02  0.51100000000E-03 0.  1.
    9900012    2    1    2    0    0  0.29522662417E+02  0.23373199863E+02  0.21580763290E+02  0.47787269451E+02  0.19999992734E+02 0.  0.
        -12    1    1    2    0    0 -0.29522662417E+02 -0.23373199863E+02 -0.21580763290E+02  0.43400730549E+02  0.00000000000E+00 0.  1.
         11    1    3    3    0    0  0.74518262821E+00  0.82394982145E+00 -0.25856450477E+00  0.11406341753E+01  0.51100000000E-03 0. -1.
        -11    1    3    3    0    0  0.52325837006E+01 -0.29061358605E+01  0.61687052059E+01  0.85952592749E+01  0.51100000000E-03 0.  1.
         12    1    3    3    0    0  0.23544896089E+02  0.25455385902E+02  0.15670622589E+02  0.38051376001E+02  0.00000000000E+00 0. -1.
</event>
<event>
 7    1  0.1322363E-009  0.4778728E+02  0.7816164E-02  0.1312668E+00
        -11   -1    0    0    0    0  0.00000000000E+00  0.00000000000E+00  0.45593999997E+02  0.45594000000E+02  0.51100000000E-03 0.  1.
         11   -1    0    0    0    0 -0.00000000000E+00 -0.00000000000E+00 -0.45593999997E+02  0.45594000000E+02  0.51100000000E-03 0. -1.
    9900012    2    1    2    0    0  0.33091923207E+02 -0.27455637075E+02 -0.58936841628E+01  0.47787275332E+02  0.20000019547E+02 0.  0.
        -12    1    1    2    0    0 -0.33091923207E+02  0.27455637075E+02  0.58936841628E+01  0.43400724668E+02  0.00000000000E+00 0.  1.
         11    1    3    3    0    0  0.23954475748E+02 -0.26136609625E+02 -0.17317486516E+01  0.35495608527E+02  0.51100000000E-03 0. -1.
        -11    1    3    3    0    0  0.46167149652E+01 -0.31798546611E+01 -0.47760391840E+01  0.73645151425E+01  0.51100000000E-03 0.  1.
         12    1    3    3    0    0  0.45207324932E+01  0.18608272105E+01  0.61410367289E+00  0.49271516624E+01  0.00000000000E+00 0. -1.
</event>
<event>
 7    1  0.1322363E-009  0.4778727E+02  0.7816164E-02  0.1312668E+00
        -11   -1    0    0    0    0  0.00000000000E+00  0.00000000000E+00  0.45593999997E+02  0.45594000000E+02  0.51100000000E-03 0.  1.
         11   -1    0    0    0    0 -0.00000000000E+00 -0.00000000000E+00 -0.45593999997E+02  0.45594000000E+02  0.51100000000E-03 0. -1.
    9900012    2    1    2    0    0  0.37891845303E+02 -0.18227798214E+02 -0.10750766267E+02  0.47787267938E+02  0.19999985836E+02 0.  0.
        -12    1    1    2    0    0 -0.37891845303E+02  0.18227798214E+02  0.10750766267E+02  0.43400732062E+02  0.00000000000E+00 0.  1.
         11    1    3    3    0    0  0.26706527094E+02 -0.62572812098E+01 -0.48420248733E+01  0.27853857232E+02  0.51100000000E-03 0. -1.
        -11    1    3    3    0    0  0.11168138202E+02 -0.11236351886E+02 -0.20138874280E+01  0.15969929788E+02  0.51100000000E-03 0.  1.
        -12    1    3    3    0    0  0.17180007685E-01 -0.73416511779E+00 -0.38948539659E+01  0.39634809181E+01  0.00000000000E+00 0.  1.
</event>
<event>
 7    1  0.1322363E-009  0.4778727E+02  0.7816164E-02  0.1312668E+00
        -11   -1    0    0    0    0  0.00000000000E+00  0.00000000000E+00  0.45593999997E+02  0.45594000000E+02  0.51100000000E-03 0.  1.
         11   -1    0    0    0    0 -0.00000000000E+00 -0.00000000000E+00 -0.45593999997E+02  0.45594000000E+02  0.51100000000E-03 0. -1.
    9900012    2    1    2    0    0  0.11537750307E+02 -0.40945840644E+02 -0.85989288897E+01  0.47787272745E+02  0.20000007754E+02 0.  0.
        -12    1    1    2    0    0 -0.11537750307E+02  0.40945840644E+02  0.85989288897E+01  0.43400727255E+02  0.00000000000E+00 0.  1.
         11    1    3    3    0    0  0.31363380873E+01 -0.42650620451E+01 -0.48665576632E+01  0.71910190235E+01  0.51100000000E-03 0. -1.
        -11    1    3    3    0    0  0.11682110742E+02 -0.31983543849E+02 -0.57651296299E+00  0.34055119380E+02  0.51100000000E-03 0.  1.
        -12    1    3    3    0    0 -0.32806985227E+01 -0.46972347507E+01 -0.31558582635E+01  0.65411343419E+01  0.00000000000E+00 0.  1.
</event>
<event>
 7    1  0.1322363E-009  0.4778728E+02  0.7816164E-02  0.1312668E+00
        -11   -1    0    0    0    0  0.00000000000E+00  0.00000000000E+00  0.45593999997E+02  0.45594000000E+02  0.51100000000E-03 0.  1.
         11   -1    0    0    0    0 -0.00000000000E+00 -0.00000000000E+00 -0.45593999997E+02  0.45594000000E+02  0.51100000000E-03 0. -1.
    9900012    2    1    2    0    0  0.16300096674E+02 -0.18837237025E+02 -0.35539952187E+02  0.47787275907E+02  0.20000022171E+02 0.  0.
        -12    1    1    2    0    0 -0.16300096674E+02  0.18837237025E+02  0.35539952187E+02  0.43400724093E+02  0.00000000000E+00 0.  1.
         11    1    3    3    0    0  0.22027860012E+01 -0.76283369682E+01 -0.76807739643E+01  0.11047084684E+02  0.51100000000E-03 0. -1.
        -11    1    3    3    0    0  0.35613521771E+01 -0.11547526179E+02 -0.20793283316E+02  0.24049723938E+02  0.51100000000E-03 0.  1.
         12    1    3    3    0    0  0.10535958495E+02  0.33862612211E+00 -0.70658949068E+01  0.12690467285E+02  0.00000000000E+00 0. -1.
</event>
<event>
 7    1  0.1322363E-009  0.4778726E+02  0.7816164E-02  0.1312668E+00
        -11   -1    0    0    0    0  0.00000000000E+00  0.00000000000E+00  0.45593999997E+02  0.45594000000E+02  0.51100000000E-03 0.  1.
         11   -1    0    0    0    0 -0.00000000000E+00 -0.00000000000E+00 -0.45593999997E+02  0.45594000000E+02  0.51100000000E-03 0. -1.
    9900012    2    1    2    0    0  0.22236823892E+02 -0.35300998198E+02 -0.11957737886E+02  0.47787259154E+02  0.19999945788E+02 0.  0.
        -12    1    1    2    0    0 -0.22236823892E+02  0.35300998198E+02  0.11957737886E+02  0.43400740846E+02  0.00000000000E+00 0.  1.
         11    1    3    3    0    0  0.19622761086E+02 -0.14498893704E+02 -0.77570129119E+01  0.25601599966E+02  0.51100000000E-03 0. -1.
        -11    1    3    3    0    0 -0.13901270426E+01 -0.27233725742E+01 -0.17063500899E+01  0.35015485521E+01  0.51100000000E-03 0.  1.
        -12    1    3    3    0    0  0.40041898492E+01 -0.18078731920E+02 -0.24943748846E+01  0.18684110636E+02  0.00000000000E+00 0.  1.
</event>
<event>
 7    1  0.1322363E-009  0.4778727E+02  0.7816164E-02  0.1312668E+00
        -11   -1    0    0    0    0  0.00000000000E+00  0.00000000000E+00  0.45593999997E+02  0.45594000000E+02  0.51100000000E-03 0. -1.
         11   -1    0    0    0    0 -0.00000000000E+00 -0.00000000000E+00 -0.45593999997E+02  0.45594000000E+02  0.51100000000E-03 0.  1.
    9900012    2    1    2    0    0  0.41128759751E+02  0.13621694170E+02  0.25491738076E+01  0.47787265929E+02  0.19999976679E+02 0.  0.
        -12    1    1    2    0    0 -0.41128759751E+02 -0.13621694170E+02 -0.25491738076E+01  0.43400734071E+02  0.00000000000E+00 0.  1.
         11    1    3    3    0    0  0.11821930512E+02  0.70626330369E+01  0.48072108457E+01  0.14585887111E+02  0.51100000000E-03 0. -1.
        -11    1    3    3    0    0  0.19483957473E+02 -0.11217959190E+01  0.28559674803E+01  0.19724086174E+02  0.51100000000E-03 0.  1.
        -12    1    3    3    0    0  0.98228717661E+01  0.76808570524E+01 -0.51140045184E+01  0.13477292644E+02  0.00000000000E+00 0.  1.
</event>
<event>
 7    1  0.1322363E-009  0.4778729E+02  0.7816164E-02  0.1312668E+00
        -11   -1    0    0    0    0  0.00000000000E+00  0.00000000000E+00  0.45593999997E+02  0.45594000000E+02  0.51100000000E-03 0.  1.
         11   -1    0    0    0    0 -0.00000000000E+00 -0.00000000000E+00 -0.45593999997E+02  0.45594000000E+02  0.51100000000E-03 0. -1.
    9900012    2    1    2    0    0 -0.67118349915E+01  0.31836873524E+02 -0.28722568726E+02  0.47787294949E+02  0.20000108989E+02 0.  0.
        -12    1    1    2    0    0  0.67118349915E+01 -0.31836873524E+02  0.28722568726E+02  0.43400705051E+02  0.00000000000E+00 0.  1.
         11    1    3    3    0    0  0.31087509875E+01  0.23209075422E+01 -0.24501986858E+01  0.45885093857E+01  0.51100000000E-03 0. -1.
        -11    1    3    3    0    0 -0.79632924919E+01  0.23033234656E+02 -0.27051316299E+02  0.36410405653E+02  0.51100000000E-03 0.  1.
        -12    1    3    3    0    0 -0.18572934871E+01  0.64827313253E+01  0.77894625828E+00  0.67883799103E+01  0.00000000000E+00 0.  1.
</event>
<event>
 7    1  0.1322363E-009  0.4778723E+02  0.7816164E-02  0.1312668E+00
        -11   -1    0    0    0    0  0.00000000000E+00  0.00000000000E+00  0.45593999997E+02  0.45594000000E+02  0.51100000000E-03 0.  1.
         11   -1    0    0    0    0 -0.00000000000E+00 -0.00000000000E+00 -0.45593999997E+02  0.45594000000E+02  0.51100000000E-03 0. -1.
    9900012    2    1    2    0    0  0.38264545571E+02  0.13527214290E+02  0.15377445665E+02  0.47787230314E+02  0.19999814291E+02 0.  0.
        -12    1    1    2    0    0 -0.38264545571E+02 -0.13527214290E+02 -0.15377445665E+02  0.43400769686E+02  0.00000000000E+00 0.  1.
         11    1    3    3    0    0  0.18803443349E+02  0.70972721771E+01  0.89986133379E+01  0.22020803718E+02  0.51100000000E-03 0. -1.
        -11    1    3    3    0    0  0.15894244709E+02  0.84502321090E+01  0.97384416304E+01  0.20466330478E+02  0.51100000000E-03 0.  1.
         12    1    3    3    0    0  0.35668575126E+01 -0.20202899963E+01 -0.33596093032E+01  0.53000961174E+01  0.00000000000E+00 0. -1.
</event>
<event>
 7    1  0.1322363E-009  0.4778727E+02  0.7816164E-02  0.1312668E+00
        -11   -1    0    0    0    0  0.00000000000E+00  0.00000000000E+00  0.45593999997E+02  0.45594000000E+02  0.51100000000E-03 0.  1.
         11   -1    0    0    0    0 -0.00000000000E+00 -0.00000000000E+00 -0.45593999997E+02  0.45594000000E+02  0.51100000000E-03 0. -1.
    9900012    2    1    2    0    0  0.17916931228E+02 -0.36617832229E+02 -0.14890979452E+02  0.47787270389E+02  0.19999997010E+02 0.  0.
        -12    1    1    2    0    0 -0.17916931228E+02  0.36617832229E+02  0.14890979452E+02  0.43400729611E+02  0.00000000000E+00 0.  1.
         11    1    3    3    0    0  0.32542924342E+01 -0.13733697208E+02 -0.26692539488E+01  0.14364183762E+02  0.51100000000E-03 0.  1.
        -11    1    3    3    0    0  0.48057797817E+01 -0.60748019002E+01 -0.11573153195E+02  0.13926112615E+02  0.51100000000E-03 0. -1.
         12    1    3    3    0    0  0.98568590122E+01 -0.16809333121E+02 -0.64857230782E+00  0.19496974011E+02  0.00000000000E+00 0. -1.
</event>
<event>
 7    1  0.1322363E-009  0.4778727E+02  0.7816164E-02  0.1312668E+00
        -11   -1    0    0    0    0  0.00000000000E+00  0.00000000000E+00  0.45593999997E+02  0.45594000000E+02  0.51100000000E-03 0.  1.
         11   -1    0    0    0    0 -0.00000000000E+00 -0.00000000000E+00 -0.45593999997E+02  0.45594000000E+02  0.51100000000E-03 0. -1.
    9900012    2    1    2    0    0 -0.37744854900E+01 -0.18568909269E+02 -0.39045767181E+02  0.47787273429E+02  0.20000010871E+02 0.  0.
        -12    1    1    2    0    0  0.37744854900E+01  0.18568909269E+02  0.39045767181E+02  0.43400726571E+02  0.00000000000E+00 0.  1.
         11    1    3    3    0    0  0.21866194808E+01  0.62937597219E+00 -0.35656829998E+01  0.42298362125E+01  0.51100000000E-03 0. -1.
        -11    1    3    3    0    0 -0.49344585935E+01  0.90737246946E+00 -0.54940417447E+01  0.74402084220E+01  0.51100000000E-03 0.  1.
         12    1    3    3    0    0 -0.10266463773E+01 -0.20105657711E+02 -0.29986042436E+02  0.36117228794E+02  0.00000000000E+00 0. -1.
</event>
<event>
 7    1  0.1322363E-009  0.4778728E+02  0.7816164E-02  0.1312668E+00
        -11   -1    0    0    0    0  0.00000000000E+00  0.00000000000E+00  0.45593999997E+02  0.45594000000E+02  0.51100000000E-03 0.  1.
         11   -1    0    0    0    0 -0.00000000000E+00 -0.00000000000E+00 -0.45593999997E+02  0.45594000000E+02  0.51100000000E-03 0. -1.
    9900012    2    1    2    0    0  0.13582465126E+02  0.40539780457E+02 -0.74608922471E+01  0.47787284896E+02  0.20000063155E+02 0.  0.
        -12    1    1    2    0    0 -0.13582465126E+02 -0.40539780457E+02  0.74608922471E+01  0.43400715104E+02  0.00000000000E+00 0.  1.
         11    1    3    3    0    0  0.77794558264E+01  0.74764101531E+01  0.41169439711E+01  0.11548414162E+02  0.51100000000E-03 0. -1.
        -11    1    3    3    0    0 -0.30821185097E+00  0.72754124293E+01 -0.52910775780E+01  0.90012289583E+01  0.51100000000E-03 0.  1.
         12    1    3    3    0    0  0.61112211505E+01  0.25787957875E+02 -0.62867586402E+01  0.27237641776E+02  0.00000000000E+00 0. -1.
</event>
<event>
 7    1  0.1322363E-009  0.4778727E+02  0.7816164E-02  0.1312668E+00
        -11   -1    0    0    0    0  0.00000000000E+00  0.00000000000E+00  0.45593999997E+02  0.45594000000E+02  0.51100000000E-03 0.  1.
         11   -1    0    0    0    0 -0.00000000000E+00 -0.00000000000E+00 -0.45593999997E+02  0.45594000000E+02  0.51100000000E-03 0. -1.
    9900012    2    1    2    0    0  0.10121113450E+01 -0.27249290152E+02 -0.33764996287E+02  0.47787272386E+02  0.20000006116E+02 0.  0.
        -12    1    1    2    0    0 -0.10121113450E+01  0.27249290152E+02  0.33764996287E+02  0.43400727614E+02  0.00000000000E+00 0.  1.
         11    1    3    3    0    0  0.32243732633E+01 -0.52993163160E+01 -0.17548428566E+02  0.18612540980E+02  0.51100000000E-03 0. -1.
        -11    1    3    3    0    0 -0.34803121490E+01 -0.59192626144E+01 -0.95604643945E+01  0.11770842037E+02  0.51100000000E-03 0.  1.
        -12    1    3    3    0    0  0.12680502307E+01 -0.16030711222E+02 -0.66561033269E+01  0.17403889369E+02  0.00000000000E+00 0.  1.
</event>
<event>
 7    1  0.1322363E-009  0.4778727E+02  0.7816164E-02  0.1312668E+00
        -11   -1    0    0    0    0  0.00000000000E+00  0.00000000000E+00  0.45593999997E+02  0.45594000000E+02  0.51100000000E-03 0.  1.
         11   -1    0    0    0    0 -0.00000000000E+00 -0.00000000000E+00 -0.45593999997E+02  0.45594000000E+02  0.51100000000E-03 0. -1.
    9900012    2    1    2    0    0 -0.13851346847E+02  0.22722876318E+02 -0.34284607098E+02  0.47787271878E+02  0.20000003802E+02 0.  0.
        -12    1    1    2    0    0  0.13851346847E+02 -0.22722876318E+02  0.34284607098E+02  0.43400728122E+02  0.00000000000E+00 0.  1.
         11    1    3    3    0    0  0.33074802721E+01  0.40832702738E-01 -0.93322499667E+01  0.99011101782E+01  0.51100000000E-03 0. -1.
        -11    1    3    3    0    0 -0.74214818356E+01  0.11250580590E+02 -0.12401045659E+02  0.18315018153E+02  0.51100000000E-03 0.  1.
         12    1    3    3    0    0 -0.97373452833E+01  0.11431463026E+02 -0.12551311472E+02  0.19571143547E+02  0.00000000000E+00 0. -1.
</event>
<event>
 7    1  0.1322363E-009  0.4778727E+02  0.7816164E-02  0.1312668E+00
        -11   -1    0    0    0    0  0.00000000000E+00  0.00000000000E+00  0.45593999997E+02  0.45594000000E+02  0.51100000000E-03 0. -1.
         11   -1    0    0    0    0 -0.00000000000E+00 -0.00000000000E+00 -0.45593999997E+02  0.45594000000E+02  0.51100000000E-03 0.  1.
    9900012    2    1    2    0    0  0.15147672069E+02  0.26601646964E+02  0.30765620010E+02  0.47787274604E+02  0.20000016228E+02 0.  0.
        -12    1    1    2    0    0 -0.15147672069E+02 -0.26601646964E+02 -0.30765620010E+02  0.43400725396E+02  0.00000000000E+00 0.  1.
         11    1    3    3    0    0  0.57773585196E+01  0.10093202456E+02  0.20874905191E+02  0.23895863120E+02  0.51100000000E-03 0. -1.
        -11    1    3    3    0    0  0.68107135334E+01  0.28398013980E+01  0.58306305979E+01  0.94046022906E+01  0.51100000000E-03 0.  1.
        -12    1    3    3    0    0  0.25596000159E+01  0.13668643110E+02  0.40600842219E+01  0.14486809193E+02  0.00000000000E+00 0.  1.
</event>
<event>
 7    1  0.1322363E-009  0.4778726E+02  0.7816164E-02  0.1312668E+00
        -11   -1    0    0    0    0  0.00000000000E+00  0.00000000000E+00  0.45593999997E+02  0.45594000000E+02  0.51100000000E-03 0. -1.
         11   -1    0    0    0    0 -0.00000000000E+00 -0.00000000000E+00 -0.45593999997E+02  0.45594000000E+02  0.51100000000E-03 0.  1.
    9900012    2    1    2    0    0  0.34232338657E+02 -0.24247834929E+02  0.11127142832E+02  0.47787264796E+02  0.19999971509E+02 0.  0.
        -12    1    1    2    0    0 -0.34232338657E+02  0.24247834929E+02 -0.11127142832E+02  0.43400735204E+02  0.00000000000E+00 0.  1.
         11    1    3    3    0    0  0.12290338946E+02 -0.12254888748E+02  0.96023941385E+01  0.19835339752E+02  0.51100000000E-03 0. -1.
        -11    1    3    3    0    0  0.10163624807E+02 -0.11719622181E+02  0.37556887449E+01  0.15961015366E+02  0.51100000000E-03 0.  1.
        -12    1    3    3    0    0  0.11778374904E+02 -0.27332399981E+00 -0.22309400519E+01  0.11990909678E+02  0.00000000000E+00 0.  1.
</event>
<event>
 7    1  0.1322363E-009  0.4778728E+02  0.7816164E-02  0.1312668E+00
        -11   -1    0    0    0    0  0.00000000000E+00  0.00000000000E+00  0.45593999997E+02  0.45594000000E+02  0.51100000000E-03 0. -1.
         11   -1    0    0    0    0 -0.00000000000E+00 -0.00000000000E+00 -0.45593999997E+02  0.45594000000E+02  0.51100000000E-03 0.  1.
    9900012    2    1    2    0    0  0.28880439815E+02 -0.11513984390E+02  0.30281520240E+02  0.47787284470E+02  0.20000061212E+02 0.  0.
        -12    1    1    2    0    0 -0.28880439815E+02  0.11513984390E+02 -0.30281520240E+02  0.43400715530E+02  0.00000000000E+00 0.  1.
         11    1    3    3    0    0  0.76683023629E+01 -0.11414311309E+02  0.16138361667E+02  0.21202265948E+02  0.51100000000E-03 0. -1.
        -11    1    3    3    0    0  0.12883917959E+02 -0.14880601042E+01  0.44070658521E+01  0.13697879198E+02  0.51100000000E-03 0.  1.
        -12    1    3    3    0    0  0.83282194934E+01  0.13883870235E+01  0.97360927215E+01  0.12887139323E+02  0.00000000000E+00 0.  1.
</event>
<event>
 7    1  0.1669583E-009  0.4778731E+02  0.7816164E-02  0.1312668E+00
        -11   -1    0    0    0    0  0.00000000000E+00  0.00000000000E+00  0.45593999997E+02  0.45594000000E+02  0.51100000000E-03 0.  1.
         11   -1    0    0    0    0 -0.00000000000E+00 -0.00000000000E+00 -0.45593999997E+02  0.45594000000E+02  0.51100000000E-03 0. -1.
    9900012    2    1    2    0    0 -0.19572782483E+02  0.38628344212E+02 -0.28943564778E+01  0.47787307723E+02  0.20000167231E+02 0.  0.
        -12    1    1    2    0    0  0.19572782483E+02 -0.38628344212E+02  0.28943564778E+01  0.43400692277E+02  0.00000000000E+00 0.  1.
         11    1    3    3    0    0 -0.23969765679E+01  0.11701366464E+02  0.51216677766E+01  0.12996113068E+02  0.51100000000E-03 0. -1.
        -11    1    3    3    0    0 -0.14215372466E+01  0.22354987783E+01 -0.45933288989E+01  0.53025365219E+01  0.51100000000E-03 0.  1.
         12    1    3    3    0    0 -0.15754268669E+02  0.24691478970E+02 -0.34226953556E+01  0.29488658133E+02  0.00000000000E+00 0. -1.
</event>
<event>
 7    1  0.1322363E-009  0.4778726E+02  0.7816164E-02  0.1312668E+00
        -11   -1    0    0    0    0  0.00000000000E+00  0.00000000000E+00  0.45593999997E+02  0.45594000000E+02  0.51100000000E-03 0.  1.
         11   -1    0    0    0    0 -0.00000000000E+00 -0.00000000000E+00 -0.45593999997E+02  0.45594000000E+02  0.51100000000E-03 0. -1.
    9900012    2    1    2    0    0 -0.37354286585E+02 -0.21156440905E+02  0.63785914002E+01  0.47787260994E+02  0.19999954176E+02 0.  0.
        -12    1    1    2    0    0  0.37354286585E+02  0.21156440905E+02 -0.63785914002E+01  0.43400739006E+02  0.00000000000E+00 0.  1.
         11    1    3    3    0    0 -0.24892918581E+02 -0.77993375187E+01  0.43507496114E+01  0.26446475827E+02  0.51100000000E-03 0. -1.
        -11    1    3    3    0    0 -0.29256118252E+01 -0.20073617811E+01 -0.39923302691E+01  0.53411054203E+01  0.51100000000E-03 0.  1.
        -12    1    3    3    0    0 -0.95357561785E+01 -0.11349741605E+02  0.60201720579E+01  0.15999679747E+02  0.00000000000E+00 0.  1.
</event>
<event>
 7    1  0.1322363E-009  0.4778727E+02  0.7816164E-02  0.1312668E+00
        -11   -1    0    0    0    0  0.00000000000E+00  0.00000000000E+00  0.45593999997E+02  0.45594000000E+02  0.51100000000E-03 0.  1.
         11   -1    0    0    0    0 -0.00000000000E+00 -0.00000000000E+00 -0.45593999997E+02  0.45594000000E+02  0.51100000000E-03 0. -1.
    9900012    2    1    2    0    0  0.12259257521E+02 -0.37746817956E+02 -0.17564495077E+02  0.47787272494E+02  0.20000006609E+02 0.  0.
        -12    1    1    2    0    0 -0.12259257521E+02  0.37746817956E+02  0.17564495077E+02  0.43400727506E+02  0.00000000000E+00 0.  1.
         11    1    3    3    0    0  0.54203061027E+01 -0.20452503598E+02 -0.17367035385E+02  0.27373318031E+02  0.51100000000E-03 0. -1.
        -11    1    3    3    0    0  0.75437812589E+01 -0.86001756748E+01 -0.16914196228E+01  0.11564279395E+02  0.51100000000E-03 0.  1.
         12    1    3    3    0    0 -0.70482984058E+00 -0.86941386830E+01  0.14939599312E+01  0.88496750686E+01  0.00000000000E+00 0. -1.
</event>
<event>
 7    1  0.1322363E-009  0.4778727E+02  0.7816164E-02  0.1312668E+00
        -11   -1    0    0    0    0  0.00000000000E+00  0.00000000000E+00  0.45593999997E+02  0.45594000000E+02  0.51100000000E-03 0.  1.
         11   -1    0    0    0    0 -0.00000000000E+00 -0.00000000000E+00 -0.45593999997E+02  0.45594000000E+02  0.51100000000E-03 0. -1.
    9900012    2    1    2    0    0 -0.29623571121E+02 -0.38587223036E+01 -0.31482980592E+02  0.47787265321E+02  0.19999973904E+02 0.  0.
        -12    1    1    2    0    0  0.29623571121E+02  0.38587223036E+01  0.31482980592E+02  0.43400734679E+02  0.00000000000E+00 0.  1.
         11    1    3    3    0    0 -0.16904364450E+01 -0.11978117643E+01 -0.10259274111E+02  0.10466376352E+02  0.51100000000E-03 0. -1.
        -11    1    3    3    0    0 -0.13729531197E+02 -0.74580378855E+01 -0.94643791281E+01  0.18267370597E+02  0.51100000000E-03 0.  1.
        -12    1    3    3    0    0 -0.14203603479E+02  0.47971273462E+01 -0.11759327353E+02  0.19053518372E+02  0.00000000000E+00 0.  1.
</event>
<event>
 7    1  0.1322363E-009  0.4778727E+02  0.7816164E-02  0.1312668E+00
        -11   -1    0    0    0    0  0.00000000000E+00  0.00000000000E+00  0.45593999997E+02  0.45594000000E+02  0.51100000000E-03 0. -1.
         11   -1    0    0    0    0 -0.00000000000E+00 -0.00000000000E+00 -0.45593999997E+02  0.45594000000E+02  0.51100000000E-03 0.  1.
    9900012    2    1    2    0    0  0.34069215080E+02 -0.23375733648E+02  0.13284837231E+02  0.47787271435E+02  0.20000001782E+02 0.  0.
        -12    1    1    2    0    0 -0.34069215080E+02  0.23375733648E+02 -0.13284837231E+02  0.43400728565E+02  0.00000000000E+00 0.  1.
         11    1    3    3    0    0  0.96612315648E+01 -0.12078270258E+02  0.46532269003E+01  0.16151672626E+02  0.51100000000E-03 0. -1.
        -11    1    3    3    0    0  0.72003893606E+01 -0.89397692269E-01  0.84458084698E+01  0.11098886424E+02  0.51100000000E-03 0.  1.
         12    1    3    3    0    0  0.17207594154E+02 -0.11208065698E+02  0.18580186067E+00  0.20536712385E+02  0.00000000000E+00 0. -1.
</event>
<event>
 7    1  0.1322363E-009  0.4778727E+02  0.7816164E-02  0.1312668E+00
        -11   -1    0    0    0    0  0.00000000000E+00  0.00000000000E+00  0.45593999997E+02  0.45594000000E+02  0.51100000000E-03 0.  1.
         11   -1    0    0    0    0 -0.00000000000E+00 -0.00000000000E+00 -0.45593999997E+02  0.45594000000E+02  0.51100000000E-03 0. -1.
    9900012    2    1    2    0    0  0.10567615967E+02 -0.38740441563E+02 -0.16465934653E+02  0.47787270470E+02  0.19999997380E+02 0.  0.
        -12    1    1    2    0    0 -0.10567615967E+02  0.38740441563E+02  0.16465934653E+02  0.43400729530E+02  0.00000000000E+00 0.  1.
         11    1    3    3    0    0  0.10036580244E+02 -0.14532325922E+02 -0.57272400373E+01  0.18566709951E+02  0.51100000000E-03 0. -1.
        -11    1    3    3    0    0 -0.16381887446E+01 -0.14947007914E+01  0.20877359270E+01  0.30457239501E+01  0.51100000000E-03 0.  1.
        -12    1    3    3    0    0  0.21692244678E+01 -0.22713414850E+02 -0.12826430543E+02  0.26174836569E+02  0.00000000000E+00 0.  1.
</event>
<event>
 7    1  0.1322363E-009  0.4778727E+02  0.7816164E-02  0.1312668E+00
        -11   -1    0    0    0    0  0.00000000000E+00  0.00000000000E+00  0.45593999997E+02  0.45594000000E+02  0.51100000000E-03 0.  1.
         11   -1    0    0    0    0 -0.00000000000E+00 -0.00000000000E+00 -0.45593999997E+02  0.45594000000E+02  0.51100000000E-03 0. -1.
    9900012    2    1    2    0    0  0.27663085496E+02  0.23741419770E+02 -0.23552535299E+02  0.47787271540E+02  0.20000002258E+02 0.  0.
        -12    1    1    2    0    0 -0.27663085496E+02 -0.23741419770E+02  0.23552535299E+02  0.43400728460E+02  0.00000000000E+00 0.  1.
         11    1    3    3    0    0  0.60707662577E+01  0.76395239990E+01 -0.29488710400E+01  0.10193741735E+02  0.51100000000E-03 0.  1.
        -11    1    3    3    0    0  0.20428032846E+01 -0.26935795173E+01 -0.57572207906E+01  0.66763768145E+01  0.51100000000E-03 0. -1.
         12    1    3    3    0    0  0.19549515954E+02  0.18795475288E+02 -0.14846443469E+02  0.30917152990E+02  0.00000000000E+00 0. -1.
</event>
<event>
 7    1  0.1322363E-009  0.4778727E+02  0.7816164E-02  0.1312668E+00
        -11   -1    0    0    0    0  0.00000000000E+00  0.00000000000E+00  0.45593999997E+02  0.45594000000E+02  0.51100000000E-03 0.  1.
         11   -1    0    0    0    0 -0.00000000000E+00 -0.00000000000E+00 -0.45593999997E+02  0.45594000000E+02  0.51100000000E-03 0. -1.
    9900012    2    1    2    0    0 -0.28781539778E+02 -0.76548822052E+01 -0.31569747928E+02  0.47787271460E+02  0.20000001895E+02 0.  0.
        -12    1    1    2    0    0  0.28781539778E+02  0.76548822052E+01  0.31569747928E+02  0.43400728540E+02  0.00000000000E+00 0.  1.
         11    1    3    3    0    0 -0.11925249280E+02 -0.12317830012E+02 -0.20071923211E+02  0.26397397755E+02  0.51100000000E-03 0. -1.
        -11    1    3    3    0    0 -0.18946579883E+01  0.21226341017E+01 -0.14952508318E+01  0.32141997034E+01  0.51100000000E-03 0.  1.
         12    1    3    3    0    0 -0.14961632510E+02  0.25403137053E+01 -0.10002573886E+02  0.18175674002E+02  0.00000000000E+00 0. -1.
</event>
<event>
 7    1  0.1322363E-009  0.4778727E+02  0.7816164E-02  0.1312668E+00
        -11   -1    0    0    0    0  0.00000000000E+00  0.00000000000E+00  0.45593999997E+02  0.45594000000E+02  0.51100000000E-03 0.  1.
         11   -1    0    0    0    0 -0.00000000000E+00 -0.00000000000E+00 -0.45593999997E+02  0.45594000000E+02  0.51100000000E-03 0. -1.
    9900012    2    1    2    0    0  0.79908483044E+01 -0.30490701464E+02 -0.29834319349E+02  0.47787272547E+02  0.20000006850E+02 0.  0.
        -12    1    1    2    0    0 -0.79908483044E+01  0.30490701464E+02  0.29834319349E+02  0.43400727453E+02  0.00000000000E+00 0.  1.
         11    1    3    3    0    0 -0.36963734010E+01 -0.14754969193E+02 -0.16919025973E+02  0.22751389680E+02  0.51100000000E-03 0. -1.
        -11    1    3    3    0    0  0.38920102561E+01 -0.35184818027E+01  0.52204375087E+00  0.52725693897E+01  0.51100000000E-03 0.  1.
        -12    1    3    3    0    0  0.77952114492E+01 -0.12217250468E+02 -0.13437337127E+02  0.19763313478E+02  0.00000000000E+00 0.  1.
</event>
<event>
 7    1  0.1322363E-009  0.4778727E+02  0.7816164E-02  0.1312668E+00
        -11   -1    0    0    0    0  0.00000000000E+00  0.00000000000E+00  0.45593999997E+02  0.45594000000E+02  0.51100000000E-03 0. -1.
         11   -1    0    0    0    0 -0.00000000000E+00 -0.00000000000E+00 -0.45593999997E+02  0.45594000000E+02  0.51100000000E-03 0.  1.
    9900012    2    1    2    0    0 -0.34515514567E+02 -0.26074058915E+02 -0.35278818373E+01  0.47787271384E+02  0.20000001548E+02 0.  0.
        -12    1    1    2    0    0  0.34515514567E+02  0.26074058915E+02  0.35278818373E+01  0.43400728616E+02  0.00000000000E+00 0.  1.
         11    1    3    3    0    0 -0.35372068890E+01 -0.73751214716E+01  0.14124043247E+01  0.83005503152E+01  0.51100000000E-03 0. -1.
        -11    1    3    3    0    0 -0.10190808555E+02 -0.30587606632E+01 -0.79738980977E+01  0.13296302002E+02  0.51100000000E-03 0.  1.
        -12    1    3    3    0    0 -0.20787499124E+02 -0.15640176780E+02  0.30336119357E+01  0.26190419067E+02  0.00000000000E+00 0.  1.
</event>
<event>
 7    1  0.1322363E-009  0.4778727E+02  0.7816164E-02  0.1312668E+00
        -11   -1    0    0    0    0  0.00000000000E+00  0.00000000000E+00  0.45593999997E+02  0.45594000000E+02  0.51100000000E-03 0.  1.
         11   -1    0    0    0    0 -0.00000000000E+00 -0.00000000000E+00 -0.45593999997E+02  0.45594000000E+02  0.51100000000E-03 0. -1.
    9900012    2    1    2    0    0 -0.86259322126E+01  0.37999348619E+02 -0.19111933166E+02  0.47787271996E+02  0.20000004337E+02 0.  0.
        -12    1    1    2    0    0  0.86259322126E+01 -0.37999348619E+02  0.19111933166E+02  0.43400728004E+02  0.00000000000E+00 0.  1.
         11    1    3    3    0    0 -0.99379006540E+01  0.32978559975E+02 -0.12588283895E+02  0.36671680888E+02  0.51100000000E-03 0. -1.
        -11    1    3    3    0    0  0.39758661772E+00  0.46469265323E+01 -0.80464735196E+01  0.93004159949E+01  0.51100000000E-03 0.  1.
        -12    1    3    3    0    0  0.91438182369E+00  0.37386211130E+00  0.15228242493E+01  0.18151751133E+01  0.00000000000E+00 0.  1.
</event>
<event>
 7    1  0.1322363E-009  0.4778727E+02  0.7816164E-02  0.1312668E+00
        -11   -1    0    0    0    0  0.00000000000E+00  0.00000000000E+00  0.45593999997E+02  0.45594000000E+02  0.51100000000E-03 0. -1.
         11   -1    0    0    0    0 -0.00000000000E+00 -0.00000000000E+00 -0.45593999997E+02  0.45594000000E+02  0.51100000000E-03 0.  1.
    9900012    2    1    2    0    0 -0.70767283429E+01 -0.41085634583E+02  0.12062932591E+02  0.47787265031E+02  0.19999972583E+02 0.  0.
        -12    1    1    2    0    0  0.70767283429E+01  0.41085634583E+02 -0.12062932591E+02  0.43400734969E+02  0.00000000000E+00 0.  1.
         11    1    3    3    0    0 -0.56025616911E+00 -0.27371678500E+02  0.36294647108E+01  0.27616945618E+02  0.51100000000E-03 0. -1.
        -11    1    3    3    0    0 -0.78818353017E+01 -0.85723211532E+01  0.19889157320E+01  0.11813712529E+02  0.51100000000E-03 0.  1.
        -12    1    3    3    0    0  0.13653631279E+01 -0.51416349294E+01  0.64445521485E+01  0.83566068840E+01  0.00000000000E+00 0.  1.
</event>
<event>
 7    1  0.1357642E-009  0.4778727E+02  0.7816164E-02  0.1312668E+00
        -11   -1    0    0    0    0  0.00000000000E+00  0.00000000000E+00  0.45593999997E+02  0.45594000000E+02  0.51100000000E-03 0.  1.
         11   -1    0    0    0    0 -0.00000000000E+00 -0.00000000000E+00 -0.45593999997E+02  0.45594000000E+02  0.51100000000E-03 0. -1.
    9900012    2    1    2    0    0 -0.23447214078E+02 -0.23206539308E+02 -0.28201204664E+02  0.47787271214E+02  0.20000000772E+02 0.  0.
        -12    1    1    2    0    0  0.23447214078E+02  0.23206539308E+02  0.28201204664E+02  0.43400728786E+02  0.00000000000E+00 0.  1.
         11    1    3    3    0    0 -0.16823738766E+02 -0.13299494254E+02 -0.24997714205E+02  0.32936308980E+02  0.51100000000E-03 0. -1.
        -11    1    3    3    0    0  0.15320916369E+01 -0.31628626092E+01 -0.23626155012E+01  0.42347322154E+01  0.51100000000E-03 0.  1.
         12    1    3    3    0    0 -0.81555669489E+01 -0.67441824445E+01 -0.84087495777E+00  0.10616230018E+02  0.00000000000E+00 0. -1.
</event>
<event>
 7    1  0.1322363E-009  0.4778727E+02  0.7816164E-02  0.1312668E+00
        -11   -1    0    0    0    0  0.00000000000E+00  0.00000000000E+00  0.45593999997E+02  0.45594000000E+02  0.51100000000E-03 0.  1.
         11   -1    0    0    0    0 -0.00000000000E+00 -0.00000000000E+00 -0.45593999997E+02  0.45594000000E+02  0.51100000000E-03 0. -1.
    9900012    2    1    2    0    0  0.35314794790E+02 -0.42235542956E+01 -0.24872679079E+02  0.47787270669E+02  0.19999998288E+02 0.  0.
        -12    1    1    2    0    0 -0.35314794790E+02  0.42235542956E+01  0.24872679079E+02  0.43400729331E+02  0.00000000000E+00 0.  1.
         11    1    3    3    0    0  0.95895353350E+01 -0.39765600928E+01 -0.60710388716E+01  0.12026210183E+02  0.51100000000E-03 0. -1.
        -11    1    3    3    0    0  0.14887523172E+02 -0.40260868474E+01 -0.22005186859E+01  0.15578510977E+02  0.51100000000E-03 0.  1.
         12    1    3    3    0    0  0.10837736283E+02  0.37790926447E+01 -0.16601121521E+02  0.20182549510E+02  0.00000000000E+00 0. -1.
</event>
<event>
 7    1  0.1322363E-009  0.4778728E+02  0.7816164E-02  0.1312668E+00
        -11   -1    0    0    0    0  0.00000000000E+00  0.00000000000E+00  0.45593999997E+02  0.45594000000E+02  0.51100000000E-03 0.  1.
         11   -1    0    0    0    0 -0.00000000000E+00 -0.00000000000E+00 -0.45593999997E+02  0.45594000000E+02  0.51100000000E-03 0. -1.
    9900012    2    1    2    0    0 -0.22414438032E+02  0.15582039900E+02 -0.33740410433E+02  0.47787282311E+02  0.20000051368E+02 0.  0.
        -12    1    1    2    0    0  0.22414438032E+02 -0.15582039900E+02  0.33740410433E+02  0.43400717689E+02  0.00000000000E+00 0.  1.
         11    1    3    3    0    0 -0.23748045107E+02  0.15817822389E+02 -0.30858287274E+02  0.42028645532E+02  0.51100000000E-03 0. -1.
        -11    1    3    3    0    0  0.17562288633E+01  0.19500051869E+01 -0.22162681090E+01  0.34349242555E+01  0.51100000000E-03 0.  1.
        -12    1    3    3    0    0 -0.42262178784E+00 -0.21857876762E+01 -0.66585505035E+00  0.23237125229E+01  0.00000000000E+00 0.  1.
</event>
<event>
 7    1  0.1322363E-009  0.4778727E+02  0.7816164E-02  0.1312668E+00
        -11   -1    0    0    0    0  0.00000000000E+00  0.00000000000E+00  0.45593999997E+02  0.45594000000E+02  0.51100000000E-03 0.  1.
         11   -1    0    0    0    0 -0.00000000000E+00 -0.00000000000E+00 -0.45593999997E+02  0.45594000000E+02  0.51100000000E-03 0. -1.
    9900012    2    1    2    0    0 -0.30840045588E+02 -0.30523866873E+02  0.89898289384E+00  0.47787273843E+02  0.20000012759E+02 0.  0.
        -12    1    1    2    0    0  0.30840045588E+02  0.30523866873E+02 -0.89898289384E+00  0.43400726157E+02  0.00000000000E+00 0.  1.
         11    1    3    3    0    0  0.47363283891E+00 -0.20243432549E+01 -0.99691999954E+00  0.23056763490E+01  0.51100000000E-03 0. -1.
        -11    1    3    3    0    0 -0.22228373040E+02 -0.13869979139E+02  0.76999597691E+01  0.27308721501E+02  0.51100000000E-03 0.  1.
         12    1    3    3    0    0 -0.90853053873E+01 -0.14629544479E+02 -0.58040568757E+01  0.18172875993E+02  0.00000000000E+00 0. -1.
</event>
<event>
 7    1  0.1322363E-009  0.4778727E+02  0.7816164E-02  0.1312668E+00
        -11   -1    0    0    0    0  0.00000000000E+00  0.00000000000E+00  0.45593999997E+02  0.45594000000E+02  0.51100000000E-03 0. -1.
         11   -1    0    0    0    0 -0.00000000000E+00 -0.00000000000E+00 -0.45593999997E+02  0.45594000000E+02  0.51100000000E-03 0.  1.
    9900012    2    1    2    0    0 -0.17529742464E+02  0.33280715385E+02  0.21650064476E+02  0.47787272135E+02  0.20000004972E+02 0.  0.
        -12    1    1    2    0    0  0.17529742464E+02 -0.33280715385E+02 -0.21650064476E+02  0.43400727865E+02  0.00000000000E+00 0.  1.
         11    1    3    3    0    0 -0.34878596672E+01  0.67030953114E+01  0.85758246007E+01  0.11429847753E+02  0.51100000000E-03 0. -1.
        -11    1    3    3    0    0 -0.18297181652E+01  0.15403913889E+02  0.41306364957E+00  0.15517701295E+02  0.51100000000E-03 0.  1.
        -12    1    3    3    0    0 -0.12212164632E+02  0.11173706185E+02  0.12661176226E+02  0.20839723087E+02  0.00000000000E+00 0.  1.
</event>
<event>
 7    1  0.1322363E-009  0.4778727E+02  0.7816164E-02  0.1312668E+00
        -11   -1    0    0    0    0  0.00000000000E+00  0.00000000000E+00  0.45593999997E+02  0.45594000000E+02  0.51100000000E-03 0.  1.
         11   -1    0    0    0    0 -0.00000000000E+00 -0.00000000000E+00 -0.45593999997E+02  0.45594000000E+02  0.51100000000E-03 0. -1.
    9900012    2    1    2    0    0 -0.24526699016E+02  0.16251469937E+02 -0.31905395019E+02  0.47787268773E+02  0.19999989642E+02 0.  0.
        -12    1    1    2    0    0  0.24526699016E+02 -0.16251469937E+02  0.31905395019E+02  0.43400731227E+02  0.00000000000E+00 0.  1.
         11    1    3    3    0    0 -0.10477819601E+02  0.16650092007E+01 -0.80008394637E+01  0.13287979215E+02  0.51100000000E-03 0. -1.
        -11    1    3    3    0    0 -0.55532252883E+01 -0.22158480653E+01 -0.68880348183E+01  0.91210370940E+01  0.51100000000E-03 0.  1.
         12    1    3    3    0    0 -0.84956541266E+01  0.16802308802E+02 -0.17016520738E+02  0.25378252464E+02  0.00000000000E+00 0. -1.
</event>
<event>
 7    1  0.1322363E-009  0.4778727E+02  0.7816164E-02  0.1312668E+00
        -11   -1    0    0    0    0  0.00000000000E+00  0.00000000000E+00  0.45593999997E+02  0.45594000000E+02  0.51100000000E-03 0.  1.
         11   -1    0    0    0    0 -0.00000000000E+00 -0.00000000000E+00 -0.45593999997E+02  0.45594000000E+02  0.51100000000E-03 0. -1.
    9900012    2    1    2    0    0  0.16245367409E+02 -0.18391726031E+02 -0.35797425264E+02  0.47787271848E+02  0.20000003662E+02 0.  0.
        -12    1    1    2    0    0 -0.16245367409E+02  0.18391726031E+02  0.35797425264E+02  0.43400728152E+02  0.00000000000E+00 0.  1.
         11    1    3    3    0    0  0.33974876930E+01 -0.86833832003E+01 -0.17802287682E+02  0.20096405484E+02  0.51100000000E-03 0. -1.
        -11    1    3    3    0    0  0.10766981732E+02  0.32734449856E+00 -0.85398887054E+01  0.13746444973E+02  0.51100000000E-03 0.  1.
         12    1    3    3    0    0  0.20808979834E+01 -0.10035687329E+02 -0.94552488768E+01  0.13944421390E+02  0.00000000000E+00 0. -1.
</event>
<event>
 7    1  0.1322363E-009  0.4778728E+02  0.7816164E-02  0.1312668E+00
        -11   -1    0    0    0    0  0.00000000000E+00  0.00000000000E+00  0.45593999997E+02  0.45594000000E+02  0.51100000000E-03 0.  1.
         11   -1    0    0    0    0 -0.00000000000E+00 -0.00000000000E+00 -0.45593999997E+02  0.45594000000E+02  0.51100000000E-03 0. -1.
    9900012    2    1    2    0    0  0.36199729009E+02 -0.54728693249E+00  0.23935377211E+02  0.47787283582E+02  0.20000057166E+02 0.  0.
        -12    1    1    2    0    0 -0.36199729009E+02  0.54728693249E+00 -0.23935377211E+02  0.43400716418E+02  0.00000000000E+00 0.  1.
         11    1    3    3    0    0  0.40993307742E+01  0.42400364052E+00  0.86066812954E+01  0.95424973181E+01  0.51100000000E-03 0. -1.
        -11    1    3    3    0    0  0.12722185852E+02  0.46014970907E+01  0.11143603512E+01  0.13574593460E+02  0.51100000000E-03 0.  1.
         12    1    3    3    0    0  0.19378212382E+02 -0.55727876637E+01  0.14214335565E+02  0.24670192805E+02  0.00000000000E+00 0. -1.
</event>
<event>
 7    1  0.1322363E-009  0.4778727E+02  0.7816164E-02  0.1312668E+00
        -11   -1    0    0    0    0  0.00000000000E+00  0.00000000000E+00  0.45593999997E+02  0.45594000000E+02  0.51100000000E-03 0. -1.
         11   -1    0    0    0    0 -0.00000000000E+00 -0.00000000000E+00 -0.45593999997E+02  0.45594000000E+02  0.51100000000E-03 0.  1.
    9900012    2    1    2    0    0 -0.17355668559E+02  0.38937351981E+02  0.81416685477E+01  0.47787269855E+02  0.19999994575E+02 0.  0.
        -12    1    1    2    0    0  0.17355668559E+02 -0.38937351981E+02 -0.81416685477E+01  0.43400730145E+02  0.00000000000E+00 0.  1.
         11    1    3    3    0    0 -0.20291325706E+02  0.26935071363E+02  0.85463437511E+01  0.34789020681E+02  0.51100000000E-03 0. -1.
        -11    1    3    3    0    0  0.58346462681E-01  0.34141647444E+01 -0.17576148537E+01  0.38404603170E+01  0.51100000000E-03 0.  1.
         12    1    3    3    0    0  0.28773106842E+01  0.85881158740E+01  0.13529396502E+01  0.91577888562E+01  0.00000000000E+00 0. -1.
</event>
<event>
 7    1  0.1322363E-009  0.4778727E+02  0.7816164E-02  0.1312668E+00
        -11   -1    0    0    0    0  0.00000000000E+00  0.00000000000E+00  0.45593999997E+02  0.45594000000E+02  0.51100000000E-03 0.  1.
         11   -1    0    0    0    0 -0.00000000000E+00 -0.00000000000E+00 -0.45593999997E+02  0.45594000000E+02  0.51100000000E-03 0. -1.
    9900012    2    1    2    0    0 -0.26674202988E+02 -0.12295161897E+02 -0.31952137153E+02  0.47787272128E+02  0.20000004941E+02 0.  0.
        -12    1    1    2    0    0  0.26674202988E+02  0.12295161897E+02  0.31952137153E+02  0.43400727872E+02  0.00000000000E+00 0.  1.
         11    1    3    3    0    0 -0.57362499913E+01  0.47940507088E+01 -0.27735434881E+01  0.79737086668E+01  0.51100000000E-03 0. -1.
        -11    1    3    3    0    0 -0.90942332321E+01 -0.84710038721E+01 -0.13977599109E+02  0.18703910335E+02  0.51100000000E-03 0.  1.
         12    1    3    3    0    0 -0.11843719765E+02 -0.86182087339E+01 -0.15200994556E+02  0.21109653127E+02  0.00000000000E+00 0. -1.
</event>
<event>
 7    1  0.1322363E-009  0.4778728E+02  0.7816164E-02  0.1312668E+00
        -11   -1    0    0    0    0  0.00000000000E+00  0.00000000000E+00  0.45593999997E+02  0.45594000000E+02  0.51100000000E-03 0.  1.
         11   -1    0    0    0    0 -0.00000000000E+00 -0.00000000000E+00 -0.45593999997E+02  0.45594000000E+02  0.51100000000E-03 0. -1.
    9900012    2    1    2    0    0  0.13710944715E+02 -0.22314764682E+01 -0.41117549915E+02  0.47787281075E+02  0.20000045732E+02 0.  0.
        -12    1    1    2    0    0 -0.13710944715E+02  0.22314764682E+01  0.41117549915E+02  0.43400718925E+02  0.00000000000E+00 0.  1.
         11    1    3    3    0    0  0.17600548191E+01  0.66399662979E+01 -0.22438889094E+02  0.23466799728E+02  0.51100000000E-03 0. -1.
        -11    1    3    3    0    0  0.47265943386E+01 -0.15328160883E+01 -0.39439237381E+01  0.63438753074E+01  0.51100000000E-03 0.  1.
         12    1    3    3    0    0  0.72242955574E+01 -0.73386266777E+01 -0.14734737083E+02  0.17976606040E+02  0.00000000000E+00 0. -1.
</event>
<event>
 7    1  0.1322363E-009  0.4778727E+02  0.7816164E-02  0.1312668E+00
        -11   -1    0    0    0    0  0.00000000000E+00  0.00000000000E+00  0.45593999997E+02  0.45594000000E+02  0.51100000000E-03 0. -1.
         11   -1    0    0    0    0 -0.00000000000E+00 -0.00000000000E+00 -0.45593999997E+02  0.45594000000E+02  0.51100000000E-03 0.  1.
    9900012    2    1    2    0    0  0.18083362941E+02 -0.37675133312E+02  0.11713236196E+02  0.47787267431E+02  0.19999983527E+02 0.  0.
        -12    1    1    2    0    0 -0.18083362941E+02  0.37675133312E+02 -0.11713236196E+02  0.43400732569E+02  0.00000000000E+00 0.  1.
         11    1    3    3    0    0  0.11938419750E+02 -0.13705249822E+02  0.52214816069E+00  0.18183299420E+02  0.51100000000E-03 0. -1.
        -11    1    3    3    0    0  0.14476443002E+01  0.95043016717E+00 -0.30891969231E+00  0.17590972571E+01  0.51100000000E-03 0.  1.
         12    1    3    3    0    0  0.46972988904E+01 -0.24920313656E+02  0.11500007727E+02  0.27844870754E+02  0.00000000000E+00 0. -1.
</event>
<event>
 7    1  0.1322363E-009  0.4778727E+02  0.7816164E-02  0.1312668E+00
        -11   -1    0    0    0    0  0.00000000000E+00  0.00000000000E+00  0.45593999997E+02  0.45594000000E+02  0.51100000000E-03 0. -1.
         11   -1    0    0    0    0 -0.00000000000E+00 -0.00000000000E+00 -0.45593999997E+02  0.45594000000E+02  0.51100000000E-03 0.  1.
    9900012    2    1    2    0    0 -0.29685745077E+02 -0.48383666712E+01  0.31288503159E+02  0.47787266334E+02  0.19999978523E+02 0.  0.
        -12    1    1    2    0    0  0.29685745077E+02  0.48383666712E+01 -0.31288503159E+02  0.43400733666E+02  0.00000000000E+00 0.  1.
         11    1    3    3    0    0  0.11424087828E+01 -0.11179313879E+01 -0.17448301556E-01  0.15984908881E+01  0.51100000000E-03 0. -1.
        -11    1    3    3    0    0 -0.63723062480E+00  0.84723220364E+00 -0.11928570503E+01  0.15958613598E+01  0.51100000000E-03 0.  1.
         12    1    3    3    0    0 -0.30190923235E+02 -0.45676674869E+01  0.32498808511E+02  0.44592914086E+02  0.00000000000E+00 0. -1.
</event>
<event>
 7    1  0.1322363E-009  0.4778727E+02  0.7816164E-02  0.1312668E+00
        -11   -1    0    0    0    0  0.00000000000E+00  0.00000000000E+00  0.45593999997E+02  0.45594000000E+02  0.51100000000E-03 0. -1.
         11   -1    0    0    0    0 -0.00000000000E+00 -0.00000000000E+00 -0.45593999997E+02  0.45594000000E+02  0.51100000000E-03 0.  1.
    9900012    2    1    2    0    0 -0.76760865053E+01 -0.33767358783E+02  0.26162312533E+02  0.47787269357E+02  0.19999992308E+02 0.  0.
        -12    1    1    2    0    0  0.76760865053E+01  0.33767358783E+02 -0.26162312533E+02  0.43400730643E+02  0.00000000000E+00 0.  1.
         11    1    3    3    0    0 -0.94094165728E+01 -0.15386422021E+02  0.71144275086E+01  0.19387990661E+02  0.51100000000E-03 0. -1.
        -11    1    3    3    0    0  0.13069544745E+01 -0.14400887405E+01 -0.96868047635E+00  0.21726315162E+01  0.51100000000E-03 0.  1.
        -12    1    3    3    0    0  0.42637559310E+00 -0.16940848022E+02  0.20016565501E+02  0.26226647180E+02  0.00000000000E+00 0.  1.
</event>
<event>
 7    1  0.1322363E-009  0.4778724E+02  0.7816164E-02  0.1312668E+00
        -11   -1    0    0    0    0  0.00000000000E+00  0.00000000000E+00  0.45593999997E+02  0.45594000000E+02  0.51100000000E-03 0.  1.
         11   -1    0    0    0    0 -0.00000000000E+00 -0.00000000000E+00 -0.45593999997E+02  0.45594000000E+02  0.51100000000E-03 0. -1.
    9900012    2    1    2    0    0  0.34214845144E+02  0.10787269296E+02 -0.24425503749E+02  0.47787239172E+02  0.19999854680E+02 0.  0.
        -12    1    1    2    0    0 -0.34214845144E+02 -0.10787269296E+02  0.24425503749E+02  0.43400760828E+02  0.00000000000E+00 0.  1.
         11    1    3    3    0    0  0.10958936053E+01 -0.16567213254E+01 -0.34421251441E+01  0.39741582898E+01  0.51100000000E-03 0. -1.
        -11    1    3    3    0    0  0.16277311317E+02  0.96916928066E+01 -0.32836987989E+01  0.19226607897E+02  0.51100000000E-03 0.  1.
        -12    1    3    3    0    0  0.16841640221E+02  0.27522978147E+01 -0.17699679806E+02  0.24586472985E+02  0.00000000000E+00 0.  1.
</event>
<event>
 7    1  0.1322363E-009  0.4778727E+02  0.7816164E-02  0.1312668E+00
        -11   -1    0    0    0    0  0.00000000000E+00  0.00000000000E+00  0.45593999997E+02  0.45594000000E+02  0.51100000000E-03 0.  1.
         11   -1    0    0    0    0 -0.00000000000E+00 -0.00000000000E+00 -0.45593999997E+02  0.45594000000E+02  0.51100000000E-03 0. -1.
    9900012    2    1    2    0    0 -0.22398003266E+02  0.31400117504E+02 -0.19899380562E+02  0.47787271016E+02  0.19999999871E+02 0.  0.
        -12    1    1    2    0    0  0.22398003266E+02 -0.31400117504E+02  0.19899380562E+02  0.43400728984E+02  0.00000000000E+00 0.  1.
         11    1    3    3    0    0 -0.20624949390E+02  0.13032722298E+02 -0.10388225087E+02  0.26517081449E+02  0.51100000000E-03 0. -1.
        -11    1    3    3    0    0  0.10832019692E+01  0.29611788062E+01 -0.28286669219E+01  0.42359489190E+01  0.51100000000E-03 0.  1.
         12    1    3    3    0    0 -0.28562558452E+01  0.15406216400E+02 -0.66824885530E+01  0.17034240648E+02  0.00000000000E+00 0. -1.
</event>
<event>
 7    1  0.1322363E-009  0.4778727E+02  0.7816164E-02  0.1312668E+00
        -11   -1    0    0    0    0  0.00000000000E+00  0.00000000000E+00  0.45593999997E+02  0.45594000000E+02  0.51100000000E-03 0.  1.
         11   -1    0    0    0    0 -0.00000000000E+00 -0.00000000000E+00 -0.45593999997E+02  0.45594000000E+02  0.51100000000E-03 0. -1.
    9900012    2    1    2    0    0  0.11949081801E+02  0.31248614846E+02 -0.27647177982E+02  0.47787274937E+02  0.20000017746E+02 0.  0.
        -12    1    1    2    0    0 -0.11949081801E+02 -0.31248614846E+02  0.27647177982E+02  0.43400725063E+02  0.00000000000E+00 0.  1.
         11    1    3    3    0    0  0.66240613000E+01  0.12095728034E+02 -0.70724775748E+01  0.15498540708E+02  0.51100000000E-03 0. -1.
        -11    1    3    3    0    0  0.94160462758E+01  0.17826320193E+02 -0.14446629656E+02  0.24802111358E+02  0.51100000000E-03 0.  1.
        -12    1    3    3    0    0 -0.40910257747E+01  0.13265666186E+01 -0.61280707508E+01  0.74866228708E+01  0.00000000000E+00 0.  1.
</event>
<event>
 7    1  0.1322363E-009  0.4778728E+02  0.7816164E-02  0.1312668E+00
        -11   -1    0    0    0    0  0.00000000000E+00  0.00000000000E+00  0.45593999997E+02  0.45594000000E+02  0.51100000000E-03 0.  1.
         11   -1    0    0    0    0 -0.00000000000E+00 -0.00000000000E+00 -0.45593999997E+02  0.45594000000E+02  0.51100000000E-03 0. -1.
    9900012    2    1    2    0    0  0.34537414821E+02 -0.18351275778E+02 -0.18815424374E+02  0.47787279504E+02  0.20000038569E+02 0.  0.
        -12    1    1    2    0    0 -0.34537414821E+02  0.18351275778E+02  0.18815424374E+02  0.43400720496E+02  0.00000000000E+00 0.  1.
         11    1    3    3    0    0  0.12417483039E+02 -0.40309457189E+01 -0.14838358960E+02  0.19764091310E+02  0.51100000000E-03 0. -1.
        -11    1    3    3    0    0 -0.80871592073E+00 -0.30748320723E+00 -0.19298625679E+00  0.88645999324E+00  0.51100000000E-03 0.  1.
        -12    1    3    3    0    0  0.22928647703E+02 -0.14012846852E+02 -0.37840791580E+01  0.27136728201E+02  0.00000000000E+00 0.  1.
</event>
<event>
 7    1  0.1322363E-009  0.4778727E+02  0.7816164E-02  0.1312668E+00
        -11   -1    0    0    0    0  0.00000000000E+00  0.00000000000E+00  0.45593999997E+02  0.45594000000E+02  0.51100000000E-03 0. -1.
         11   -1    0    0    0    0 -0.00000000000E+00 -0.00000000000E+00 -0.45593999997E+02  0.45594000000E+02  0.51100000000E-03 0.  1.
    9900012    2    1    2    0    0 -0.54263491475E+00  0.16404460195E+02  0.40177385060E+02  0.47787273771E+02  0.20000012433E+02 0.  0.
        -12    1    1    2    0    0  0.54263491475E+00 -0.16404460195E+02 -0.40177385060E+02  0.43400726229E+02  0.00000000000E+00 0.  1.
         11    1    3    3    0    0  0.20796707689E+01 -0.29299105760E-01  0.72938211425E+01  0.75845709216E+01  0.51100000000E-03 0. -1.
        -11    1    3    3    0    0 -0.70468417996E+01  0.16098852000E+02  0.20247972418E+02  0.26810658372E+02  0.51100000000E-03 0.  1.
        -12    1    3    3    0    0  0.44245361160E+01  0.33490730091E+00  0.12635591499E+02  0.13392044477E+02  0.00000000000E+00 0.  1.
</event>
<event>
 7    1  0.1322363E-009  0.4778727E+02  0.7816164E-02  0.1312668E+00
        -11   -1    0    0    0    0  0.00000000000E+00  0.00000000000E+00  0.45593999997E+02  0.45594000000E+02  0.51100000000E-03 0.  1.
         11   -1    0    0    0    0 -0.00000000000E+00 -0.00000000000E+00 -0.45593999997E+02  0.45594000000E+02  0.51100000000E-03 0. -1.
    9900012    2    1    2    0    0 -0.15892896652E+02 -0.16604300621E+02 -0.36814892607E+02  0.47787270966E+02  0.19999999641E+02 0.  0.
        -12    1    1    2    0    0  0.15892896652E+02  0.16604300621E+02  0.36814892607E+02  0.43400729034E+02  0.00000000000E+00 0.  1.
         11    1    3    3    0    0 -0.13306625891E+02 -0.85870779871E+01 -0.21107357994E+02  0.26387966248E+02  0.51100000000E-03 0. -1.
        -11    1    3    3    0    0 -0.46775466520E+00  0.90314697227E+00 -0.11084784909E+02  0.11131348778E+02  0.51100000000E-03 0.  1.
         12    1    3    3    0    0 -0.21185160948E+01 -0.89203696057E+01 -0.46227497032E+01  0.10267955939E+02  0.00000000000E+00 0. -1.
</event>
<event>
 7    1  0.1322363E-009  0.4778728E+02  0.7816164E-02  0.1312668E+00
        -11   -1    0    0    0    0  0.00000000000E+00  0.00000000000E+00  0.45593999997E+02  0.45594000000E+02  0.51100000000E-03 0. -1.
         11   -1    0    0    0    0 -0.00000000000E+00 -0.00000000000E+00 -0.45593999997E+02  0.45594000000E+02  0.51100000000E-03 0.  1.
    9900012    2    1    2    0    0 -0.25785337433E+02 -0.18432980070E+02  0.29647334353E+02  0.47787276331E+02  0.20000024101E+02 0.  0.
        -12    1    1    2    0    0  0.25785337433E+02  0.18432980070E+02 -0.29647334353E+02  0.43400723669E+02  0.00000000000E+00 0.  1.
         11    1    3    3    0    0  0.18855652872E+01 -0.38096171275E+01  0.43496272021E+01  0.60817592988E+01  0.51100000000E-03 0. -1.
        -11    1    3    3    0    0 -0.14781371359E+02 -0.78695491753E+01  0.20308699643E+02  0.26322272412E+02  0.51100000000E-03 0.  1.
        -12    1    3    3    0    0 -0.12889531361E+02 -0.67538137673E+01  0.49890075073E+01  0.15383244619E+02  0.00000000000E+00 0.  1.
</event>
<event>
 7    1  0.1322363E-009  0.4778727E+02  0.7816164E-02  0.1312668E+00
        -11   -1    0    0    0    0  0.00000000000E+00  0.00000000000E+00  0.45593999997E+02  0.45594000000E+02  0.51100000000E-03 0. -1.
         11   -1    0    0    0    0 -0.00000000000E+00 -0.00000000000E+00 -0.45593999997E+02  0.45594000000E+02  0.51100000000E-03 0.  1.
    9900012    2    1    2    0    0 -0.98831299335E+01 -0.40048608424E+02  0.13492815508E+02  0.47787270003E+02  0.19999995250E+02 0.  0.
        -12    1    1    2    0    0  0.98831299335E+01  0.40048608424E+02 -0.13492815508E+02  0.43400729997E+02  0.00000000000E+00 0.  1.
         11    1    3    3    0    0 -0.19927899263E+01 -0.73594528652E+01  0.47261273195E+01  0.89704536043E+01  0.51100000000E-03 0. -1.
        -11    1    3    3    0    0 -0.48469644830E+01 -0.69322394491E+01  0.96922157722E+01  0.12864216079E+02  0.51100000000E-03 0.  1.
         12    1    3    3    0    0 -0.30433755243E+01 -0.25756916110E+02 -0.92552758342E+00  0.25952600320E+02  0.00000000000E+00 0. -1.
</event>
<event>
 7    1  0.1322363E-009  0.4778728E+02  0.7816164E-02  0.1312668E+00
        -11   -1    0    0    0    0  0.00000000000E+00  0.00000000000E+00  0.45593999997E+02  0.45594000000E+02  0.51100000000E-03 0.  1.
         11   -1    0    0    0    0 -0.00000000000E+00 -0.00000000000E+00 -0.45593999997E+02  0.45594000000E+02  0.51100000000E-03 0. -1.
    9900012    2    1    2    0    0  0.23981852457E+02  0.70959683731E+00 -0.36166141308E+02  0.47787279360E+02  0.20000037915E+02 0.  0.
        -12    1    1    2    0    0 -0.23981852457E+02 -0.70959683731E+00  0.36166141308E+02  0.43400720640E+02  0.00000000000E+00 0.  1.
         11    1    3    3    0    0  0.36045726094E+01 -0.41865822993E+01 -0.16170431336E+02  0.17088103022E+02  0.51100000000E-03 0. -1.
        -11    1    3    3    0    0  0.80899590311E+01  0.67337104974E+01 -0.11815968802E+02  0.15824266592E+02  0.51100000000E-03 0.  1.
        -12    1    3    3    0    0  0.12287320816E+02 -0.18375313607E+01 -0.81797411706E+01  0.14874909746E+02  0.00000000000E+00 0.  1.
</event>
<event>
 7    1  0.1322363E-009  0.4778727E+02  0.7816164E-02  0.1312668E+00
        -11   -1    0    0    0    0  0.00000000000E+00  0.00000000000E+00  0.45593999997E+02  0.45594000000E+02  0.51100000000E-03 0.  1.
         11   -1    0    0    0    0 -0.00000000000E+00 -0.00000000000E+00 -0.45593999997E+02  0.45594000000E+02  0.51100000000E-03 0. -1.
    9900012    2    1    2    0    0 -0.34699089697E+02  0.23451274647E+02 -0.11385699974E+02  0.47787271063E+02  0.20000000083E+02 0.  0.
        -12    1    1    2    0    0  0.34699089697E+02 -0.23451274647E+02  0.11385699974E+02  0.43400728937E+02  0.00000000000E+00 0.  1.
         11    1    3    3    0    0 -0.89896716403E+01  0.57563263849E+01 -0.10827365419E+02  0.15204648362E+02  0.51100000000E-03 0.  1.
        -11    1    3    3    0    0 -0.19966294499E+02  0.10688983466E+02 -0.37939600307E+01  0.22963044583E+02  0.51100000000E-03 0. -1.
        -12    1    3    3    0    0 -0.57431235581E+01  0.70059647962E+01  0.32356254759E+01  0.96195781170E+01  0.00000000000E+00 0.  1.
</event>
<event>
 7    1  0.1322363E-009  0.4778727E+02  0.7816164E-02  0.1312668E+00
        -11   -1    0    0    0    0  0.00000000000E+00  0.00000000000E+00  0.45593999997E+02  0.45594000000E+02  0.51100000000E-03 0. -1.
         11   -1    0    0    0    0 -0.00000000000E+00 -0.00000000000E+00 -0.45593999997E+02  0.45594000000E+02  0.51100000000E-03 0.  1.
    9900012    2    1    2    0    0  0.26845876278E+02  0.23396531534E+02  0.24809773209E+02  0.47787267199E+02  0.19999982466E+02 0.  0.
        -12    1    1    2    0    0 -0.26845876278E+02 -0.23396531534E+02 -0.24809773209E+02  0.43400732801E+02  0.00000000000E+00 0.  1.
         11    1    3    3    0    0  0.18718402954E+02  0.13996834470E+02  0.14397655625E+02  0.27451456648E+02  0.51100000000E-03 0. -1.
        -11    1    3    3    0    0  0.85110742802E+01  0.11729313871E+02  0.10618620508E+02  0.17965808944E+02  0.51100000000E-03 0.  1.
        -12    1    3    3    0    0 -0.38360095603E+00 -0.23296168061E+01 -0.20650292373E+00  0.23700016064E+01  0.00000000000E+00 0.  1.
</event>
<event>
 7    1  0.1322363E-009  0.4778727E+02  0.7816164E-02  0.1312668E+00
        -11   -1    0    0    0    0  0.00000000000E+00  0.00000000000E+00  0.45593999997E+02  0.45594000000E+02  0.51100000000E-03 0.  1.
         11   -1    0    0    0    0 -0.00000000000E+00 -0.00000000000E+00 -0.45593999997E+02  0.45594000000E+02  0.51100000000E-03 0. -1.
    9900012    2    1    2    0    0 -0.19669811015E+02 -0.38646988506E+02  0.17698187580E+01  0.47787269079E+02  0.19999991041E+02 0.  0.
        -12    1    1    2    0    0  0.19669811015E+02  0.38646988506E+02 -0.17698187580E+01  0.43400730921E+02  0.00000000000E+00 0.  1.
         11    1    3    3    0    0 -0.17063126515E+02 -0.29142225595E+02  0.13927357881E+01  0.33798806374E+02  0.51100000000E-03 0. -1.
        -11    1    3    3    0    0 -0.12896467091E+01 -0.80806381619E+01  0.45671533308E+01  0.93711680994E+01  0.51100000000E-03 0.  1.
         12    1    3    3    0    0 -0.13170377914E+01 -0.14241247494E+01 -0.41900703609E+01  0.46172946056E+01  0.00000000000E+00 0. -1.
</event>
<event>
 7    1  0.1322363E-009  0.4778727E+02  0.7816164E-02  0.1312668E+00
        -11   -1    0    0    0    0  0.00000000000E+00  0.00000000000E+00  0.45593999997E+02  0.45594000000E+02  0.51100000000E-03 0.  1.
         11   -1    0    0    0    0 -0.00000000000E+00 -0.00000000000E+00 -0.45593999997E+02  0.45594000000E+02  0.51100000000E-03 0. -1.
    9900012    2    1    2    0    0  0.65643563099E+01 -0.41824593546E+02 -0.95517523801E+01  0.47787269907E+02  0.19999994816E+02 0.  0.
        -12    1    1    2    0    0 -0.65643563099E+01  0.41824593546E+02  0.95517523801E+01  0.43400730093E+02  0.00000000000E+00 0.  1.
         11    1    3    3    0    0  0.36858912196E+01 -0.16331093437E+02 -0.84034113435E+01  0.18732531314E+02  0.51100000000E-03 0. -1.
        -11    1    3    3    0    0  0.68693970519E+01 -0.76486173743E+01  0.20728967222E+01  0.10487462261E+02  0.51100000000E-03 0.  1.
        -12    1    3    3    0    0 -0.39909319616E+01 -0.17844882734E+02 -0.32212377588E+01  0.18567276333E+02  0.00000000000E+00 0.  1.
</event>
<event>
 7    1  0.1322363E-009  0.4778727E+02  0.7816164E-02  0.1312668E+00
        -11   -1    0    0    0    0  0.00000000000E+00  0.00000000000E+00  0.45593999997E+02  0.45594000000E+02  0.51100000000E-03 0.  1.
         11   -1    0    0    0    0 -0.00000000000E+00 -0.00000000000E+00 -0.45593999997E+02  0.45594000000E+02  0.51100000000E-03 0. -1.
    9900012    2    1    2    0    0 -0.19143096107E+02  0.25018657838E+02 -0.29853503550E+02  0.47787273707E+02  0.20000012140E+02 0.  0.
        -12    1    1    2    0    0  0.19143096107E+02 -0.25018657838E+02  0.29853503550E+02  0.43400726293E+02  0.00000000000E+00 0.  1.
         11    1    3    3    0    0 -0.94720074665E+00  0.39602666582E+00 -0.43133410265E+01  0.44338400339E+01  0.51100000000E-03 0. -1.
        -11    1    3    3    0    0 -0.51371604614E+01 -0.18862559621E+01 -0.36509426656E+01  0.65785835686E+01  0.51100000000E-03 0.  1.
         12    1    3    3    0    0 -0.13058734899E+02  0.26508887134E+02 -0.21889219858E+02  0.36774850105E+02  0.00000000000E+00 0. -1.
</event>
<event>
 7    1  0.1322363E-009  0.4778727E+02  0.7816164E-02  0.1312668E+00
        -11   -1    0    0    0    0  0.00000000000E+00  0.00000000000E+00  0.45593999997E+02  0.45594000000E+02  0.51100000000E-03 0.  1.
         11   -1    0    0    0    0 -0.00000000000E+00 -0.00000000000E+00 -0.45593999997E+02  0.45594000000E+02  0.51100000000E-03 0. -1.
    9900012    2    1    2    0    0  0.27503751119E+02 -0.33161422448E+02 -0.52428158287E+01  0.47787269796E+02  0.19999994309E+02 0.  0.
        -12    1    1    2    0    0 -0.27503751119E+02  0.33161422448E+02  0.52428158287E+01  0.43400730204E+02  0.00000000000E+00 0.  1.
         11    1    3    3    0    0  0.24527587459E+02 -0.31713947813E+02 -0.30401291403E+01  0.40207206044E+02  0.51100000000E-03 0. -1.
        -11    1    3    3    0    0  0.13711384580E+00 -0.29789873099E+01 -0.30284500512E+01  0.42502559421E+01  0.51100000000E-03 0.  1.
        -12    1    3    3    0    0  0.28390498140E+01  0.15315126744E+01  0.82576336281E+00  0.33298078097E+01  0.00000000000E+00 0.  1.
</event>
<event>
 7    1  0.1322363E-009  0.4778727E+02  0.7816164E-02  0.1312668E+00
        -11   -1    0    0    0    0  0.00000000000E+00  0.00000000000E+00  0.45593999997E+02  0.45594000000E+02  0.51100000000E-03 0.  1.
         11   -1    0    0    0    0 -0.00000000000E+00 -0.00000000000E+00 -0.45593999997E+02  0.45594000000E+02  0.51100000000E-03 0. -1.
    9900012    2    1    2    0    0 -0.45507584954E+00  0.18290222756E+02 -0.39355861823E+02  0.47787271868E+02  0.20000003756E+02 0.  0.
        -12    1    1    2    0    0  0.45507584954E+00 -0.18290222756E+02  0.39355861823E+02  0.43400728132E+02  0.00000000000E+00 0.  1.
         11    1    3    3    0    0 -0.34053478156E+01  0.99167615357E+01 -0.24543303240E+02  0.26689179218E+02  0.51100000000E-03 0. -1.
        -11    1    3    3    0    0 -0.14010724161E+01  0.89820285796E+01 -0.50658902823E+01  0.10406876858E+02  0.51100000000E-03 0.  1.
        -12    1    3    3    0    0  0.43513443821E+01 -0.60856735904E+00 -0.97466683009E+01  0.10691215793E+02  0.00000000000E+00 0.  1.
</event>
<event>
 7    1  0.1322363E-009  0.4778727E+02  0.7816164E-02  0.1312668E+00
        -11   -1    0    0    0    0  0.00000000000E+00  0.00000000000E+00  0.45593999997E+02  0.45594000000E+02  0.51100000000E-03 0. -1.
         11   -1    0    0    0    0 -0.00000000000E+00 -0.00000000000E+00 -0.45593999997E+02  0.45594000000E+02  0.51100000000E-03 0.  1.
    9900012    2    1    2    0    0 -0.30665206242E+02 -0.24364308392E+02  0.18698900768E+02  0.47787270891E+02  0.19999999300E+02 0.  0.
        -12    1    1    2    0    0  0.30665206242E+02  0.24364308392E+02 -0.18698900768E+02  0.43400729109E+02  0.00000000000E+00 0.  1.
         11    1    3    3    0    0 -0.85466612820E+01 -0.14935837714E+02  0.18673342282E+01  0.17309292437E+02  0.51100000000E-03 0. -1.
        -11    1    3    3    0    0 -0.29138891957E+01 -0.42933620015E+00  0.59538464500E+01  0.66425422565E+01  0.51100000000E-03 0.  1.
         12    1    3    3    0    0 -0.19204655764E+02 -0.89991344773E+01  0.10877720090E+02  0.23835436197E+02  0.00000000000E+00 0. -1.
</event>
<event>
 7    1  0.1322363E-009  0.4778727E+02  0.7816164E-02  0.1312668E+00
        -11   -1    0    0    0    0  0.00000000000E+00  0.00000000000E+00  0.45593999997E+02  0.45594000000E+02  0.51100000000E-03 0. -1.
         11   -1    0    0    0    0 -0.00000000000E+00 -0.00000000000E+00 -0.45593999997E+02  0.45594000000E+02  0.51100000000E-03 0.  1.
    9900012    2    1    2    0    0  0.34016889590E+02 -0.21223428349E+02  0.16614472894E+02  0.47787269617E+02  0.19999993492E+02 0.  0.
        -12    1    1    2    0    0 -0.34016889590E+02  0.21223428349E+02 -0.16614472894E+02  0.43400730383E+02  0.00000000000E+00 0.  1.
         11    1    3    3    0    0  0.77883862281E+01 -0.67302528138E+01 -0.88304451311E-01  0.10293836064E+02  0.51100000000E-03 0. -1.
        -11    1    3    3    0    0  0.32593922681E+01  0.30988780204E+01  0.34618104583E+01  0.56754572373E+01  0.51100000000E-03 0.  1.
         12    1    3    3    0    0  0.22969111093E+02 -0.17592053555E+02  0.13240966887E+02  0.31817976316E+02  0.00000000000E+00 0. -1.
</event>
<event>
 7    1  0.1322363E-009  0.4778728E+02  0.7816164E-02  0.1312668E+00
        -11   -1    0    0    0    0  0.00000000000E+00  0.00000000000E+00  0.45593999997E+02  0.45594000000E+02  0.51100000000E-03 0.  1.
         11   -1    0    0    0    0 -0.00000000000E+00 -0.00000000000E+00 -0.45593999997E+02  0.45594000000E+02  0.51100000000E-03 0. -1.
    9900012    2    1    2    0    0 -0.10700461284E+02 -0.27331064341E+02 -0.31970857436E+02  0.47787277945E+02  0.20000031463E+02 0.  0.
        -12    1    1    2    0    0  0.10700461284E+02  0.27331064341E+02  0.31970857436E+02  0.43400722055E+02  0.00000000000E+00 0.  1.
         11    1    3    3    0    0 -0.21334775806E+00 -0.11230539246E+01 -0.42714565816E+00  0.12203364527E+01  0.51100000000E-03 0. -1.
        -11    1    3    3    0    0 -0.57520673220E+01 -0.22459769193E+02 -0.11989152076E+02  0.26101097265E+02  0.51100000000E-03 0.  1.
         12    1    3    3    0    0 -0.47350462042E+01 -0.37482412232E+01 -0.19554559701E+02  0.20465844227E+02  0.00000000000E+00 0. -1.
</event>
<event>
 7    1  0.1322363E-009  0.4778724E+02  0.7816164E-02  0.1312668E+00
        -11   -1    0    0    0    0  0.00000000000E+00  0.00000000000E+00  0.45593999997E+02  0.45594000000E+02  0.51100000000E-03 0. -1.
         11   -1    0    0    0    0 -0.00000000000E+00 -0.00000000000E+00 -0.45593999997E+02  0.45594000000E+02  0.51100000000E-03 0.  1.
    9900012    2    1    2    0    0 -0.31431973996E+02  0.28285529771E+02  0.97767840755E+01  0.47787243203E+02  0.19999873060E+02 0.  0.
        -12    1    1    2    0    0  0.31431973996E+02 -0.28285529771E+02 -0.97767840755E+01  0.43400756797E+02  0.00000000000E+00 0.  1.
         11    1    3    3    0    0 -0.45075379676E+01  0.90710545815E+01  0.10511110723E+02  0.14597444250E+02  0.51100000000E-03 0. -1.
        -11    1    3    3    0    0 -0.12733166378E+02  0.10302351578E+02  0.50128781314E+00  0.16386679462E+02  0.51100000000E-03 0.  1.
         12    1    3    3    0    0 -0.14191269650E+02  0.89121236111E+01 -0.12356144604E+01  0.16803119491E+02  0.00000000000E+00 0. -1.
</event>
<event>
 7    1  0.1322363E-009  0.4778730E+02  0.7816164E-02  0.1312668E+00
        -11   -1    0    0    0    0  0.00000000000E+00  0.00000000000E+00  0.45593999997E+02  0.45594000000E+02  0.51100000000E-03 0.  1.
         11   -1    0    0    0    0 -0.00000000000E+00 -0.00000000000E+00 -0.45593999997E+02  0.45594000000E+02  0.51100000000E-03 0. -1.
    9900012    2    1    2    0    0 -0.19577541679E+02  0.32864104832E+02 -0.20501010778E+02  0.47787297615E+02  0.20000121147E+02 0.  0.
        -12    1    1    2    0    0  0.19577541679E+02 -0.32864104832E+02  0.20501010778E+02  0.43400702385E+02  0.00000000000E+00 0.  1.
         11    1    3    3    0    0 -0.75219801017E+01  0.16486953310E+02 -0.19258910467E+02  0.26444384030E+02  0.51100000000E-03 0. -1.
        -11    1    3    3    0    0 -0.21176066063E+01  0.80745884855E+01 -0.17813635903E+00  0.83495490760E+01  0.51100000000E-03 0.  1.
        -12    1    3    3    0    0 -0.99379549706E+01  0.83025630367E+01 -0.10639639517E+01  0.12993364509E+02  0.00000000000E+00 0.  1.
</event>
<event>
 7    1  0.1322363E-009  0.4778728E+02  0.7816164E-02  0.1312668E+00
        -11   -1    0    0    0    0  0.00000000000E+00  0.00000000000E+00  0.45593999997E+02  0.45594000000E+02  0.51100000000E-03 0. -1.
         11   -1    0    0    0    0 -0.00000000000E+00 -0.00000000000E+00 -0.45593999997E+02  0.45594000000E+02  0.51100000000E-03 0.  1.
    9900012    2    1    2    0    0 -0.40375371590E+02 -0.45306902478E+01 -0.15261878605E+02  0.47787277383E+02  0.20000028899E+02 0.  0.
        -12    1    1    2    0    0  0.40375371590E+02  0.45306902478E+01  0.15261878605E+02  0.43400722617E+02  0.00000000000E+00 0.  1.
         11    1    3    3    0    0 -0.11212726750E+02  0.48336269375E+00 -0.14212308286E+02  0.18109350837E+02  0.51100000000E-03 0. -1.
        -11    1    3    3    0    0 -0.37690538968E+01 -0.95624481712E+00  0.47302103353E+00  0.39171316785E+01  0.51100000000E-03 0.  1.
         12    1    3    3    0    0 -0.25393590943E+02 -0.40578081244E+01 -0.15225913524E+01  0.25760794867E+02  0.00000000000E+00 0. -1.
</event>
<event>
 7    1  0.1322363E-009  0.4778726E+02  0.7816164E-02  0.1312668E+00
        -11   -1    0    0    0    0  0.00000000000E+00  0.00000000000E+00  0.45593999997E+02  0.45594000000E+02  0.51100000000E-03 0. -1.
         11   -1    0    0    0    0 -0.00000000000E+00 -0.00000000000E+00 -0.45593999997E+02  0.45594000000E+02  0.51100000000E-03 0.  1.
    9900012    2    1    2    0    0 -0.75120851635E+01 -0.16782979826E+02  0.39313155205E+02  0.47787262592E+02  0.19999961463E+02 0.  0.
        -12    1    1    2    0    0  0.75120851635E+01  0.16782979826E+02 -0.39313155205E+02  0.43400737408E+02  0.00000000000E+00 0.  1.
         11    1    3    3    0    0 -0.46501013549E+01 -0.13304510259E+02  0.26584431004E+02  0.30089290585E+02  0.51100000000E-03 0. -1.
        -11    1    3    3    0    0 -0.44921345524E+01 -0.39168611741E+01  0.12421513727E+01  0.60880222230E+01  0.51100000000E-03 0.  1.
         12    1    3    3    0    0  0.16301507437E+01  0.43839160699E+00  0.11486572829E+02  0.11609949785E+02  0.00000000000E+00 0. -1.
</event>
<event>
 7    1  0.1322363E-009  0.4778727E+02  0.7816164E-02  0.1312668E+00
        -11   -1    0    0    0    0  0.00000000000E+00  0.00000000000E+00  0.45593999997E+02  0.45594000000E+02  0.51100000000E-03 0.  1.
         11   -1    0    0    0    0 -0.00000000000E+00 -0.00000000000E+00 -0.45593999997E+02  0.45594000000E+02  0.51100000000E-03 0. -1.
    9900012    2    1    2    0    0 -0.80665389037E+01  0.26489969294E+02 -0.33419090791E+02  0.47787272444E+02  0.20000006383E+02 0.  0.
        -12    1    1    2    0    0  0.80665389037E+01 -0.26489969294E+02  0.33419090791E+02  0.43400727556E+02  0.00000000000E+00 0.  1.
         11    1    3    3    0    0  0.34016431523E-01  0.23925474836E+02 -0.23464896300E+02  0.33511652628E+02  0.51100000000E-03 0. -1.
        -11    1    3    3    0    0 -0.27356478206E+01  0.14723834975E+01 -0.22889506054E+00  0.31151364933E+01  0.51100000000E-03 0.  1.
         12    1    3    3    0    0 -0.53649075146E+01  0.10921109600E+01 -0.97252994305E+01  0.11160483323E+02  0.00000000000E+00 0. -1.
</event>
<event>
 7    1  0.1322363E-009  0.4778727E+02  0.7816164E-02  0.1312668E+00
        -11   -1    0    0    0    0  0.00000000000E+00  0.00000000000E+00  0.45593999997E+02  0.45594000000E+02  0.51100000000E-03 0.  1.
         11   -1    0    0    0    0 -0.00000000000E+00 -0.00000000000E+00 -0.45593999997E+02  0.45594000000E+02  0.51100000000E-03 0. -1.
    9900012    2    1    2    0    0 -0.38181533112E+02 -0.29111235924E+01 -0.20428393034E+02  0.47787270130E+02  0.19999995829E+02 0.  0.
        -12    1    1    2    0    0  0.38181533112E+02  0.29111235924E+01  0.20428393034E+02  0.43400729870E+02  0.00000000000E+00 0.  1.
         11    1    3    3    0    0 -0.19006411651E+02 -0.19792434573E+01 -0.52769195499E+01  0.19824403363E+02  0.51100000000E-03 0. -1.
        -11    1    3    3    0    0 -0.19795301819E+01 -0.18466872478E+01  0.22213418532E+01  0.35018785561E+01  0.51100000000E-03 0.  1.
        -12    1    3    3    0    0 -0.17195591279E+02  0.91480711268E+00 -0.17372815337E+02  0.24460988211E+02  0.00000000000E+00 0.  1.
</event>
<event>
 7    1  0.1322363E-009  0.4778727E+02  0.7816164E-02  0.1312668E+00
        -11   -1    0    0    0    0  0.00000000000E+00  0.00000000000E+00  0.45593999997E+02  0.45594000000E+02  0.51100000000E-03 0.  1.
         11   -1    0    0    0    0 -0.00000000000E+00 -0.00000000000E+00 -0.45593999997E+02  0.45594000000E+02  0.51100000000E-03 0. -1.
    9900012    2    1    2    0    0  0.26638775480E+02 -0.22343640951E+02  0.25976154464E+02  0.47787271311E+02  0.20000001214E+02 0.  0.
        -12    1    1    2    0    0 -0.26638775480E+02  0.22343640951E+02 -0.25976154464E+02  0.43400728689E+02  0.00000000000E+00 0.  1.
         11    1    3    3    0    0  0.48200073529E+01 -0.22767941256E+01 -0.19970617926E+01  0.56924966787E+01  0.51100000000E-03 0. -1.
        -11    1    3    3    0    0  0.39386506243E+01 -0.38557063314E+01  0.11851508119E+02  0.13070489089E+02  0.51100000000E-03 0.  1.
        -12    1    3    3    0    0  0.17880117503E+02 -0.16211140494E+02  0.16121708137E+02  0.29024285543E+02  0.00000000000E+00 0.  1.
</event>
<event>
 7    1  0.1322363E-009  0.4778727E+02  0.7816164E-02  0.1312668E+00
        -11   -1    0    0    0    0  0.00000000000E+00  0.00000000000E+00  0.45593999997E+02  0.45594000000E+02  0.51100000000E-03 0. -1.
         11   -1    0    0    0    0 -0.00000000000E+00 -0.00000000000E+00 -0.45593999997E+02  0.45594000000E+02  0.51100000000E-03 0.  1.
    9900012    2    1    2    0    0 -0.24071021827E+02  0.17142890690E+02  0.31785693887E+02  0.47787272715E+02  0.20000007616E+02 0.  0.
        -12    1    1    2    0    0  0.24071021827E+02 -0.17142890690E+02 -0.31785693887E+02  0.43400727285E+02  0.00000000000E+00 0.  1.
         11    1    3    3    0    0 -0.12762151217E+02  0.58063689735E+01  0.22291586113E+02  0.26334411633E+02  0.51100000000E-03 0. -1.
        -11    1    3    3    0    0  0.69143070517E+00 -0.15031124430E+01  0.64014476699E+00  0.17740374912E+01  0.51100000000E-03 0.  1.
        -12    1    3    3    0    0 -0.12000301315E+02  0.12839634159E+02  0.88539630067E+01  0.19678823591E+02  0.00000000000E+00 0.  1.
</event>
<event>
 7    1  0.1322363E-009  0.4778727E+02  0.7816164E-02  0.1312668E+00
        -11   -1    0    0    0    0  0.00000000000E+00  0.00000000000E+00  0.45593999997E+02  0.45594000000E+02  0.51100000000E-03 0. -1.
         11   -1    0    0    0    0 -0.00000000000E+00 -0.00000000000E+00 -0.45593999997E+02  0.45594000000E+02  0.51100000000E-03 0.  1.
    9900012    2    1    2    0    0 -0.81783181727E+01  0.23591122751E+02  0.35499260013E+02  0.47787269335E+02  0.19999992206E+02 0.  0.
        -12    1    1    2    0    0  0.81783181727E+01 -0.23591122751E+02 -0.35499260013E+02  0.43400730665E+02  0.00000000000E+00 0.  1.
         11    1    3    3    0    0 -0.42976233571E+01  0.45070023411E+01  0.17558546154E+02  0.18630222219E+02  0.51100000000E-03 0. -1.
        -11    1    3    3    0    0  0.20629428402E+01  0.99136226102E+00 -0.81332360870E+00  0.24289972927E+01  0.51100000000E-03 0.  1.
        -12    1    3    3    0    0 -0.59436376558E+01  0.18092758149E+02  0.18754037468E+02  0.26728049823E+02  0.00000000000E+00 0.  1.
</event>
<event>
 7    1  0.1322363E-009  0.4778726E+02  0.7816164E-02  0.1312668E+00
        -11   -1    0    0    0    0  0.00000000000E+00  0.00000000000E+00  0.45593999997E+02  0.45594000000E+02  0.51100000000E-03 0.  1.
         11   -1    0    0    0    0 -0.00000000000E+00 -0.00000000000E+00 -0.45593999997E+02  0.45594000000E+02  0.51100000000E-03 0. -1.
    9900012    2    1    2    0    0  0.11875674172E+01 -0.10005878860E+01 -0.43372947799E+02  0.47787261604E+02  0.19999956958E+02 0.  0.
        -12    1    1    2    0    0 -0.11875674172E+01  0.10005878860E+01  0.43372947799E+02  0.43400738396E+02  0.00000000000E+00 0.  1.
         11    1    3    3    0    0  0.39460011198E+01  0.22401840686E+01 -0.11831417093E+02  0.12671692081E+02  0.51100000000E-03 0. -1.
        -11    1    3    3    0    0  0.59811185751E+01 -0.29951113941E+01 -0.13345283903E+02  0.14927862351E+02  0.51100000000E-03 0.  1.
         12    1    3    3    0    0 -0.87395522777E+01 -0.24566056057E+00 -0.18196246804E+02  0.20187707172E+02  0.00000000000E+00 0. -1.
</event>
<event>
 7    1  0.1322363E-009  0.4778727E+02  0.7816164E-02  0.1312668E+00
        -11   -1    0    0    0    0  0.00000000000E+00  0.00000000000E+00  0.45593999997E+02  0.45594000000E+02  0.51100000000E-03 0. -1.
         11   -1    0    0    0    0 -0.00000000000E+00 -0.00000000000E+00 -0.45593999997E+02  0.45594000000E+02  0.51100000000E-03 0.  1.
    9900012    2    1    2    0    0 -0.40054400541E+02  0.13747068322E+02  0.95019233031E+01  0.47787269170E+02  0.19999991453E+02 0.  0.
        -12    1    1    2    0    0  0.40054400541E+02 -0.13747068322E+02 -0.95019233031E+01  0.43400730830E+02  0.00000000000E+00 0.  1.
         11    1    3    3    0    0 -0.20615634877E+02  0.95186482367E+01  0.91529408963E+01  0.24482348600E+02  0.51100000000E-03 0.  1.
        -11    1    3    3    0    0 -0.19727702575E+01  0.23029840541E+01 -0.41750358007E+01  0.51600854877E+01  0.51100000000E-03 0. -1.
         12    1    3    3    0    0 -0.17465995406E+02  0.19254360318E+01  0.45240182075E+01  0.18144835082E+02  0.00000000000E+00 0. -1.
</event>
<event>
 7    1  0.1322363E-009  0.4778727E+02  0.7816164E-02  0.1312668E+00
        -11   -1    0    0    0    0  0.00000000000E+00  0.00000000000E+00  0.45593999997E+02  0.45594000000E+02  0.51100000000E-03 0. -1.
         11   -1    0    0    0    0 -0.00000000000E+00 -0.00000000000E+00 -0.45593999997E+02  0.45594000000E+02  0.51100000000E-03 0.  1.
    9900012    2    1    2    0    0  0.98619218359E+01  0.30207802048E+01  0.42157331799E+02  0.47787271438E+02  0.20000001793E+02 0.  0.
        -12    1    1    2    0    0 -0.98619218359E+01 -0.30207802048E+01 -0.42157331799E+02  0.43400728562E+02  0.00000000000E+00 0.  1.
         11    1    3    3    0    0 -0.26576689391E+01  0.46862412696E+01  0.60513766031E+01  0.81020503874E+01  0.51100000000E-03 0.  1.
        -11    1    3    3    0    0  0.77307913602E+01  0.27258745460E+01  0.10800808058E+02  0.13559239731E+02  0.51100000000E-03 0. -1.
         12    1    3    3    0    0  0.47887994147E+01 -0.43913356108E+01  0.25305147137E+02  0.26125981320E+02  0.00000000000E+00 0. -1.
</event>
<event>
 7    1  0.1322363E-009  0.4778727E+02  0.7816164E-02  0.1312668E+00
        -11   -1    0    0    0    0  0.00000000000E+00  0.00000000000E+00  0.45593999997E+02  0.45594000000E+02  0.51100000000E-03 0.  1.
         11   -1    0    0    0    0 -0.00000000000E+00 -0.00000000000E+00 -0.45593999997E+02  0.45594000000E+02  0.51100000000E-03 0. -1.
    9900012    2    1    2    0    0 -0.25787345584E+02  0.72285118365E+01 -0.34152377523E+02  0.47787268829E+02  0.19999989901E+02 0.  0.
        -12    1    1    2    0    0  0.25787345584E+02 -0.72285118365E+01  0.34152377523E+02  0.43400731171E+02  0.00000000000E+00 0.  1.
         11    1    3    3    0    0 -0.22662552489E+01 -0.30912212536E+01 -0.15077457582E+02  0.15557033429E+02  0.51100000000E-03 0. -1.
        -11    1    3    3    0    0 -0.12225097744E+02  0.34912063544E+01 -0.10508529380E+02  0.16494566580E+02  0.51100000000E-03 0.  1.
         12    1    3    3    0    0 -0.11295992591E+02  0.68285267357E+01 -0.85663905607E+01  0.15735668821E+02  0.00000000000E+00 0. -1.
</event>
<event>
 7    1  0.1322363E-009  0.4778727E+02  0.7816164E-02  0.1312668E+00
        -11   -1    0    0    0    0  0.00000000000E+00  0.00000000000E+00  0.45593999997E+02  0.45594000000E+02  0.51100000000E-03 0. -1.
         11   -1    0    0    0    0 -0.00000000000E+00 -0.00000000000E+00 -0.45593999997E+02  0.45594000000E+02  0.51100000000E-03 0.  1.
    9900012    2    1    2    0    0 -0.38818709184E+02 -0.15321896036E+02 -0.11915143522E+02  0.47787270444E+02  0.19999997263E+02 0.  0.
        -12    1    1    2    0    0  0.38818709184E+02  0.15321896036E+02  0.11915143522E+02  0.43400729556E+02  0.00000000000E+00 0.  1.
         11    1    3    3    0    0 -0.20405453583E+02 -0.15819743846E+02 -0.18354482510E+01  0.25884661517E+02  0.51100000000E-03 0. -1.
        -11    1    3    3    0    0 -0.80710502457E+01 -0.21198594738E+01 -0.67308290982E+01  0.10720994211E+02  0.51100000000E-03 0.  1.
        -12    1    3    3    0    0 -0.10342205355E+02  0.26177072838E+01 -0.33488661729E+01  0.11181614717E+02  0.00000000000E+00 0.  1.
</event>
<event>
 7    1  0.1322363E-009  0.4778727E+02  0.7816164E-02  0.1312668E+00
        -11   -1    0    0    0    0  0.00000000000E+00  0.00000000000E+00  0.45593999997E+02  0.45594000000E+02  0.51100000000E-03 0. -1.
         11   -1    0    0    0    0 -0.00000000000E+00 -0.00000000000E+00 -0.45593999997E+02  0.45594000000E+02  0.51100000000E-03 0.  1.
    9900012    2    1    2    0    0 -0.37642525657E+02  0.20506600596E+02  0.67928409856E+01  0.47787273111E+02  0.20000009424E+02 0.  0.
        -12    1    1    2    0    0  0.37642525657E+02 -0.20506600596E+02 -0.67928409856E+01  0.43400726889E+02  0.00000000000E+00 0.  1.
         11    1    3    3    0    0 -0.12944754670E+02  0.10410312192E+02  0.53173815811E+01  0.17441783755E+02  0.51100000000E-03 0. -1.
        -11    1    3    3    0    0 -0.24463439529E+02  0.47115428569E+01  0.96811792925E+00  0.24931822281E+02  0.51100000000E-03 0.  1.
        -12    1    3    3    0    0 -0.23433145786E+00  0.53847455464E+01  0.50734147517E+00  0.54136670754E+01  0.00000000000E+00 0.  1.
</event>
<event>
 7    1  0.1322363E-009  0.4778727E+02  0.7816164E-02  0.1312668E+00
        -11   -1    0    0    0    0  0.00000000000E+00  0.00000000000E+00  0.45593999997E+02  0.45594000000E+02  0.51100000000E-03 0.  1.
         11   -1    0    0    0    0 -0.00000000000E+00 -0.00000000000E+00 -0.45593999997E+02  0.45594000000E+02  0.51100000000E-03 0. -1.
    9900012    2    1    2    0    0 -0.25390722218E+02 -0.23056120733E+02 -0.26596044433E+02  0.47787273537E+02  0.20000011366E+02 0.  0.
        -12    1    1    2    0    0  0.25390722218E+02  0.23056120733E+02  0.26596044433E+02  0.43400726463E+02  0.00000000000E+00 0.  1.
         11    1    3    3    0    0 -0.84397968358E+01 -0.40873778754E+01 -0.11390607274E+02  0.14754076143E+02  0.51100000000E-03 0. -1.
        -11    1    3    3    0    0  0.22620783393E+01 -0.48140544440E+01 -0.15588187412E+01  0.55427461363E+01  0.51100000000E-03 0.  1.
        -12    1    3    3    0    0 -0.19213003722E+02 -0.14154688414E+02 -0.13646618418E+02  0.27490451258E+02  0.00000000000E+00 0.  1.
</event>
<event>
 7    1  0.1322363E-009  0.4778727E+02  0.7816164E-02  0.1312668E+00
        -11   -1    0    0    0    0  0.00000000000E+00  0.00000000000E+00  0.45593999997E+02  0.45594000000E+02  0.51100000000E-03 0.  1.
         11   -1    0    0    0    0 -0.00000000000E+00 -0.00000000000E+00 -0.45593999997E+02  0.45594000000E+02  0.51100000000E-03 0. -1.
    9900012    2    1    2    0    0  0.13813037297E+02  0.35716350704E+02 -0.20424629725E+02  0.47787271822E+02  0.20000003546E+02 0.  0.
        -12    1    1    2    0    0 -0.13813037297E+02 -0.35716350704E+02  0.20424629725E+02  0.43400728178E+02  0.00000000000E+00 0.  1.
         11    1    3    3    0    0  0.10926599132E+02  0.27110517545E+02 -0.15652951738E+02  0.33156984611E+02  0.51100000000E-03 0. -1.
        -11    1    3    3    0    0  0.22301137661E+01  0.10684128918E+02 -0.19864649098E+01  0.11093694661E+02  0.51100000000E-03 0.  1.
        -12    1    3    3    0    0  0.65632439909E+00 -0.20782957587E+01 -0.27852130772E+01  0.35365925497E+01  0.00000000000E+00 0.  1.
</event>
<event>
 7    1  0.1322363E-009  0.4778727E+02  0.7816164E-02  0.1312668E+00
        -11   -1    0    0    0    0  0.00000000000E+00  0.00000000000E+00  0.45593999997E+02  0.45594000000E+02  0.51100000000E-03 0.  1.
         11   -1    0    0    0    0 -0.00000000000E+00 -0.00000000000E+00 -0.45593999997E+02  0.45594000000E+02  0.51100000000E-03 0. -1.
    9900012    2    1    2    0    0  0.31452838379E+02 -0.67964074937E+01 -0.29123032416E+02  0.47787271734E+02  0.20000003146E+02 0.  0.
        -12    1    1    2    0    0 -0.31452838379E+02  0.67964074937E+01  0.29123032416E+02  0.43400728266E+02  0.00000000000E+00 0.  1.
         11    1    3    3    0    0  0.29929553723E+01  0.42734069818E+01 -0.26040087604E+01  0.58310077155E+01  0.51100000000E-03 0. -1.
        -11    1    3    3    0    0  0.41785147329E+01  0.12251462812E+01 -0.64225412905E+00  0.44015292128E+01  0.51100000000E-03 0.  1.
         12    1    3    3    0    0  0.24281368274E+02 -0.12294960757E+02 -0.25876769526E+02  0.37554734806E+02  0.00000000000E+00 0. -1.
</event>
<event>
 7    1  0.1322363E-009  0.4778728E+02  0.7816164E-02  0.1312668E+00
        -11   -1    0    0    0    0  0.00000000000E+00  0.00000000000E+00  0.45593999997E+02  0.45594000000E+02  0.51100000000E-03 0.  1.
         11   -1    0    0    0    0 -0.00000000000E+00 -0.00000000000E+00 -0.45593999997E+02  0.45594000000E+02  0.51100000000E-03 0. -1.
    9900012    2    1    2    0    0 -0.37553169185E+02 -0.17378563659E+02 -0.13090757197E+02  0.47787275183E+02  0.20000018867E+02 0.  0.
        -12    1    1    2    0    0  0.37553169185E+02  0.17378563659E+02  0.13090757197E+02  0.43400724817E+02  0.00000000000E+00 0.  1.
         11    1    3    3    0    0 -0.17738066760E+02 -0.59493976825E+01 -0.42914770065E+01  0.19195080628E+02  0.51100000000E-03 0. -1.
        -11    1    3    3    0    0 -0.45578638493E-01 -0.86053027726E+00  0.30965592400E+01  0.32142291701E+01  0.51100000000E-03 0.  1.
         12    1    3    3    0    0 -0.19769523787E+02 -0.10568635699E+02 -0.11895839430E+02  0.25377965384E+02  0.00000000000E+00 0. -1.
</event>
<event>
 7    1  0.1322363E-009  0.4778727E+02  0.7816164E-02  0.1312668E+00
        -11   -1    0    0    0    0  0.00000000000E+00  0.00000000000E+00  0.45593999997E+02  0.45594000000E+02  0.51100000000E-03 0.  1.
         11   -1    0    0    0    0 -0.00000000000E+00 -0.00000000000E+00 -0.45593999997E+02  0.45594000000E+02  0.51100000000E-03 0. -1.
    9900012    2    1    2    0    0  0.32503840363E+02 -0.11008050373E+02 -0.26569648576E+02  0.47787273776E+02  0.20000012454E+02 0.  0.
        -12    1    1    2    0    0 -0.32503840363E+02  0.11008050373E+02  0.26569648576E+02  0.43400726224E+02  0.00000000000E+00 0.  1.
         11    1    3    3    0    0  0.12364218863E+02 -0.79092622828E+00 -0.18992944658E+02  0.22676671260E+02  0.51100000000E-03 0. -1.
        -11    1    3    3    0    0  0.33966673687E+01 -0.14403627398E+01 -0.47218745930E+01  0.59923362697E+01  0.51100000000E-03 0.  1.
        -12    1    3    3    0    0  0.16742954131E+02 -0.87767614047E+01 -0.28548293243E+01  0.19118266246E+02  0.00000000000E+00 0.  1.
</event>
<event>
 7    1  0.1322363E-009  0.4778727E+02  0.7816164E-02  0.1312668E+00
        -11   -1    0    0    0    0  0.00000000000E+00  0.00000000000E+00  0.45593999997E+02  0.45594000000E+02  0.51100000000E-03 0.  1.
         11   -1    0    0    0    0 -0.00000000000E+00 -0.00000000000E+00 -0.45593999997E+02  0.45594000000E+02  0.51100000000E-03 0. -1.
    9900012    2    1    2    0    0 -0.32601979174E+02 -0.27978171721E+02  0.61608613794E+01  0.47787270146E+02  0.19999995904E+02 0.  0.
        -12    1    1    2    0    0  0.32601979174E+02  0.27978171721E+02 -0.61608613794E+01  0.43400729854E+02  0.00000000000E+00 0.  1.
         11    1    3    3    0    0 -0.50431182549E+01 -0.31032213976E+01 -0.66650838850E+00  0.59587967299E+01  0.51100000000E-03 0. -1.
        -11    1    3    3    0    0 -0.15218910177E+02 -0.18075383543E+02  0.12390438007E+02  0.26680661001E+02  0.51100000000E-03 0.  1.
        -12    1    3    3    0    0 -0.12339950742E+02 -0.67995667813E+01 -0.55630682396E+01  0.15147812415E+02  0.00000000000E+00 0.  1.
</event>
<event>
 7    1  0.1322363E-009  0.4778725E+02  0.7816164E-02  0.1312668E+00
        -11   -1    0    0    0    0  0.00000000000E+00  0.00000000000E+00  0.45593999997E+02  0.45594000000E+02  0.51100000000E-03 0. -1.
         11   -1    0    0    0    0 -0.00000000000E+00 -0.00000000000E+00 -0.45593999997E+02  0.45594000000E+02  0.51100000000E-03 0.  1.
    9900012    2    1    2    0    0 -0.11772688937E+01 -0.35503513667E+02  0.24934702699E+02  0.47787252962E+02  0.19999917556E+02 0.  0.
        -12    1    1    2    0    0  0.11772688937E+01  0.35503513667E+02 -0.24934702699E+02  0.43400747038E+02  0.00000000000E+00 0.  1.
         11    1    3    3    0    0  0.20782958563E-01 -0.16643007561E+02  0.19541537701E+02  0.25668303968E+02  0.51100000000E-03 0. -1.
        -11    1    3    3    0    0  0.46917592578E+00  0.91193962699E+00 -0.83431088211E+00  0.13220570493E+01  0.51100000000E-03 0.  1.
        -12    1    3    3    0    0 -0.16672277780E+01 -0.19772445733E+02  0.62274758800E+01  0.20796891945E+02  0.00000000000E+00 0.  1.
</event>
<event>
 7    1  0.1322363E-009  0.4778726E+02  0.7816164E-02  0.1312668E+00
        -11   -1    0    0    0    0  0.00000000000E+00  0.00000000000E+00  0.45593999997E+02  0.45594000000E+02  0.51100000000E-03 0. -1.
         11   -1    0    0    0    0 -0.00000000000E+00 -0.00000000000E+00 -0.45593999997E+02  0.45594000000E+02  0.51100000000E-03 0.  1.
    9900012    2    1    2    0    0 -0.40867153387E+02  0.14482400182E+02  0.19390237958E+01  0.47787263206E+02  0.19999964259E+02 0.  0.
        -12    1    1    2    0    0  0.40867153387E+02 -0.14482400182E+02 -0.19390237958E+01  0.43400736794E+02  0.00000000000E+00 0.  1.
         11    1    3    3    0    0 -0.18848401736E+02  0.78068107114E+01  0.28764696509E+01  0.20602975984E+02  0.51100000000E-03 0. -1.
        -11    1    3    3    0    0 -0.66963948641E+01  0.81950645829E+01 -0.43010702115E+01  0.11423659349E+02  0.51100000000E-03 0.  1.
         12    1    3    3    0    0 -0.15322356787E+02 -0.15194751119E+01  0.33636243565E+01  0.15760627873E+02  0.00000000000E+00 0. -1.
</event>
<event>
 7    1  0.1322363E-009  0.4778725E+02  0.7816164E-02  0.1312668E+00
        -11   -1    0    0    0    0  0.00000000000E+00  0.00000000000E+00  0.45593999997E+02  0.45594000000E+02  0.51100000000E-03 0. -1.
         11   -1    0    0    0    0 -0.00000000000E+00 -0.00000000000E+00 -0.45593999997E+02  0.45594000000E+02  0.51100000000E-03 0.  1.
    9900012    2    1    2    0    0 -0.19231398948E+02  0.34894465706E+02  0.17209151054E+02  0.47787247445E+02  0.19999892400E+02 0.  0.
        -12    1    1    2    0    0  0.19231398948E+02 -0.34894465706E+02 -0.17209151054E+02  0.43400752555E+02  0.00000000000E+00 0.  1.
         11    1    3    3    0    0 -0.46743433557E+01  0.16716041002E+02  0.16409018674E+02  0.23885799268E+02  0.51100000000E-03 0. -1.
        -11    1    3    3    0    0  0.41361064176E+00  0.26163423625E+00 -0.20764546012E+00  0.53164192347E+00  0.51100000000E-03 0.  1.
         12    1    3    3    0    0 -0.14970666234E+02  0.17916790467E+02  0.10077778403E+01  0.23369806253E+02  0.00000000000E+00 0. -1.
</event>
<event>
 7    1  0.1322363E-009  0.4778727E+02  0.7816164E-02  0.1312668E+00
        -11   -1    0    0    0    0  0.00000000000E+00  0.00000000000E+00  0.45593999997E+02  0.45594000000E+02  0.51100000000E-03 0. -1.
         11   -1    0    0    0    0 -0.00000000000E+00 -0.00000000000E+00 -0.45593999997E+02  0.45594000000E+02  0.51100000000E-03 0.  1.
    9900012    2    1    2    0    0  0.14278540784E+02  0.16737713235E+02  0.37411165673E+02  0.47787273182E+02  0.20000009747E+02 0.  0.
        -12    1    1    2    0    0 -0.14278540784E+02 -0.16737713235E+02 -0.37411165673E+02  0.43400726818E+02  0.00000000000E+00 0.  1.
         11    1    3    3    0    0  0.34685029549E+01  0.63303175833E+01  0.56503821912E+01  0.91668016572E+01  0.51100000000E-03 0.  1.
        -11    1    3    3    0    0 -0.64287342279E+00 -0.20022990367E+01  0.13832179268E+02  0.13991128305E+02  0.51100000000E-03 0. -1.
         12    1    3    3    0    0  0.11452911252E+02  0.12409694688E+02  0.17928604214E+02  0.24629343220E+02  0.00000000000E+00 0. -1.
</event>
<event>
 7    1  0.1322363E-009  0.4778726E+02  0.7816164E-02  0.1312668E+00
        -11   -1    0    0    0    0  0.00000000000E+00  0.00000000000E+00  0.45593999997E+02  0.45594000000E+02  0.51100000000E-03 0. -1.
         11   -1    0    0    0    0 -0.00000000000E+00 -0.00000000000E+00 -0.45593999997E+02  0.45594000000E+02  0.51100000000E-03 0.  1.
    9900012    2    1    2    0    0 -0.30377913140E+02 -0.16928556517E+02  0.25965946066E+02  0.47787262822E+02  0.19999962510E+02 0.  0.
        -12    1    1    2    0    0  0.30377913140E+02  0.16928556517E+02 -0.25965946066E+02  0.43400737178E+02  0.00000000000E+00 0.  1.
         11    1    3    3    0    0 -0.92762462447E+01 -0.28219060247E+01  0.98380673622E+01  0.13813018051E+02  0.51100000000E-03 0. -1.
        -11    1    3    3    0    0 -0.12027670514E+02 -0.12903846865E+02  0.28829259603E+01  0.17874154085E+02  0.51100000000E-03 0.  1.
        -12    1    3    3    0    0 -0.90739963815E+01 -0.12028036277E+01  0.13244952743E+02  0.16100090685E+02  0.00000000000E+00 0.  1.
</event>
<event>
 7    1  0.1322363E-009  0.4778727E+02  0.7816164E-02  0.1312668E+00
        -11   -1    0    0    0    0  0.00000000000E+00  0.00000000000E+00  0.45593999997E+02  0.45594000000E+02  0.51100000000E-03 0. -1.
         11   -1    0    0    0    0 -0.00000000000E+00 -0.00000000000E+00 -0.45593999997E+02  0.45594000000E+02  0.51100000000E-03 0.  1.
    9900012    2    1    2    0    0 -0.40811448843E+02 -0.12350834325E+02  0.80935536089E+01  0.47787273333E+02  0.20000010437E+02 0.  0.
        -12    1    1    2    0    0  0.40811448843E+02  0.12350834325E+02 -0.80935536089E+01  0.43400726667E+02  0.00000000000E+00 0.  1.
         11    1    3    3    0    0 -0.18088621551E+02 -0.59440868688E+01  0.73464098160E+01  0.20408334958E+02  0.51100000000E-03 0. -1.
        -11    1    3    3    0    0  0.16745471192E+01 -0.19333701673E+01 -0.10919244813E+00  0.25600686534E+01  0.51100000000E-03 0.  1.
        -12    1    3    3    0    0 -0.24397374411E+02 -0.44733772886E+01  0.85633624107E+00  0.24818869722E+02  0.00000000000E+00 0.  1.
</event>
<event>
 7    1  0.1322363E-009  0.4778727E+02  0.7816164E-02  0.1312668E+00
        -11   -1    0    0    0    0  0.00000000000E+00  0.00000000000E+00  0.45593999997E+02  0.45594000000E+02  0.51100000000E-03 0.  1.
         11   -1    0    0    0    0 -0.00000000000E+00 -0.00000000000E+00 -0.45593999997E+02  0.45594000000E+02  0.51100000000E-03 0. -1.
    9900012    2    1    2    0    0 -0.34442109311E+02 -0.14850756544E+02 -0.21836196941E+02  0.47787270045E+02  0.19999995445E+02 0.  0.
        -12    1    1    2    0    0  0.34442109311E+02  0.14850756544E+02  0.21836196941E+02  0.43400729955E+02  0.00000000000E+00 0.  1.
         11    1    3    3    0    0 -0.27498645390E+02 -0.76823583992E+01 -0.13900783159E+02  0.31755722343E+02  0.51100000000E-03 0. -1.
        -11    1    3    3    0    0 -0.14835287327E+01  0.23567161647E+01 -0.66368536969E+00  0.28627691337E+01  0.51100000000E-03 0.  1.
         12    1    3    3    0    0 -0.54599351887E+01 -0.95251143099E+01 -0.72717284125E+01  0.13168778569E+02  0.00000000000E+00 0. -1.
</event>
<event>
 7    1  0.1322363E-009  0.4778727E+02  0.7816164E-02  0.1312668E+00
        -11   -1    0    0    0    0  0.00000000000E+00  0.00000000000E+00  0.45593999997E+02  0.45594000000E+02  0.51100000000E-03 0.  1.
         11   -1    0    0    0    0 -0.00000000000E+00 -0.00000000000E+00 -0.45593999997E+02  0.45594000000E+02  0.51100000000E-03 0. -1.
    9900012    2    1    2    0    0  0.23484567369E+02  0.34340295052E+02  0.12362959791E+02  0.47787267937E+02  0.19999985833E+02 0.  0.
        -12    1    1    2    0    0 -0.23484567369E+02 -0.34340295052E+02 -0.12362959791E+02  0.43400732063E+02  0.00000000000E+00 0.  1.
         11    1    3    3    0    0  0.48328339494E+00  0.18402148507E+01 -0.22192618783E+01  0.29231963810E+01  0.51100000000E-03 0.  1.
        -11    1    3    3    0    0  0.65710850675E+01  0.14044796851E+01  0.51088779823E+01  0.84411111028E+01  0.51100000000E-03 0. -1.
         12    1    3    3    0    0  0.16430198907E+02  0.31095600516E+02  0.94733436873E+01  0.36422960453E+02  0.00000000000E+00 0. -1.
</event>
<event>
 7    1  0.1322363E-009  0.4778727E+02  0.7816164E-02  0.1312668E+00
        -11   -1    0    0    0    0  0.00000000000E+00  0.00000000000E+00  0.45593999997E+02  0.45594000000E+02  0.51100000000E-03 0.  1.
         11   -1    0    0    0    0 -0.00000000000E+00 -0.00000000000E+00 -0.45593999997E+02  0.45594000000E+02  0.51100000000E-03 0. -1.
    9900012    2    1    2    0    0  0.24397134368E+01 -0.19463256998E+02 -0.38715018132E+02  0.47787271854E+02  0.20000003693E+02 0.  0.
        -12    1    1    2    0    0 -0.24397134368E+01  0.19463256998E+02  0.38715018132E+02  0.43400728146E+02  0.00000000000E+00 0.  1.
         11    1    3    3    0    0  0.62375560843E+01 -0.95612985343E+01 -0.15491788211E+02  0.19243727233E+02  0.51100000000E-03 0. -1.
        -11    1    3    3    0    0 -0.12973267791E+01 -0.25771261182E+00  0.14331876308E+01  0.19502562930E+01  0.51100000000E-03 0.  1.
        -12    1    3    3    0    0 -0.25005158683E+01 -0.96442458515E+01 -0.24656417552E+02  0.26593288329E+02  0.00000000000E+00 0.  1.
</event>
<event>
 7    1  0.1322363E-009  0.4778727E+02  0.7816164E-02  0.1312668E+00
        -11   -1    0    0    0    0  0.00000000000E+00  0.00000000000E+00  0.45593999997E+02  0.45594000000E+02  0.51100000000E-03 0.  1.
         11   -1    0    0    0    0 -0.00000000000E+00 -0.00000000000E+00 -0.45593999997E+02  0.45594000000E+02  0.51100000000E-03 0. -1.
    9900012    2    1    2    0    0 -0.34634029733E+01  0.13956179412E+02 -0.40949397580E+02  0.47787271134E+02  0.20000000407E+02 0.  0.
        -12    1    1    2    0    0  0.34634029733E+01 -0.13956179412E+02  0.40949397580E+02  0.43400728866E+02  0.00000000000E+00 0.  1.
         11    1    3    3    0    0  0.76239915710E+00 -0.15815903304E+01 -0.27819396576E+01  0.32896609198E+01  0.51100000000E-03 0. -1.
        -11    1    3    3    0    0 -0.19260251915E+01  0.15983504226E+02 -0.38853352177E+02  0.42056687412E+02  0.51100000000E-03 0.  1.
        -12    1    3    3    0    0 -0.22997769389E+01 -0.44573448319E+00  0.68589425441E+00  0.24409228023E+01  0.00000000000E+00 0.  1.
</event>
<event>
 7    1  0.1322363E-009  0.4778727E+02  0.7816164E-02  0.1312668E+00
        -11   -1    0    0    0    0  0.00000000000E+00  0.00000000000E+00  0.45593999997E+02  0.45594000000E+02  0.51100000000E-03 0.  1.
         11   -1    0    0    0    0 -0.00000000000E+00 -0.00000000000E+00 -0.45593999997E+02  0.45594000000E+02  0.51100000000E-03 0. -1.
    9900012    2    1    2    0    0  0.40659818442E+02  0.38672287424E+01 -0.14678115616E+02  0.47787269915E+02  0.19999994852E+02 0.  0.
        -12    1    1    2    0    0 -0.40659818442E+02 -0.38672287424E+01  0.14678115616E+02  0.43400730085E+02  0.00000000000E+00 0.  1.
         11    1    3    3    0    0  0.31957733537E+02  0.88506944653E+01 -0.13810010182E+02  0.35921412930E+02  0.51100000000E-03 0. -1.
        -11    1    3    3    0    0  0.16922618004E-01 -0.15775017247E+01 -0.19116461014E+01  0.24785457721E+01  0.51100000000E-03 0.  1.
         12    1    3    3    0    0  0.86851622863E+01 -0.34059639982E+01  0.10435406680E+01  0.93873112136E+01  0.00000000000E+00 0. -1.
</event>
<event>
 7    1  0.1322363E-009  0.4778727E+02  0.7816164E-02  0.1312668E+00
        -11   -1    0    0    0    0  0.00000000000E+00  0.00000000000E+00  0.45593999997E+02  0.45594000000E+02  0.51100000000E-03 0.  1.
         11   -1    0    0    0    0 -0.00000000000E+00 -0.00000000000E+00 -0.45593999997E+02  0.45594000000E+02  0.51100000000E-03 0. -1.
    9900012    2    1    2    0    0 -0.33095264579E+02  0.17919569603E+02 -0.21615174008E+02  0.47787271208E+02  0.20000000747E+02 0.  0.
        -12    1    1    2    0    0  0.33095264579E+02 -0.17919569603E+02  0.21615174008E+02  0.43400728792E+02  0.00000000000E+00 0.  1.
         11    1    3    3    0    0 -0.48501319727E+00 -0.83325051883E-01 -0.75428353573E+00  0.90062466055E+00  0.51100000000E-03 0. -1.
        -11    1    3    3    0    0 -0.79623185696E+00  0.10099412783E+01  0.32545743595E+01  0.34994601124E+01  0.51100000000E-03 0.  1.
         12    1    3    3    0    0 -0.31814019524E+02  0.16992953376E+02 -0.24115464831E+02  0.43387186435E+02  0.00000000000E+00 0. -1.
</event>
<event>
 7    1  0.1322363E-009  0.4778727E+02  0.7816164E-02  0.1312668E+00
        -11   -1    0    0    0    0  0.00000000000E+00  0.00000000000E+00  0.45593999997E+02  0.45594000000E+02  0.51100000000E-03 0.  1.
         11   -1    0    0    0    0 -0.00000000000E+00 -0.00000000000E+00 -0.45593999997E+02  0.45594000000E+02  0.51100000000E-03 0. -1.
    9900012    2    1    2    0    0 -0.25186467496E+01 -0.41605529266E+02 -0.12093782468E+02  0.47787271650E+02  0.20000002759E+02 0.  0.
        -12    1    1    2    0    0  0.25186467496E+01  0.41605529266E+02  0.12093782468E+02  0.43400728350E+02  0.00000000000E+00 0.  1.
         11    1    3    3    0    0 -0.60109910337E+01 -0.15963144145E+02 -0.39436373844E+01  0.17507320192E+02  0.51100000000E-03 0. -1.
        -11    1    3    3    0    0 -0.42565134874E+01 -0.11783004370E+02 -0.21738712541E+00  0.12530137927E+02  0.51100000000E-03 0.  1.
        -12    1    3    3    0    0  0.77488577714E+01 -0.13859380751E+02 -0.79327579578E+01  0.17749813531E+02  0.00000000000E+00 0.  1.
</event>
<event>
 7    1  0.1322363E-009  0.4778727E+02  0.7816164E-02  0.1312668E+00
        -11   -1    0    0    0    0  0.00000000000E+00  0.00000000000E+00  0.45593999997E+02  0.45594000000E+02  0.51100000000E-03 0.  1.
         11   -1    0    0    0    0 -0.00000000000E+00 -0.00000000000E+00 -0.45593999997E+02  0.45594000000E+02  0.51100000000E-03 0. -1.
    9900012    2    1    2    0    0 -0.30466601184E+02  0.32994457778E+01 -0.30733090947E+02  0.47787274092E+02  0.20000013897E+02 0.  0.
        -12    1    1    2    0    0  0.30466601184E+02 -0.32994457778E+01  0.30733090947E+02  0.43400725908E+02  0.00000000000E+00 0.  1.
         11    1    3    3    0    0 -0.68933481206E+01  0.62216303682E+01 -0.10831144425E+02  0.14266766367E+02  0.51100000000E-03 0. -1.
        -11    1    3    3    0    0 -0.19529556424E+02 -0.73932062708E+01 -0.14467325689E+02  0.25404066327E+02  0.51100000000E-03 0.  1.
        -12    1    3    3    0    0 -0.40436966395E+01  0.44710216804E+01 -0.54346208328E+01  0.81164413985E+01  0.00000000000E+00 0.  1.
</event>
<event>
 7    1  0.1322363E-009  0.4778727E+02  0.7816164E-02  0.1312668E+00
        -11   -1    0    0    0    0  0.00000000000E+00  0.00000000000E+00  0.45593999997E+02  0.45594000000E+02  0.51100000000E-03 0.  1.
         11   -1    0    0    0    0 -0.00000000000E+00 -0.00000000000E+00 -0.45593999997E+02  0.45594000000E+02  0.51100000000E-03 0. -1.
    9900012    2    1    2    0    0 -0.37510425492E+02  0.21360703984E+02 -0.45068380339E+01  0.47787270924E+02  0.19999999451E+02 0.  0.
        -12    1    1    2    0    0  0.37510425492E+02 -0.21360703984E+02  0.45068380339E+01  0.43400729076E+02  0.00000000000E+00 0.  1.
         11    1    3    3    0    0 -0.14859925374E+02  0.63837647416E+01 -0.44096156571E+01  0.16763488447E+02  0.51100000000E-03 0. -1.
        -11    1    3    3    0    0 -0.18687879601E+02  0.91832636803E+01  0.60605345675E+01  0.21686384099E+02  0.51100000000E-03 0.  1.
         12    1    3    3    0    0 -0.39626205165E+01  0.57936755619E+01 -0.61577569444E+01  0.93373983775E+01  0.00000000000E+00 0. -1.
</event>
<event>
 7    1  0.1322363E-009  0.4778727E+02  0.7816164E-02  0.1312668E+00
        -11   -1    0    0    0    0  0.00000000000E+00  0.00000000000E+00  0.45593999997E+02  0.45594000000E+02  0.51100000000E-03 0.  1.
         11   -1    0    0    0    0 -0.00000000000E+00 -0.00000000000E+00 -0.45593999997E+02  0.45594000000E+02  0.51100000000E-03 0. -1.
    9900012    2    1    2    0    0 -0.24413160477E+02  0.35116688022E+02  0.73782876666E+01  0.47787270617E+02  0.19999998051E+02 0.  0.
        -12    1    1    2    0    0  0.24413160477E+02 -0.35116688022E+02 -0.73782876666E+01  0.43400729383E+02  0.00000000000E+00 0.  1.
         11    1    3    3    0    0 -0.42387813362E+00 -0.65854785131E+00  0.53310028425E+00  0.94739332847E+00  0.51100000000E-03 0.  1.
        -11    1    3    3    0    0 -0.10738755640E+02  0.13091147578E+02 -0.55137977169E+01  0.17807329478E+02  0.51100000000E-03 0. -1.
         12    1    3    3    0    0 -0.13250526703E+02  0.22684088294E+02  0.12358985099E+02  0.29032547810E+02  0.00000000000E+00 0. -1.
</event>
<event>
 7    1  0.1322363E-009  0.4778728E+02  0.7816164E-02  0.1312668E+00
        -11   -1    0    0    0    0  0.00000000000E+00  0.00000000000E+00  0.45593999997E+02  0.45594000000E+02  0.51100000000E-03 0.  1.
         11   -1    0    0    0    0 -0.00000000000E+00 -0.00000000000E+00 -0.45593999997E+02  0.45594000000E+02  0.51100000000E-03 0. -1.
    9900012    2    1    2    0    0  0.14990737824E+02 -0.55175681803E+00 -0.40725865574E+02  0.47787276701E+02  0.20000025792E+02 0.  0.
        -12    1    1    2    0    0 -0.14990737824E+02  0.55175681803E+00  0.40725865574E+02  0.43400723299E+02  0.00000000000E+00 0.  1.
         11    1    3    3    0    0  0.18489438166E+00 -0.64392801502E+00 -0.18235881515E+02  0.18248183583E+02  0.51100000000E-03 0. -1.
        -11    1    3    3    0    0  0.74055460994E+01  0.60637327816E+01 -0.10015873390E+02  0.13853832982E+02  0.51100000000E-03 0.  1.
         12    1    3    3    0    0  0.74002973432E+01 -0.59715615846E+01 -0.12474110669E+02  0.15685260135E+02  0.00000000000E+00 0. -1.
</event>
<event>
 7    1  0.1322363E-009  0.4778727E+02  0.7816164E-02  0.1312668E+00
        -11   -1    0    0    0    0  0.00000000000E+00  0.00000000000E+00  0.45593999997E+02  0.45594000000E+02  0.51100000000E-03 0.  1.
         11   -1    0    0    0    0 -0.00000000000E+00 -0.00000000000E+00 -0.45593999997E+02  0.45594000000E+02  0.51100000000E-03 0. -1.
    9900012    2    1    2    0    0  0.30454379367E+02  0.24684249667E+01 -0.30823057343E+02  0.47787271798E+02  0.20000003437E+02 0.  0.
        -12    1    1    2    0    0 -0.30454379367E+02 -0.24684249667E+01  0.30823057343E+02  0.43400728202E+02  0.00000000000E+00 0.  1.
         11    1    3    3    0    0  0.29424360105E+02  0.81256012374E+01 -0.26298109468E+02  0.40291549050E+02  0.51100000000E-03 0. -1.
        -11    1    3    3    0    0 -0.32907758054E+00 -0.11148099239E+01 -0.45885615033E+00  0.12496569322E+01  0.51100000000E-03 0.  1.
         12    1    3    3    0    0  0.13590968432E+01 -0.45423663467E+01 -0.40660917250E+01  0.62460658156E+01  0.00000000000E+00 0. -1.
</event>
<event>
 7    1  0.1322363E-009  0.4778727E+02  0.7816164E-02  0.1312668E+00
        -11   -1    0    0    0    0  0.00000000000E+00  0.00000000000E+00  0.45593999997E+02  0.45594000000E+02  0.51100000000E-03 0.  1.
         11   -1    0    0    0    0 -0.00000000000E+00 -0.00000000000E+00 -0.45593999997E+02  0.45594000000E+02  0.51100000000E-03 0. -1.
    9900012    2    1    2    0    0  0.42841572809E+02  0.28226144254E+01 -0.63447501871E+01  0.47787269962E+02  0.19999995064E+02 0.  0.
        -12    1    1    2    0    0 -0.42841572809E+02 -0.28226144254E+01  0.63447501871E+01  0.43400730038E+02  0.00000000000E+00 0.  1.
         11    1    3    3    0    0  0.24771858952E+02  0.13713403672E+01  0.16103563559E+01  0.24861995459E+02  0.51100000000E-03 0. -1.
        -11    1    3    3    0    0  0.17471568635E+02  0.40115717707E+01 -0.90452804296E+01  0.20078981970E+02  0.51100000000E-03 0.  1.
         12    1    3    3    0    0  0.59814522228E+00 -0.25602977125E+01  0.10901738867E+01  0.28462925336E+01  0.00000000000E+00 0. -1.
</event>
<event>
 7    1  0.1322363E-009  0.4778729E+02  0.7816164E-02  0.1312668E+00
        -11   -1    0    0    0    0  0.00000000000E+00  0.00000000000E+00  0.45593999997E+02  0.45594000000E+02  0.51100000000E-03 0.  1.
         11   -1    0    0    0    0 -0.00000000000E+00 -0.00000000000E+00 -0.45593999997E+02  0.45594000000E+02  0.51100000000E-03 0. -1.
    9900012    2    1    2    0    0 -0.30953498226E+02  0.30361546134E+02  0.19181773842E+01  0.47787286405E+02  0.20000070034E+02 0.  0.
        -12    1    1    2    0    0  0.30953498226E+02 -0.30361546134E+02 -0.19181773842E+01  0.43400713595E+02  0.00000000000E+00 0.  1.
         11    1    3    3    0    0 -0.96881434205E+01  0.11204220752E+02  0.11054438091E+01  0.14853171105E+02  0.51100000000E-03 0. -1.
        -11    1    3    3    0    0 -0.12617210229E+02  0.92194346983E+00  0.15052086216E+01  0.12740079552E+02  0.51100000000E-03 0.  1.
        -12    1    3    3    0    0 -0.86481445762E+01  0.18235381913E+02 -0.69247504644E+00  0.20194035748E+02  0.00000000000E+00 0.  1.
</event>
<event>
 7    1  0.1322363E-009  0.4778726E+02  0.7816164E-02  0.1312668E+00
        -11   -1    0    0    0    0  0.00000000000E+00  0.00000000000E+00  0.45593999997E+02  0.45594000000E+02  0.51100000000E-03 0.  1.
         11   -1    0    0    0    0 -0.00000000000E+00 -0.00000000000E+00 -0.45593999997E+02  0.45594000000E+02  0.51100000000E-03 0. -1.
    9900012    2    1    2    0    0 -0.27688257479E+02 -0.33207712772E+02 -0.37725467777E+01  0.47787263843E+02  0.19999967165E+02 0.  0.
        -12    1    1    2    0    0  0.27688257479E+02  0.33207712772E+02  0.37725467777E+01  0.43400736157E+02  0.00000000000E+00 0.  1.
         11    1    3    3    0    0 -0.97920494805E+01 -0.83924370412E+01 -0.24525976041E+01  0.13127546145E+02  0.51100000000E-03 0. -1.
        -11    1    3    3    0    0  0.19412359022E+01  0.78979873628E+00  0.69134631817E+00  0.22068391116E+01  0.51100000000E-03 0.  1.
        -12    1    3    3    0    0 -0.19837443901E+02 -0.25605074467E+02 -0.20112954917E+01  0.32452878586E+02  0.00000000000E+00 0.  1.
</event>
<event>
 7    1  0.1322363E-009  0.4778727E+02  0.7816164E-02  0.1312668E+00
        -11   -1    0    0    0    0  0.00000000000E+00  0.00000000000E+00  0.45593999997E+02  0.45594000000E+02  0.51100000000E-03 0. -1.
         11   -1    0    0    0    0 -0.00000000000E+00 -0.00000000000E+00 -0.45593999997E+02  0.45594000000E+02  0.51100000000E-03 0.  1.
    9900012    2    1    2    0    0 -0.16106944693E+02  0.40032453745E+02  0.46467753510E+01  0.47787267963E+02  0.19999985949E+02 0.  0.
        -12    1    1    2    0    0  0.16106944693E+02 -0.40032453745E+02 -0.46467753510E+01  0.43400732037E+02  0.00000000000E+00 0.  1.
         11    1    3    3    0    0 -0.96808148118E+00 -0.85530983991E+00 -0.86928384772E+00  0.15570457108E+01  0.51100000000E-03 0. -1.
        -11    1    3    3    0    0 -0.19961877354E+01  0.82222005265E+01 -0.45532068850E+01  0.96083838481E+01  0.51100000000E-03 0.  1.
         12    1    3    3    0    0 -0.13142675477E+02  0.32665563058E+02  0.10069266084E+02  0.36621838404E+02  0.00000000000E+00 0. -1.
</event>
<event>
 7    1  0.1322363E-009  0.4778727E+02  0.7816164E-02  0.1312668E+00
        -11   -1    0    0    0    0  0.00000000000E+00  0.00000000000E+00  0.45593999997E+02  0.45594000000E+02  0.51100000000E-03 0.  1.
         11   -1    0    0    0    0 -0.00000000000E+00 -0.00000000000E+00 -0.45593999997E+02  0.45594000000E+02  0.51100000000E-03 0. -1.
    9900012    2    1    2    0    0 -0.14217840446E+02 -0.26183779330E+02 -0.31557659279E+02  0.47787272516E+02  0.20000006709E+02 0.  0.
        -12    1    1    2    0    0  0.14217840446E+02  0.26183779330E+02  0.31557659279E+02  0.43400727484E+02  0.00000000000E+00 0.  1.
         11    1    3    3    0    0  0.25514349199E+01 -0.25906613762E+00 -0.46995609306E+01  0.53537658349E+01  0.51100000000E-03 0. -1.
        -11    1    3    3    0    0 -0.58670840211E+01 -0.64941212226E+01 -0.18597493326E+01  0.89473433602E+01  0.51100000000E-03 0.  1.
         12    1    3    3    0    0 -0.10902191345E+02 -0.19430591970E+02 -0.24998349016E+02  0.33486163321E+02  0.00000000000E+00 0. -1.
</event>
<event>
 7    1  0.1322363E-009  0.4778727E+02  0.7816164E-02  0.1312668E+00
        -11   -1    0    0    0    0  0.00000000000E+00  0.00000000000E+00  0.45593999997E+02  0.45594000000E+02  0.51100000000E-03 0.  1.
         11   -1    0    0    0    0 -0.00000000000E+00 -0.00000000000E+00 -0.45593999997E+02  0.45594000000E+02  0.51100000000E-03 0. -1.
    9900012    2    1    2    0    0 -0.16539722515E+02 -0.39918848495E+02  0.40677287482E+01  0.47787270706E+02  0.19999998458E+02 0.  0.
        -12    1    1    2    0    0  0.16539722515E+02  0.39918848495E+02 -0.40677287482E+01  0.43400729294E+02  0.00000000000E+00 0.  1.
         11    1    3    3    0    0  0.12854792295E+00 -0.50118295569E+01 -0.36489401065E+01  0.62007841631E+01  0.51100000000E-03 0. -1.
        -11    1    3    3    0    0 -0.42033055021E+01 -0.23099121783E+02  0.65605311226E+01  0.24377813133E+02  0.51100000000E-03 0.  1.
        -12    1    3    3    0    0 -0.12464964935E+02 -0.11807897156E+02  0.11561377321E+01  0.17208673410E+02  0.00000000000E+00 0.  1.
</event>
<event>
 7    1  0.1322363E-009  0.4778727E+02  0.7816164E-02  0.1312668E+00
        -11   -1    0    0    0    0  0.00000000000E+00  0.00000000000E+00  0.45593999997E+02  0.45594000000E+02  0.51100000000E-03 0.  1.
         11   -1    0    0    0    0 -0.00000000000E+00 -0.00000000000E+00 -0.45593999997E+02  0.45594000000E+02  0.51100000000E-03 0. -1.
    9900012    2    1    2    0    0 -0.33817717672E+02 -0.19308778005E+02 -0.19161321736E+02  0.47787272042E+02  0.20000004549E+02 0.  0.
        -12    1    1    2    0    0  0.33817717672E+02  0.19308778005E+02  0.19161321736E+02  0.43400727958E+02  0.00000000000E+00 0.  1.
         11    1    3    3    0    0 -0.55194998158E+01 -0.76496782011E+01  0.15247999374E+01  0.95554942262E+01  0.51100000000E-03 0. -1.
        -11    1    3    3    0    0 -0.13756933573E+02 -0.15190747961E+01 -0.55155313682E+01  0.14899056887E+02  0.51100000000E-03 0.  1.
         12    1    3    3    0    0 -0.14541284283E+02 -0.10140025008E+02 -0.15170590305E+02  0.23332720929E+02  0.00000000000E+00 0. -1.
</event>
<event>
 7    1  0.1322363E-009  0.4778728E+02  0.7816164E-02  0.1312668E+00
        -11   -1    0    0    0    0  0.00000000000E+00  0.00000000000E+00  0.45593999997E+02  0.45594000000E+02  0.51100000000E-03 0.  1.
         11   -1    0    0    0    0 -0.00000000000E+00 -0.00000000000E+00 -0.45593999997E+02  0.45594000000E+02  0.51100000000E-03 0. -1.
    9900012    2    1    2    0    0  0.50626569535E+00  0.20174397803E+02 -0.38423432734E+02  0.47787276334E+02  0.20000024117E+02 0.  0.
        -12    1    1    2    0    0 -0.50626569535E+00 -0.20174397803E+02  0.38423432734E+02  0.43400723666E+02  0.00000000000E+00 0.  1.
         11    1    3    3    0    0  0.50564280183E+01  0.21422851014E+01 -0.90992217042E+01  0.10627920100E+02  0.51100000000E-03 0.  1.
        -11    1    3    3    0    0 -0.57728687756E+01  0.16088668381E+02 -0.30200140739E+02  0.34701869764E+02  0.51100000000E-03 0. -1.
         12    1    3    3    0    0  0.12227064527E+01  0.19434443210E+01  0.87592970946E+00  0.24574864708E+01  0.00000000000E+00 0. -1.
</event>
<event>
 7    1  0.1322363E-009  0.4778728E+02  0.7816164E-02  0.1312668E+00
        -11   -1    0    0    0    0  0.00000000000E+00  0.00000000000E+00  0.45593999997E+02  0.45594000000E+02  0.51100000000E-03 0. -1.
         11   -1    0    0    0    0 -0.00000000000E+00 -0.00000000000E+00 -0.45593999997E+02  0.45594000000E+02  0.51100000000E-03 0.  1.
    9900012    2    1    2    0    0 -0.40853571148E+02 -0.67501158038E+01 -0.13001688383E+02  0.47787282958E+02  0.20000054319E+02 0.  0.
        -12    1    1    2    0    0  0.40853571148E+02  0.67501158038E+01  0.13001688383E+02  0.43400717042E+02  0.00000000000E+00 0.  1.
         11    1    3    3    0    0 -0.19350955962E+02 -0.14070628646E+01  0.18033298652E+01  0.19485669643E+02  0.51100000000E-03 0. -1.
        -11    1    3    3    0    0 -0.17317411208E+02 -0.63166790525E+01 -0.76550247942E+01  0.19959773798E+02  0.51100000000E-03 0.  1.
        -12    1    3    3    0    0 -0.41852039780E+01  0.97362611331E+00 -0.71499934539E+01  0.83418395175E+01  0.00000000000E+00 0.  1.
</event>
<event>
 7    1  0.1322363E-009  0.4778727E+02  0.7816164E-02  0.1312668E+00
        -11   -1    0    0    0    0  0.00000000000E+00  0.00000000000E+00  0.45593999997E+02  0.45594000000E+02  0.51100000000E-03 0. -1.
         11   -1    0    0    0    0 -0.00000000000E+00 -0.00000000000E+00 -0.45593999997E+02  0.45594000000E+02  0.51100000000E-03 0.  1.
    9900012    2    1    2    0    0 -0.30244485701E+02  0.85267951502E+00  0.31115389486E+02  0.47787269124E+02  0.19999991246E+02 0.  0.
        -12    1    1    2    0    0  0.30244485701E+02 -0.85267951502E+00 -0.31115389486E+02  0.43400730876E+02  0.00000000000E+00 0.  1.
         11    1    3    3    0    0 -0.39505238958E+01 -0.71043760688E+01  0.36257067937E+01  0.89008172880E+01  0.51100000000E-03 0. -1.
        -11    1    3    3    0    0 -0.12456202568E+02  0.33625208680E+01  0.12141125156E+02  0.17716389285E+02  0.51100000000E-03 0.  1.
         12    1    3    3    0    0 -0.13837759237E+02  0.45945347159E+01  0.15348557537E+02  0.21170062551E+02  0.00000000000E+00 0. -1.
</event>
<event>
 7    1  0.1322363E-009  0.4778727E+02  0.7816164E-02  0.1312668E+00
        -11   -1    0    0    0    0  0.00000000000E+00  0.00000000000E+00  0.45593999997E+02  0.45594000000E+02  0.51100000000E-03 0.  1.
         11   -1    0    0    0    0 -0.00000000000E+00 -0.00000000000E+00 -0.45593999997E+02  0.45594000000E+02  0.51100000000E-03 0. -1.
    9900012    2    1    2    0    0 -0.24372360353E+02  0.77227225965E+00 -0.35902854642E+02  0.47787270455E+02  0.19999997311E+02 0.  0.
        -12    1    1    2    0    0  0.24372360353E+02 -0.77227225965E+00  0.35902854642E+02  0.43400729545E+02  0.00000000000E+00 0.  1.
         11    1    3    3    0    0 -0.96943976030E+01 -0.79676255746E+00 -0.15457800424E+02  0.18263618746E+02  0.51100000000E-03 0. -1.
        -11    1    3    3    0    0 -0.55726731836E+01  0.77605402971E+01 -0.57146696888E+01  0.11132749976E+02  0.51100000000E-03 0.  1.
         12    1    3    3    0    0 -0.91052895668E+01 -0.61915054800E+01 -0.14730384528E+02  0.18390901733E+02  0.00000000000E+00 0. -1.
</event>
<event>
 7    1  0.1322363E-009  0.4778727E+02  0.7816164E-02  0.1312668E+00
        -11   -1    0    0    0    0  0.00000000000E+00  0.00000000000E+00  0.45593999997E+02  0.45594000000E+02  0.51100000000E-03 0. -1.
         11   -1    0    0    0    0 -0.00000000000E+00 -0.00000000000E+00 -0.45593999997E+02  0.45594000000E+02  0.51100000000E-03 0.  1.
    9900012    2    1    2    0    0  0.22429331461E+02  0.18981475073E+02  0.31941384587E+02  0.47787270109E+02  0.19999995737E+02 0.  0.
        -12    1    1    2    0    0 -0.22429331461E+02 -0.18981475073E+02 -0.31941384587E+02  0.43400729891E+02  0.00000000000E+00 0.  1.
         11    1    3    3    0    0  0.88268122526E+01  0.26671483749E+01  0.15285133790E+02  0.17851095492E+02  0.51100000000E-03 0. -1.
        -11    1    3    3    0    0  0.73373274606E+01  0.28586808098E+01  0.34440065204E+00  0.78820709402E+01  0.51100000000E-03 0.  1.
         12    1    3    3    0    0  0.62651917481E+01  0.13455645888E+02  0.16311850144E+02  0.22054103678E+02  0.00000000000E+00 0. -1.
</event>
<event>
 7    1  0.1322363E-009  0.4778727E+02  0.7816164E-02  0.1312668E+00
        -11   -1    0    0    0    0  0.00000000000E+00  0.00000000000E+00  0.45593999997E+02  0.45594000000E+02  0.51100000000E-03 0.  1.
         11   -1    0    0    0    0 -0.00000000000E+00 -0.00000000000E+00 -0.45593999997E+02  0.45594000000E+02  0.51100000000E-03 0. -1.
    9900012    2    1    2    0    0 -0.11215292330E+01  0.24487401560E+02 -0.35815263247E+02  0.47787265623E+02  0.19999975281E+02 0.  0.
        -12    1    1    2    0    0  0.11215292330E+01 -0.24487401560E+02  0.35815263247E+02  0.43400734377E+02  0.00000000000E+00 0.  1.
         11    1    3    3    0    0 -0.24818836097E+01  0.14955707703E+02 -0.64136958402E+01  0.16461118849E+02  0.51100000000E-03 0. -1.
        -11    1    3    3    0    0  0.46979626302E+00 -0.21214960154E+00 -0.51415238917E+01  0.51672995048E+01  0.51100000000E-03 0.  1.
         12    1    3    3    0    0  0.89055811376E+00  0.97438434584E+01 -0.24260043515E+02  0.26158847269E+02  0.00000000000E+00 0. -1.
</event>
<event>
 7    1  0.1322363E-009  0.4778727E+02  0.7816164E-02  0.1312668E+00
        -11   -1    0    0    0    0  0.00000000000E+00  0.00000000000E+00  0.45593999997E+02  0.45594000000E+02  0.51100000000E-03 0. -1.
         11   -1    0    0    0    0 -0.00000000000E+00 -0.00000000000E+00 -0.45593999997E+02  0.45594000000E+02  0.51100000000E-03 0.  1.
    9900012    2    1    2    0    0 -0.21522639118E+02  0.34568961142E+02 -0.15012873713E+02  0.47787269059E+02  0.19999990949E+02 0.  0.
        -12    1    1    2    0    0  0.21522639118E+02 -0.34568961142E+02  0.15012873713E+02  0.43400730941E+02  0.00000000000E+00 0.  1.
         11    1    3    3    0    0 -0.15978097530E+01 -0.48569697056E+00 -0.22578825610E+00  0.16851938025E+01  0.51100000000E-03 0. -1.
        -11    1    3    3    0    0 -0.52646280843E+01  0.18799337425E+02  0.28609683276E+00  0.19524683048E+02  0.51100000000E-03 0.  1.
         12    1    3    3    0    0 -0.14660201281E+02  0.16255320687E+02 -0.15073182290E+02  0.26577392208E+02  0.00000000000E+00 0. -1.
</event>
<event>
 7    1  0.1322363E-009  0.4778727E+02  0.7816164E-02  0.1312668E+00
        -11   -1    0    0    0    0  0.00000000000E+00  0.00000000000E+00  0.45593999997E+02  0.45594000000E+02  0.51100000000E-03 0.  1.
         11   -1    0    0    0    0 -0.00000000000E+00 -0.00000000000E+00 -0.45593999997E+02  0.45594000000E+02  0.51100000000E-03 0. -1.
    9900012    2    1    2    0    0  0.18051454253E+02  0.39397745471E+02  0.23634500233E+01  0.47787271379E+02  0.20000001527E+02 0.  0.
        -12    1    1    2    0    0 -0.18051454253E+02 -0.39397745471E+02 -0.23634500233E+01  0.43400728621E+02  0.00000000000E+00 0.  1.
         11    1    3    3    0    0  0.26873210498E+00  0.14529271330E+01 -0.99668528801E+00  0.17823007665E+01  0.51100000000E-03 0. -1.
        -11    1    3    3    0    0 -0.28159157944E+01  0.65869914467E+01 -0.33218492174E+01  0.78963612230E+01  0.51100000000E-03 0.  1.
         12    1    3    3    0    0  0.20598637942E+02  0.31357826891E+02  0.66819845287E+01  0.38108609390E+02  0.00000000000E+00 0. -1.
</event>
<event>
 7    1  0.1322363E-009  0.4778727E+02  0.7816164E-02  0.1312668E+00
        -11   -1    0    0    0    0  0.00000000000E+00  0.00000000000E+00  0.45593999997E+02  0.45594000000E+02  0.51100000000E-03 0.  1.
         11   -1    0    0    0    0 -0.00000000000E+00 -0.00000000000E+00 -0.45593999997E+02  0.45594000000E+02  0.51100000000E-03 0. -1.
    9900012    2    1    2    0    0 -0.18720289154E+02 -0.15505253019E+02 -0.35954987560E+02  0.47787271577E+02  0.20000002430E+02 0.  0.
        -12    1    1    2    0    0  0.18720289154E+02  0.15505253019E+02  0.35954987560E+02  0.43400728423E+02  0.00000000000E+00 0.  1.
         11    1    3    3    0    0 -0.58489563712E+01  0.36229851084E+01 -0.99704763719E+01  0.12113905690E+02  0.51100000000E-03 0. -1.
        -11    1    3    3    0    0  0.13364636285E+00 -0.44851520574E+01 -0.26568568373E+01  0.52147232758E+01  0.51100000000E-03 0.  1.
         12    1    3    3    0    0 -0.13004979146E+02 -0.14643086070E+02 -0.23327654350E+02  0.30458642611E+02  0.00000000000E+00 0. -1.
</event>
<event>
 7    1  0.1322363E-009  0.4778727E+02  0.7816164E-02  0.1312668E+00
        -11   -1    0    0    0    0  0.00000000000E+00  0.00000000000E+00  0.45593999997E+02  0.45594000000E+02  0.51100000000E-03 0.  1.
         11   -1    0    0    0    0 -0.00000000000E+00 -0.00000000000E+00 -0.45593999997E+02  0.45594000000E+02  0.51100000000E-03 0. -1.
    9900012    2    1    2    0    0 -0.30332649249E+02  0.27508556596E+02 -0.14381692333E+02  0.47787269928E+02  0.19999994909E+02 0.  0.
        -12    1    1    2    0    0  0.30332649249E+02 -0.27508556596E+02  0.14381692333E+02  0.43400730072E+02  0.00000000000E+00 0.  1.
         11    1    3    3    0    0 -0.25396102743E+02  0.23555934630E+02 -0.95221545707E+01  0.35923745890E+02  0.51100000000E-03 0. -1.
        -11    1    3    3    0    0 -0.58256619802E+01  0.42209283722E+01 -0.28930113258E+00  0.71998798072E+01  0.51100000000E-03 0.  1.
        -12    1    3    3    0    0  0.88911547443E+00 -0.26830640685E+00 -0.45702366302E+01  0.46636442307E+01  0.00000000000E+00 0.  1.
</event>
<event>
 7    1  0.1322363E-009  0.4778725E+02  0.7816164E-02  0.1312668E+00
        -11   -1    0    0    0    0  0.00000000000E+00  0.00000000000E+00  0.45593999997E+02  0.45594000000E+02  0.51100000000E-03 0.  1.
         11   -1    0    0    0    0 -0.00000000000E+00 -0.00000000000E+00 -0.45593999997E+02  0.45594000000E+02  0.51100000000E-03 0. -1.
    9900012    2    1    2    0    0 -0.17822966924E+02  0.37198829502E+02 -0.13498679307E+02  0.47787246443E+02  0.19999887831E+02 0.  0.
        -12    1    1    2    0    0  0.17822966924E+02 -0.37198829502E+02  0.13498679307E+02  0.43400753557E+02  0.00000000000E+00 0.  1.
         11    1    3    3    0    0 -0.30479453577E+01  0.50962204373E+01 -0.72633212925E+00  0.59823901805E+01  0.51100000000E-03 0. -1.
        -11    1    3    3    0    0 -0.18241646751E+02  0.19959388393E+02 -0.70686358574E+01  0.27948174795E+02  0.51100000000E-03 0.  1.
         12    1    3    3    0    0  0.34666251851E+01  0.12143220671E+02 -0.57037113208E+01  0.13856681467E+02  0.00000000000E+00 0. -1.
</event>
<event>
 7    1  0.1322363E-009  0.4778726E+02  0.7816164E-02  0.1312668E+00
        -11   -1    0    0    0    0  0.00000000000E+00  0.00000000000E+00  0.45593999997E+02  0.45594000000E+02  0.51100000000E-03 0.  1.
         11   -1    0    0    0    0 -0.00000000000E+00 -0.00000000000E+00 -0.45593999997E+02  0.45594000000E+02  0.51100000000E-03 0. -1.
    9900012    2    1    2    0    0 -0.36557123414E+02 -0.20226228717E+01 -0.23304713930E+02  0.47787263059E+02  0.19999963593E+02 0.  0.
        -12    1    1    2    0    0  0.36557123414E+02  0.20226228717E+01  0.23304713930E+02  0.43400736941E+02  0.00000000000E+00 0.  1.
         11    1    3    3    0    0 -0.13282224128E+02 -0.55484308998E+01 -0.10741957948E+02  0.17960852542E+02  0.51100000000E-03 0. -1.
        -11    1    3    3    0    0  0.71494605638E+00 -0.22498842570E+01 -0.13890874174E+01  0.27391040776E+01  0.51100000000E-03 0.  1.
         12    1    3    3    0    0 -0.23989845343E+02  0.57756922851E+01 -0.11173668565E+02  0.27087306439E+02  0.00000000000E+00 0. -1.
</event>
<event>
 7    1  0.1322363E-009  0.4778728E+02  0.7816164E-02  0.1312668E+00
        -11   -1    0    0    0    0  0.00000000000E+00  0.00000000000E+00  0.45593999997E+02  0.45594000000E+02  0.51100000000E-03 0.  1.
         11   -1    0    0    0    0 -0.00000000000E+00 -0.00000000000E+00 -0.45593999997E+02  0.45594000000E+02  0.51100000000E-03 0. -1.
    9900012    2    1    2    0    0  0.63708604858E+01 -0.38220806696E+01 -0.42760105430E+02  0.47787276730E+02  0.20000025923E+02 0.  0.
        -12    1    1    2    0    0 -0.63708604858E+01  0.38220806696E+01  0.42760105430E+02  0.43400723270E+02  0.00000000000E+00 0.  1.
         11    1    3    3    0    0  0.31201978380E+01  0.16225828155E+01 -0.11201318288E+01  0.36909490807E+01  0.51100000000E-03 0. -1.
        -11    1    3    3    0    0 -0.19946367840E+01 -0.10770113533E+01 -0.40806590219E+00  0.23032688503E+01  0.51100000000E-03 0.  1.
         12    1    3    3    0    0  0.52452994317E+01 -0.43676521319E+01 -0.41231907699E+02  0.41793058799E+02  0.00000000000E+00 0. -1.
</event>
<event>
 7    1  0.1322363E-009  0.4778727E+02  0.7816164E-02  0.1312668E+00
        -11   -1    0    0    0    0  0.00000000000E+00  0.00000000000E+00  0.45593999997E+02  0.45594000000E+02  0.51100000000E-03 0.  1.
         11   -1    0    0    0    0 -0.00000000000E+00 -0.00000000000E+00 -0.45593999997E+02  0.45594000000E+02  0.51100000000E-03 0. -1.
    9900012    2    1    2    0    0  0.37479596286E+02  0.46922374040E+01 -0.21374902678E+02  0.47787266203E+02  0.19999977925E+02 0.  0.
        -12    1    1    2    0    0 -0.37479596286E+02 -0.46922374040E+01  0.21374902678E+02  0.43400733797E+02  0.00000000000E+00 0.  1.
         11    1    3    3    0    0  0.20633658149E+02  0.50816301171E+00 -0.83380635592E+01  0.22260489267E+02  0.51100000000E-03 0. -1.
        -11    1    3    3    0    0  0.10365734526E+02 -0.13065540425E+01 -0.13440586172E+02  0.17023656853E+02  0.51100000000E-03 0.  1.
        -12    1    3    3    0    0  0.64802036116E+01  0.54906284347E+01  0.40374705367E+00  0.85031200826E+01  0.00000000000E+00 0.  1.
</event>
<event>
 7    1  0.1322363E-009  0.4778728E+02  0.7816164E-02  0.1312668E+00
        -11   -1    0    0    0    0  0.00000000000E+00  0.00000000000E+00  0.45593999997E+02  0.45594000000E+02  0.51100000000E-03 0.  1.
         11   -1    0    0    0    0 -0.00000000000E+00 -0.00000000000E+00 -0.45593999997E+02  0.45594000000E+02  0.51100000000E-03 0. -1.
    9900012    2    1    2    0    0  0.38752070567E+01  0.39760464311E+02 -0.16962043319E+02  0.47787278053E+02  0.20000031956E+02 0.  0.
        -12    1    1    2    0    0 -0.38752070567E+01 -0.39760464311E+02  0.16962043319E+02  0.43400721947E+02  0.00000000000E+00 0.  1.
         11    1    3    3    0    0 -0.51043150892E+01  0.19617422659E+02 -0.19086322285E+01  0.20360259860E+02  0.51100000000E-03 0. -1.
        -11    1    3    3    0    0  0.30850888728E+00 -0.29623119759E+00  0.21749747981E+00  0.47982921003E+00  0.51100000000E-03 0.  1.
         12    1    3    3    0    0  0.86710132586E+01  0.20439272849E+02 -0.15270908570E+02  0.26947188983E+02  0.00000000000E+00 0. -1.
</event>
<event>
 7    1  0.1322363E-009  0.4778727E+02  0.7816164E-02  0.1312668E+00
        -11   -1    0    0    0    0  0.00000000000E+00  0.00000000000E+00  0.45593999997E+02  0.45594000000E+02  0.51100000000E-03 0. -1.
         11   -1    0    0    0    0 -0.00000000000E+00 -0.00000000000E+00 -0.45593999997E+02  0.45594000000E+02  0.51100000000E-03 0.  1.
    9900012    2    1    2    0    0 -0.14533209060E+02  0.97166469817E+01  0.39723994280E+02  0.47787272867E+02  0.20000008309E+02 0.  0.
        -12    1    1    2    0    0  0.14533209060E+02 -0.97166469817E+01 -0.39723994280E+02  0.43400727133E+02  0.00000000000E+00 0.  1.
         11    1    3    3    0    0 -0.16369398079E+01  0.95228980153E+01  0.17706144456E+02  0.20171085997E+02  0.51100000000E-03 0. -1.
        -11    1    3    3    0    0 -0.10572908601E+01 -0.35509155255E+01  0.84359344240E+01  0.92136775990E+01  0.51100000000E-03 0.  1.
        -12    1    3    3    0    0 -0.11838978392E+02  0.37446644919E+01  0.13581915400E+02  0.18402509271E+02  0.00000000000E+00 0.  1.
</event>
<event>
 7    1  0.1322363E-009  0.4778727E+02  0.7816164E-02  0.1312668E+00
        -11   -1    0    0    0    0  0.00000000000E+00  0.00000000000E+00  0.45593999997E+02  0.45594000000E+02  0.51100000000E-03 0.  1.
         11   -1    0    0    0    0 -0.00000000000E+00 -0.00000000000E+00 -0.45593999997E+02  0.45594000000E+02  0.51100000000E-03 0. -1.
    9900012    2    1    2    0    0  0.28203407072E+02 -0.53109050196E+01 -0.32557419564E+02  0.47787269001E+02  0.19999990683E+02 0.  0.
        -12    1    1    2    0    0 -0.28203407072E+02  0.53109050196E+01  0.32557419564E+02  0.43400730999E+02  0.00000000000E+00 0.  1.
         11    1    3    3    0    0  0.14973331302E+02 -0.17798765917E+01 -0.25916714611E+02  0.29984074230E+02  0.51100000000E-03 0. -1.
        -11    1    3    3    0    0  0.44242638301E+01 -0.59198315708E+01 -0.31620664223E+01  0.80384812362E+01  0.51100000000E-03 0.  1.
        -12    1    3    3    0    0  0.88058119403E+01  0.23888031429E+01 -0.34786385305E+01  0.97647135344E+01  0.00000000000E+00 0.  1.
</event>
<event>
 7    1  0.1322363E-009  0.4778727E+02  0.7816164E-02  0.1312668E+00
        -11   -1    0    0    0    0  0.00000000000E+00  0.00000000000E+00  0.45593999997E+02  0.45594000000E+02  0.51100000000E-03 0.  1.
         11   -1    0    0    0    0 -0.00000000000E+00 -0.00000000000E+00 -0.45593999997E+02  0.45594000000E+02  0.51100000000E-03 0. -1.
    9900012    2    1    2    0    0  0.22752795275E+02 -0.35599414589E+02 -0.99305201788E+01  0.47787271401E+02  0.20000001625E+02 0.  0.
        -12    1    1    2    0    0 -0.22752795275E+02  0.35599414589E+02  0.99305201788E+01  0.43400728599E+02  0.00000000000E+00 0.  1.
         11    1    3    3    0    0  0.35233483939E+01 -0.74313806025E+01  0.19013546188E+01  0.84412410943E+01  0.51100000000E-03 0. -1.
        -11    1    3    3    0    0  0.14673514830E+02 -0.84402948123E+01 -0.27269977670E+01  0.17146052930E+02  0.51100000000E-03 0.  1.
        -12    1    3    3    0    0  0.45559320506E+01 -0.19727739174E+02 -0.91048770306E+01  0.22199977377E+02  0.00000000000E+00 0.  1.
</event>
<event>
 7    1  0.1322363E-009  0.4778727E+02  0.7816164E-02  0.1312668E+00
        -11   -1    0    0    0    0  0.00000000000E+00  0.00000000000E+00  0.45593999997E+02  0.45594000000E+02  0.51100000000E-03 0.  1.
         11   -1    0    0    0    0 -0.00000000000E+00 -0.00000000000E+00 -0.45593999997E+02  0.45594000000E+02  0.51100000000E-03 0. -1.
    9900012    2    1    2    0    0  0.15709570053E+02  0.70366479294E+01 -0.39841161848E+02  0.47787272094E+02  0.20000004787E+02 0.  0.
        -12    1    1    2    0    0 -0.15709570053E+02 -0.70366479294E+01  0.39841161848E+02  0.43400727906E+02  0.00000000000E+00 0.  1.
         11    1    3    3    0    0  0.31399675157E+01 -0.56434520458E+01 -0.10594439123E+02  0.12407662454E+02  0.51100000000E-03 0. -1.
        -11    1    3    3    0    0  0.92233635540E+01  0.42390591059E+01 -0.10814257083E+02  0.14831999659E+02  0.51100000000E-03 0.  1.
         12    1    3    3    0    0  0.33462389833E+01  0.84410408693E+01 -0.18432465642E+02  0.20547609981E+02  0.00000000000E+00 0. -1.
</event>
<event>
 7    1  0.1322363E-009  0.4778727E+02  0.7816164E-02  0.1312668E+00
        -11   -1    0    0    0    0  0.00000000000E+00  0.00000000000E+00  0.45593999997E+02  0.45594000000E+02  0.51100000000E-03 0.  1.
         11   -1    0    0    0    0 -0.00000000000E+00 -0.00000000000E+00 -0.45593999997E+02  0.45594000000E+02  0.51100000000E-03 0. -1.
    9900012    2    1    2    0    0 -0.51512754559E+01 -0.27077578530E+02 -0.33524499073E+02  0.47787274937E+02  0.20000017749E+02 0.  0.
        -12    1    1    2    0    0  0.51512754559E+01  0.27077578530E+02  0.33524499073E+02  0.43400725063E+02  0.00000000000E+00 0.  1.
         11    1    3    3    0    0 -0.70416731301E+01 -0.26002071145E+02 -0.21079595464E+02  0.34205879750E+02  0.51100000000E-03 0. -1.
        -11    1    3    3    0    0  0.28354128771E+01 -0.47109703907E+00 -0.33350402187E+01  0.44027255338E+01  0.51100000000E-03 0.  1.
         12    1    3    3    0    0 -0.94501520292E+00 -0.60441034529E+00 -0.91098633910E+01  0.91786696531E+01  0.00000000000E+00 0. -1.
</event>
<event>
 7    1  0.1322363E-009  0.4778727E+02  0.7816164E-02  0.1312668E+00
        -11   -1    0    0    0    0  0.00000000000E+00  0.00000000000E+00  0.45593999997E+02  0.45594000000E+02  0.51100000000E-03 0.  1.
         11   -1    0    0    0    0 -0.00000000000E+00 -0.00000000000E+00 -0.45593999997E+02  0.45594000000E+02  0.51100000000E-03 0. -1.
    9900012    2    1    2    0    0 -0.60377806953E+01 -0.13497713277E+02 -0.40804171495E+02  0.47787268776E+02  0.19999989656E+02 0.  0.
        -12    1    1    2    0    0  0.60377806953E+01  0.13497713277E+02  0.40804171495E+02  0.43400731224E+02  0.00000000000E+00 0.  1.
         11    1    3    3    0    0 -0.48614190191E+01 -0.56518913208E+01 -0.16483270681E+02  0.18090756838E+02  0.51100000000E-03 0. -1.
        -11    1    3    3    0    0  0.39710401466E+01 -0.90909278686E+01 -0.86741235066E+01  0.13177805137E+02  0.51100000000E-03 0.  1.
        -12    1    3    3    0    0 -0.51474018228E+01  0.12451059125E+01 -0.15646777307E+02  0.16518706800E+02  0.00000000000E+00 0.  1.
</event>
<event>
 7    1  0.1322363E-009  0.4778727E+02  0.7816164E-02  0.1312668E+00
        -11   -1    0    0    0    0  0.00000000000E+00  0.00000000000E+00  0.45593999997E+02  0.45594000000E+02  0.51100000000E-03 0.  1.
         11   -1    0    0    0    0 -0.00000000000E+00 -0.00000000000E+00 -0.45593999997E+02  0.45594000000E+02  0.51100000000E-03 0. -1.
    9900012    2    1    2    0    0  0.16642406697E+02 -0.39228913704E+02 -0.82307901620E+01  0.47787271000E+02  0.19999999798E+02 0.  0.
        -12    1    1    2    0    0 -0.16642406697E+02  0.39228913704E+02  0.82307901620E+01  0.43400729000E+02  0.00000000000E+00 0.  1.
         11    1    3    3    0    0  0.16491870098E+02 -0.23420299655E+02 -0.12779448109E+01  0.28672728479E+02  0.51100000000E-03 0.  1.
        -11    1    3    3    0    0  0.32803957625E+01 -0.24781966111E+01 -0.15212281358E+01  0.43836731293E+01  0.51100000000E-03 0. -1.
        -12    1    3    3    0    0 -0.31298591642E+01 -0.13330417438E+02 -0.54316172153E+01  0.14730869392E+02  0.00000000000E+00 0.  1.
</event>
<event>
 7    1  0.1509708E-009  0.4778728E+02  0.7816164E-02  0.1312668E+00
        -11   -1    0    0    0    0  0.00000000000E+00  0.00000000000E+00  0.45593999997E+02  0.45594000000E+02  0.51100000000E-03 0.  1.
         11   -1    0    0    0    0 -0.00000000000E+00 -0.00000000000E+00 -0.45593999997E+02  0.45594000000E+02  0.51100000000E-03 0. -1.
    9900012    2    1    2    0    0 -0.15283938350E+02 -0.38069173966E+02 -0.14169048233E+02  0.47787277590E+02  0.20000029843E+02 0.  0.
        -12    1    1    2    0    0  0.15283938350E+02  0.38069173966E+02  0.14169048233E+02  0.43400722410E+02  0.00000000000E+00 0.  1.
         11    1    3    3    0    0 -0.11283811197E+02 -0.17669132278E+02 -0.35115233655E+01  0.21256844244E+02  0.51100000000E-03 0. -1.
        -11    1    3    3    0    0  0.32197624057E+01 -0.65849003749E+01  0.52121611541E+00  0.73484317645E+01  0.51100000000E-03 0.  1.
         12    1    3    3    0    0 -0.72198895587E+01 -0.13815141312E+02 -0.11178740983E+02  0.19182001582E+02  0.00000000000E+00 0. -1.
</event>
<event>
 7    1  0.1322363E-009  0.4778727E+02  0.7816164E-02  0.1312668E+00
        -11   -1    0    0    0    0  0.00000000000E+00  0.00000000000E+00  0.45593999997E+02  0.45594000000E+02  0.51100000000E-03 0.  1.
         11   -1    0    0    0    0 -0.00000000000E+00 -0.00000000000E+00 -0.45593999997E+02  0.45594000000E+02  0.51100000000E-03 0. -1.
    9900012    2    1    2    0    0  0.37647214412E+02  0.12708992373E+02 -0.17458289291E+02  0.47787272989E+02  0.20000008865E+02 0.  0.
        -12    1    1    2    0    0 -0.37647214412E+02 -0.12708992373E+02  0.17458289291E+02  0.43400727011E+02  0.00000000000E+00 0.  1.
         11    1    3    3    0    0  0.18128512220E+02  0.11861182372E+02 -0.56585736800E+01  0.22390847660E+02  0.51100000000E-03 0. -1.
        -11    1    3    3    0    0  0.59350466718E+01 -0.14010714204E+01  0.14714789498E+01  0.62731993976E+01  0.51100000000E-03 0.  1.
         12    1    3    3    0    0  0.13583655520E+02  0.22488814217E+01 -0.13271194561E+02  0.19123225932E+02  0.00000000000E+00 0. -1.
</event>
<event>
 7    1  0.1322363E-009  0.4778729E+02  0.7816164E-02  0.1312668E+00
        -11   -1    0    0    0    0  0.00000000000E+00  0.00000000000E+00  0.45593999997E+02  0.45594000000E+02  0.51100000000E-03 0.  1.
         11   -1    0    0    0    0 -0.00000000000E+00 -0.00000000000E+00 -0.45593999997E+02  0.45594000000E+02  0.51100000000E-03 0. -1.
    9900012    2    1    2    0    0  0.21368931831E+02 -0.12310041310E+02 -0.35713486708E+02  0.47787291509E+02  0.20000093306E+02 0.  0.
        -12    1    1    2    0    0 -0.21368931831E+02  0.12310041310E+02  0.35713486708E+02  0.43400708491E+02  0.00000000000E+00 0.  1.
         11    1    3    3    0    0  0.75681037225E+01 -0.11178752247E+01 -0.42996694664E+01  0.87757049149E+01  0.51100000000E-03 0.  1.
        -11    1    3    3    0    0  0.43495345910E+01 -0.24934342023E+01 -0.23266669973E+02  0.23800705812E+02  0.51100000000E-03 0. -1.
         12    1    3    3    0    0  0.94512935175E+01 -0.86987318834E+01 -0.81471472691E+01  0.15210880782E+02  0.00000000000E+00 0. -1.
</event>
<event>
 7    1  0.1322363E-009  0.4778727E+02  0.7816164E-02  0.1312668E+00
        -11   -1    0    0    0    0  0.00000000000E+00  0.00000000000E+00  0.45593999997E+02  0.45594000000E+02  0.51100000000E-03 0. -1.
         11   -1    0    0    0    0 -0.00000000000E+00 -0.00000000000E+00 -0.45593999997E+02  0.45594000000E+02  0.51100000000E-03 0.  1.
    9900012    2    1    2    0    0  0.26511791594E+02  0.25452266279E+02  0.23085277854E+02  0.47787274132E+02  0.20000014078E+02 0.  0.
        -12    1    1    2    0    0 -0.26511791594E+02 -0.25452266279E+02 -0.23085277854E+02  0.43400725868E+02  0.00000000000E+00 0.  1.
         11    1    3    3    0    0  0.45817119743E+01  0.59907697868E+01  0.94052446288E+01  0.12055705456E+02  0.51100000000E-03 0. -1.
        -11    1    3    3    0    0 -0.15299725652E+01  0.54364904517E+01  0.29127049188E+01  0.63545333965E+01  0.51100000000E-03 0.  1.
        -12    1    3    3    0    0  0.23460052185E+02  0.14025006041E+02  0.10767328306E+02  0.29377035280E+02  0.00000000000E+00 0.  1.
</event>
<event>
 7    1  0.1322363E-009  0.4778727E+02  0.7816164E-02  0.1312668E+00
        -11   -1    0    0    0    0  0.00000000000E+00  0.00000000000E+00  0.45593999997E+02  0.45594000000E+02  0.51100000000E-03 0.  1.
         11   -1    0    0    0    0 -0.00000000000E+00 -0.00000000000E+00 -0.45593999997E+02  0.45594000000E+02  0.51100000000E-03 0. -1.
    9900012    2    1    2    0    0 -0.29100153093E+02 -0.28903155996E+02 -0.14191964462E+02  0.47787271989E+02  0.20000004307E+02 0.  0.
        -12    1    1    2    0    0  0.29100153093E+02  0.28903155996E+02  0.14191964462E+02  0.43400728011E+02  0.00000000000E+00 0.  1.
         11    1    3    3    0    0 -0.11329000579E+02 -0.15298618200E+02 -0.86176857048E+01  0.20896374808E+02  0.51100000000E-03 0. -1.
        -11    1    3    3    0    0 -0.11772447220E+02 -0.15844201662E+02 -0.28967181532E+01  0.19950444010E+02  0.51100000000E-03 0.  1.
        -12    1    3    3    0    0 -0.59987052943E+01  0.22396638659E+01 -0.26775606037E+01  0.69404531716E+01  0.00000000000E+00 0.  1.
</event>
<event>
 7    1  0.1322363E-009  0.4778727E+02  0.7816164E-02  0.1312668E+00
        -11   -1    0    0    0    0  0.00000000000E+00  0.00000000000E+00  0.45593999997E+02  0.45594000000E+02  0.51100000000E-03 0.  1.
         11   -1    0    0    0    0 -0.00000000000E+00 -0.00000000000E+00 -0.45593999997E+02  0.45594000000E+02  0.51100000000E-03 0. -1.
    9900012    2    1    2    0    0  0.13066172604E+02 -0.19637324780E+02 -0.36431774106E+02  0.47787267799E+02  0.19999985205E+02 0.  0.
        -12    1    1    2    0    0 -0.13066172604E+02  0.19637324780E+02  0.36431774106E+02  0.43400732201E+02  0.00000000000E+00 0.  1.
         11    1    3    3    0    0  0.58977986388E+01 -0.71016093252E+01 -0.22629419200E+02  0.24439875151E+02  0.51100000000E-03 0. -1.
        -11    1    3    3    0    0 -0.33684453632E+01 -0.19952270505E+01 -0.32118200812E+01  0.50639059670E+01  0.51100000000E-03 0.  1.
        -12    1    3    3    0    0  0.10536819328E+02 -0.10540488404E+02 -0.10590534825E+02  0.18283486682E+02  0.00000000000E+00 0.  1.
</event>
<event>
 7    1  0.1322363E-009  0.4778723E+02  0.7816164E-02  0.1312668E+00
        -11   -1    0    0    0    0  0.00000000000E+00  0.00000000000E+00  0.45593999997E+02  0.45594000000E+02  0.51100000000E-03 0.  1.
         11   -1    0    0    0    0 -0.00000000000E+00 -0.00000000000E+00 -0.45593999997E+02  0.45594000000E+02  0.51100000000E-03 0. -1.
    9900012    2    1    2    0    0 -0.25555739655E+02 -0.77397555350E+01 -0.34214424161E+02  0.47787234272E+02  0.19999832341E+02 0.  0.
        -12    1    1    2    0    0  0.25555739655E+02  0.77397555350E+01  0.34214424161E+02  0.43400765728E+02  0.00000000000E+00 0.  1.
         11    1    3    3    0    0 -0.95335688208E+01  0.11689750532E+01 -0.67573706023E+01  0.11743827947E+02  0.51100000000E-03 0. -1.
        -11    1    3    3    0    0 -0.77709837853E+01  0.34400631142E+01 -0.99229399674E+01  0.13064722005E+02  0.51100000000E-03 0.  1.
         12    1    3    3    0    0 -0.82511870488E+01 -0.12348793702E+02 -0.17534113592E+02  0.22978684320E+02  0.00000000000E+00 0. -1.
</event>
<event>
 7    1  0.1322363E-009  0.4778727E+02  0.7816164E-02  0.1312668E+00
        -11   -1    0    0    0    0  0.00000000000E+00  0.00000000000E+00  0.45593999997E+02  0.45594000000E+02  0.51100000000E-03 0.  1.
         11   -1    0    0    0    0 -0.00000000000E+00 -0.00000000000E+00 -0.45593999997E+02  0.45594000000E+02  0.51100000000E-03 0. -1.
    9900012    2    1    2    0    0 -0.35063452214E+02  0.18760111882E+02 -0.17384928754E+02  0.47787271587E+02  0.20000002475E+02 0.  0.
        -12    1    1    2    0    0  0.35063452214E+02 -0.18760111882E+02  0.17384928754E+02  0.43400728413E+02  0.00000000000E+00 0.  1.
         11    1    3    3    0    0 -0.25559368216E+02  0.50076566386E+01 -0.10528125216E+02  0.28092692100E+02  0.51100000000E-03 0. -1.
        -11    1    3    3    0    0 -0.33624339049E+01  0.48159091316E+01 -0.66178456669E+01  0.88484362494E+01  0.51100000000E-03 0.  1.
        -12    1    3    3    0    0 -0.61416500938E+01  0.89365461116E+01 -0.23895787114E+00  0.10846143238E+02  0.00000000000E+00 0.  1.
</event>
<event>
 7    1  0.1322363E-009  0.4778727E+02  0.7816164E-02  0.1312668E+00
        -11   -1    0    0    0    0  0.00000000000E+00  0.00000000000E+00  0.45593999997E+02  0.45594000000E+02  0.51100000000E-03 0. -1.
         11   -1    0    0    0    0 -0.00000000000E+00 -0.00000000000E+00 -0.45593999997E+02  0.45594000000E+02  0.51100000000E-03 0.  1.
    9900012    2    1    2    0    0  0.75083128398E-01 -0.34234902272E+02  0.26675628227E+02  0.47787270601E+02  0.19999997977E+02 0.  0.
        -12    1    1    2    0    0 -0.75083128398E-01  0.34234902272E+02 -0.26675628227E+02  0.43400729399E+02  0.00000000000E+00 0.  1.
         11    1    3    3    0    0  0.51739932508E+01 -0.13375762617E+02  0.45157701286E+01  0.15035737822E+02  0.51100000000E-03 0. -1.
        -11    1    3    3    0    0 -0.19031833559E+01  0.81080703586E+00  0.10066165425E+01  0.23006068896E+01  0.51100000000E-03 0.  1.
         12    1    3    3    0    0 -0.31957267664E+01 -0.21669946691E+02  0.21153241556E+02  0.30450925889E+02  0.00000000000E+00 0. -1.
</event>
<event>
 7    1  0.1322363E-009  0.4778728E+02  0.7816164E-02  0.1312668E+00
        -11   -1    0    0    0    0  0.00000000000E+00  0.00000000000E+00  0.45593999997E+02  0.45594000000E+02  0.51100000000E-03 0.  1.
         11   -1    0    0    0    0 -0.00000000000E+00 -0.00000000000E+00 -0.45593999997E+02  0.45594000000E+02  0.51100000000E-03 0. -1.
    9900012    2    1    2    0    0  0.68031720718E+01 -0.25083472552E+02 -0.34758574555E+02  0.47787282833E+02  0.20000053749E+02 0.  0.
        -12    1    1    2    0    0 -0.68031720718E+01  0.25083472552E+02  0.34758574555E+02  0.43400717167E+02  0.00000000000E+00 0.  1.
         11    1    3    3    0    0  0.29595260108E+01 -0.10765219369E+02 -0.23302767360E+02  0.25839266808E+02  0.51100000000E-03 0. -1.
        -11    1    3    3    0    0  0.39182906030E+01 -0.15598128786E+02 -0.12439439423E+02  0.20332099652E+02  0.51100000000E-03 0.  1.
        -12    1    3    3    0    0 -0.74644542049E-01  0.12798756024E+01  0.98363222740E+00  0.16159163729E+01  0.00000000000E+00 0.  1.
</event>
<event>
 7    1  0.1322363E-009  0.4778727E+02  0.7816164E-02  0.1312668E+00
        -11   -1    0    0    0    0  0.00000000000E+00  0.00000000000E+00  0.45593999997E+02  0.45594000000E+02  0.51100000000E-03 0.  1.
         11   -1    0    0    0    0 -0.00000000000E+00 -0.00000000000E+00 -0.45593999997E+02  0.45594000000E+02  0.51100000000E-03 0. -1.
    9900012    2    1    2    0    0 -0.27455220431E+02  0.30348947253E+02 -0.14449064208E+02  0.47787272071E+02  0.20000004678E+02 0.  0.
        -12    1    1    2    0    0  0.27455220431E+02 -0.30348947253E+02  0.14449064208E+02  0.43400727929E+02  0.00000000000E+00 0.  1.
         11    1    3    3    0    0 -0.96432652524E+01  0.12225083679E+02 -0.74848664073E+00  0.15588632660E+02  0.51100000000E-03 0. -1.
        -11    1    3    3    0    0 -0.12293856270E+02  0.15620537359E+02 -0.16200676396E+02  0.25643751780E+02  0.51100000000E-03 0.  1.
         12    1    3    3    0    0 -0.55180989090E+01  0.25033262151E+01  0.25000988284E+01  0.65548876314E+01  0.00000000000E+00 0. -1.
</event>
<event>
 7    1  0.1322363E-009  0.4778729E+02  0.7816164E-02  0.1312668E+00
        -11   -1    0    0    0    0  0.00000000000E+00  0.00000000000E+00  0.45593999997E+02  0.45594000000E+02  0.51100000000E-03 0.  1.
         11   -1    0    0    0    0 -0.00000000000E+00 -0.00000000000E+00 -0.45593999997E+02  0.45594000000E+02  0.51100000000E-03 0. -1.
    9900012    2    1    2    0    0 -0.24887484503E+02 -0.28705973897E+02  0.20980995627E+02  0.47787285724E+02  0.20000066928E+02 0.  0.
        -12    1    1    2    0    0  0.24887484503E+02  0.28705973897E+02 -0.20980995627E+02  0.43400714276E+02  0.00000000000E+00 0.  1.
         11    1    3    3    0    0 -0.16274143345E+01 -0.68741557010E+01  0.90425529033E+01  0.11474766110E+02  0.51100000000E-03 0. -1.
        -11    1    3    3    0    0 -0.51758220031E+01 -0.11595389560E+02  0.84207214137E+01  0.15236493752E+02  0.51100000000E-03 0.  1.
         12    1    3    3    0    0 -0.18084248165E+02 -0.10236428636E+02  0.35177213097E+01  0.21076025862E+02  0.00000000000E+00 0. -1.
</event>
<event>
 7    1  0.1322363E-009  0.4778726E+02  0.7816164E-02  0.1312668E+00
        -11   -1    0    0    0    0  0.00000000000E+00  0.00000000000E+00  0.45593999997E+02  0.45594000000E+02  0.51100000000E-03 0.  1.
         11   -1    0    0    0    0 -0.00000000000E+00 -0.00000000000E+00 -0.45593999997E+02  0.45594000000E+02  0.51100000000E-03 0. -1.
    9900012    2    1    2    0    0  0.26677465663E+02  0.12492831913E+02 -0.31872662401E+02  0.47787255398E+02  0.19999928663E+02 0.  0.
        -12    1    1    2    0    0 -0.26677465663E+02 -0.12492831913E+02  0.31872662401E+02  0.43400744602E+02  0.00000000000E+00 0.  1.
         11    1    3    3    0    0  0.12323105380E+02  0.98320087934E+01 -0.28008551036E+02  0.32140414660E+02  0.51100000000E-03 0. -1.
        -11    1    3    3    0    0  0.78458267028E+01  0.27190168498E+01 -0.38144983714E+01  0.91378579200E+01  0.51100000000E-03 0.  1.
         12    1    3    3    0    0  0.65085335803E+01 -0.58193730611E-01 -0.49612993645E-01  0.65089828180E+01  0.00000000000E+00 0. -1.
</event>
<event>
 7    1  0.1322363E-009  0.4778727E+02  0.7816164E-02  0.1312668E+00
        -11   -1    0    0    0    0  0.00000000000E+00  0.00000000000E+00  0.45593999997E+02  0.45594000000E+02  0.51100000000E-03 0.  1.
         11   -1    0    0    0    0 -0.00000000000E+00 -0.00000000000E+00 -0.45593999997E+02  0.45594000000E+02  0.51100000000E-03 0. -1.
    9900012    2    1    2    0    0 -0.38084183327E+02 -0.19885065965E+02 -0.61483797314E+01  0.47787269114E+02  0.19999991200E+02 0.  0.
        -12    1    1    2    0    0  0.38084183327E+02  0.19885065965E+02  0.61483797314E+01  0.43400730886E+02  0.00000000000E+00 0.  1.
         11    1    3    3    0    0 -0.23669968694E+01 -0.19836715055E+00  0.45714148563E+01  0.51516849434E+01  0.51100000000E-03 0. -1.
        -11    1    3    3    0    0 -0.98856582890E+01 -0.87243391839E+01 -0.40432170934E+01  0.13790864321E+02  0.51100000000E-03 0.  1.
         12    1    3    3    0    0 -0.25831528168E+02 -0.10962359630E+02 -0.66765774944E+01  0.28844719850E+02  0.00000000000E+00 0. -1.
</event>
<event>
 7    1  0.1322363E-009  0.4778728E+02  0.7816164E-02  0.1312668E+00
        -11   -1    0    0    0    0  0.00000000000E+00  0.00000000000E+00  0.45593999997E+02  0.45594000000E+02  0.51100000000E-03 0. -1.
         11   -1    0    0    0    0 -0.00000000000E+00 -0.00000000000E+00 -0.45593999997E+02  0.45594000000E+02  0.51100000000E-03 0.  1.
    9900012    2    1    2    0    0  0.35802979593E+02 -0.14226299121E+02  0.19984533779E+02  0.47787279675E+02  0.20000039348E+02 0.  0.
        -12    1    1    2    0    0 -0.35802979593E+02  0.14226299121E+02 -0.19984533779E+02  0.43400720325E+02  0.00000000000E+00 0.  1.
         11    1    3    3    0    0  0.12627093971E+02 -0.32287113829E+01  0.72165518669E+01  0.14897875703E+02  0.51100000000E-03 0. -1.
        -11    1    3    3    0    0 -0.95633750354E+00 -0.54660410684E+01  0.21661948287E+01  0.59568940463E+01  0.51100000000E-03 0.  1.
        -12    1    3    3    0    0  0.24132223126E+02 -0.55315466701E+01  0.10601787083E+02  0.26932509926E+02  0.00000000000E+00 0.  1.
</event>
<event>
 7    1  0.1322363E-009  0.4778728E+02  0.7816164E-02  0.1312668E+00
        -11   -1    0    0    0    0  0.00000000000E+00  0.00000000000E+00  0.45593999997E+02  0.45594000000E+02  0.51100000000E-03 0.  1.
         11   -1    0    0    0    0 -0.00000000000E+00 -0.00000000000E+00 -0.45593999997E+02  0.45594000000E+02  0.51100000000E-03 0. -1.
    9900012    2    1    2    0    0  0.86951405532E+01  0.23577764579E+02 -0.35385112713E+02  0.47787278192E+02  0.20000032588E+02 0.  0.
        -12    1    1    2    0    0 -0.86951405532E+01 -0.23577764579E+02  0.35385112713E+02  0.43400721808E+02  0.00000000000E+00 0.  1.
         11    1    3    3    0    0  0.37266416459E+01  0.16780633737E+02 -0.34910184485E+02  0.38912703679E+02  0.51100000000E-03 0. -1.
        -11    1    3    3    0    0  0.27661999605E+00  0.99238693965E+00  0.79779742974E+00  0.13030086186E+01  0.51100000000E-03 0.  1.
         12    1    3    3    0    0  0.46918789113E+01  0.58047439023E+01 -0.12727256573E+01  0.75715658940E+01  0.00000000000E+00 0. -1.
</event>
<event>
 7    1  0.1322363E-009  0.4778727E+02  0.7816164E-02  0.1312668E+00
        -11   -1    0    0    0    0  0.00000000000E+00  0.00000000000E+00  0.45593999997E+02  0.45594000000E+02  0.51100000000E-03 0.  1.
         11   -1    0    0    0    0 -0.00000000000E+00 -0.00000000000E+00 -0.45593999997E+02  0.45594000000E+02  0.51100000000E-03 0. -1.
    9900012    2    1    2    0    0 -0.40356548424E+02  0.15602712961E+02 -0.33952360407E+01  0.47787270971E+02  0.19999999666E+02 0.  0.
        -12    1    1    2    0    0  0.40356548424E+02 -0.15602712961E+02  0.33952360407E+01  0.43400729029E+02  0.00000000000E+00 0.  1.
         11    1    3    3    0    0 -0.68231474176E+01  0.45535419223E+01 -0.57872812940E+01  0.10039059207E+02  0.51100000000E-03 0. -1.
        -11    1    3    3    0    0 -0.30764041538E+02  0.81213088775E+01 -0.18822532497E+01  0.31873575062E+02  0.51100000000E-03 0.  1.
        -12    1    3    3    0    0 -0.27693594685E+01  0.29278621608E+01  0.42742985029E+01  0.58746367028E+01  0.00000000000E+00 0.  1.
</event>
<event>
 7    1  0.1322363E-009  0.4778726E+02  0.7816164E-02  0.1312668E+00
        -11   -1    0    0    0    0  0.00000000000E+00  0.00000000000E+00  0.45593999997E+02  0.45594000000E+02  0.51100000000E-03 0.  1.
         11   -1    0    0    0    0 -0.00000000000E+00 -0.00000000000E+00 -0.45593999997E+02  0.45594000000E+02  0.51100000000E-03 0. -1.
    9900012    2    1    2    0    0 -0.88942817275E+01  0.32345963106E+02 -0.27536421126E+02  0.47787261929E+02  0.19999958438E+02 0.  0.
        -12    1    1    2    0    0  0.88942817275E+01 -0.32345963106E+02  0.27536421126E+02  0.43400738071E+02  0.00000000000E+00 0.  1.
         11    1    3    3    0    0 -0.65399173295E+01  0.24693323294E+02 -0.21314432523E+02  0.33269141378E+02  0.51100000000E-03 0. -1.
        -11    1    3    3    0    0  0.95931141095E+00  0.73156723897E+01 -0.78820609185E+01  0.10796583973E+02  0.51100000000E-03 0.  1.
        -12    1    3    3    0    0 -0.33136758090E+01  0.33696742247E+00  0.16600723157E+01  0.37215365784E+01  0.00000000000E+00 0.  1.
</event>
<event>
 7    1  0.1322363E-009  0.4778727E+02  0.7816164E-02  0.1312668E+00
        -11   -1    0    0    0    0  0.00000000000E+00  0.00000000000E+00  0.45593999997E+02  0.45594000000E+02  0.51100000000E-03 0. -1.
         11   -1    0    0    0    0 -0.00000000000E+00 -0.00000000000E+00 -0.45593999997E+02  0.45594000000E+02  0.51100000000E-03 0.  1.
    9900012    2    1    2    0    0  0.63389008479E+01  0.18184008685E+02  0.38894515515E+02  0.47787272207E+02  0.20000005302E+02 0.  0.
        -12    1    1    2    0    0 -0.63389008479E+01 -0.18184008685E+02 -0.38894515515E+02  0.43400727793E+02  0.00000000000E+00 0.  1.
         11    1    3    3    0    0  0.48065322536E+01 -0.50601365080E+00  0.25523907242E+01  0.54656656310E+01  0.51100000000E-03 0.  1.
        -11    1    3    3    0    0  0.97850403290E+00  0.17682319758E+02  0.23487831405E+02  0.29415984202E+02  0.51100000000E-03 0. -1.
         12    1    3    3    0    0  0.55386456145E+00  0.10077025773E+01  0.12854293385E+02  0.12905622375E+02  0.00000000000E+00 0. -1.
</event>
<event>
 7    1  0.1322363E-009  0.4778727E+02  0.7816164E-02  0.1312668E+00
        -11   -1    0    0    0    0  0.00000000000E+00  0.00000000000E+00  0.45593999997E+02  0.45594000000E+02  0.51100000000E-03 0.  1.
         11   -1    0    0    0    0 -0.00000000000E+00 -0.00000000000E+00 -0.45593999997E+02  0.45594000000E+02  0.51100000000E-03 0. -1.
    9900012    2    1    2    0    0 -0.15612904237E+02 -0.39482204127E+02 -0.90009009843E+01  0.47787269131E+02  0.19999991276E+02 0.  0.
        -12    1    1    2    0    0  0.15612904237E+02  0.39482204127E+02  0.90009009843E+01  0.43400730869E+02  0.00000000000E+00 0.  1.
         11    1    3    3    0    0 -0.76738747548E+01 -0.16274014252E+02 -0.68168682906E+01  0.19240623358E+02  0.51100000000E-03 0. -1.
        -11    1    3    3    0    0 -0.12512960653E+01 -0.19848406736E+02 -0.50722536984E+01  0.20524442736E+02  0.51100000000E-03 0.  1.
        -12    1    3    3    0    0 -0.66877334174E+01 -0.33597831389E+01  0.28882210047E+01  0.80222030375E+01  0.00000000000E+00 0.  1.
</event>
<event>
 7    1  0.1411773E-009  0.4778727E+02  0.7816164E-02  0.1312668E+00
        -11   -1    0    0    0    0  0.00000000000E+00  0.00000000000E+00  0.45593999997E+02  0.45594000000E+02  0.51100000000E-03 0.  1.
         11   -1    0    0    0    0 -0.00000000000E+00 -0.00000000000E+00 -0.45593999997E+02  0.45594000000E+02  0.51100000000E-03 0. -1.
    9900012    2    1    2    0    0 -0.14029379682E+02 -0.40772760845E+02 -0.49377984321E+01  0.47787269885E+02  0.19999994713E+02 0.  0.
        -12    1    1    2    0    0  0.14029379682E+02  0.40772760845E+02  0.49377984321E+01  0.43400730115E+02  0.00000000000E+00 0.  1.
         11    1    3    3    0    0  0.19622427013E+00 -0.75562865972E+01 -0.63863092599E+01  0.98954998523E+01  0.51100000000E-03 0. -1.
        -11    1    3    3    0    0 -0.88497162055E+01 -0.78919571977E+01  0.18433461606E+01  0.11999932944E+02  0.51100000000E-03 0.  1.
         12    1    3    3    0    0 -0.53758877471E+01 -0.25324517050E+02 -0.39483533280E+00  0.25891837089E+02  0.00000000000E+00 0. -1.
</event>
<event>
 7    1  0.1322363E-009  0.4778726E+02  0.7816164E-02  0.1312668E+00
        -11   -1    0    0    0    0  0.00000000000E+00  0.00000000000E+00  0.45593999997E+02  0.45594000000E+02  0.51100000000E-03 0.  1.
         11   -1    0    0    0    0 -0.00000000000E+00 -0.00000000000E+00 -0.45593999997E+02  0.45594000000E+02  0.51100000000E-03 0. -1.
    9900012    2    1    2    0    0  0.38742202768E+02 -0.87415119407E+01 -0.17500058034E+02  0.47787258790E+02  0.19999944129E+02 0.  0.
        -12    1    1    2    0    0 -0.38742202768E+02  0.87415119407E+01  0.17500058034E+02  0.43400741210E+02  0.00000000000E+00 0.  1.
         11    1    3    3    0    0  0.14403205996E+02 -0.41206333272E+01 -0.24495482221E+01  0.15179995018E+02  0.51100000000E-03 0. -1.
        -11    1    3    3    0    0 -0.81863739643E-01  0.32516477808E+01 -0.20305603392E+01  0.38344609158E+01  0.51100000000E-03 0.  1.
        -12    1    3    3    0    0  0.24420860512E+02 -0.78725263943E+01 -0.13019949473E+02  0.28772802857E+02  0.00000000000E+00 0.  1.
</event>
<event>
 7    1  0.1322363E-009  0.4778727E+02  0.7816164E-02  0.1312668E+00
        -11   -1    0    0    0    0  0.00000000000E+00  0.00000000000E+00  0.45593999997E+02  0.45594000000E+02  0.51100000000E-03 0. -1.
         11   -1    0    0    0    0 -0.00000000000E+00 -0.00000000000E+00 -0.45593999997E+02  0.45594000000E+02  0.51100000000E-03 0.  1.
    9900012    2    1    2    0    0 -0.28741978994E+02 -0.12742585370E+02  0.29919033378E+02  0.47787269629E+02  0.19999993548E+02 0.  0.
        -12    1    1    2    0    0  0.28741978994E+02  0.12742585370E+02 -0.29919033378E+02  0.43400730371E+02  0.00000000000E+00 0.  1.
         11    1    3    3    0    0 -0.17502762259E+01 -0.53952471606E+01  0.13231014147E+02  0.14395551202E+02  0.51100000000E-03 0. -1.
        -11    1    3    3    0    0 -0.86959491969E+01 -0.25019230648E+01  0.16042866459E+01  0.91898252083E+01  0.51100000000E-03 0.  1.
         12    1    3    3    0    0 -0.18295753572E+02 -0.48454151445E+01  0.15083732586E+02  0.24201893219E+02  0.00000000000E+00 0. -1.
</event>
<event>
 7    1  0.1322363E-009  0.4778728E+02  0.7816164E-02  0.1312668E+00
        -11   -1    0    0    0    0  0.00000000000E+00  0.00000000000E+00  0.45593999997E+02  0.45594000000E+02  0.51100000000E-03 0. -1.
         11   -1    0    0    0    0 -0.00000000000E+00 -0.00000000000E+00 -0.45593999997E+02  0.45594000000E+02  0.51100000000E-03 0.  1.
    9900012    2    1    2    0    0 -0.31586518992E+02  0.13606874316E+02  0.26472015024E+02  0.47787276618E+02  0.20000025412E+02 0.  0.
        -12    1    1    2    0    0  0.31586518992E+02 -0.13606874316E+02 -0.26472015024E+02  0.43400723382E+02  0.00000000000E+00 0.  1.
         11    1    3    3    0    0 -0.85904382273E+01  0.78288986331E+01  0.15678853155E+02  0.19517011023E+02  0.51100000000E-03 0. -1.
        -11    1    3    3    0    0 -0.51812584483E+01  0.29776475925E+01 -0.18390207875E+01  0.62525052587E+01  0.51100000000E-03 0.  1.
         12    1    3    3    0    0 -0.17814822316E+02  0.28003280906E+01  0.12632182656E+02  0.22017760336E+02  0.00000000000E+00 0. -1.
</event>
<event>
 7    1  0.1322363E-009  0.4778728E+02  0.7816164E-02  0.1312668E+00
        -11   -1    0    0    0    0  0.00000000000E+00  0.00000000000E+00  0.45593999997E+02  0.45594000000E+02  0.51100000000E-03 0. -1.
         11   -1    0    0    0    0 -0.00000000000E+00 -0.00000000000E+00 -0.45593999997E+02  0.45594000000E+02  0.51100000000E-03 0.  1.
    9900012    2    1    2    0    0  0.29500468444E+02 -0.31528671641E+02  0.43918108360E+01  0.47787276777E+02  0.20000026138E+02 0.  0.
        -12    1    1    2    0    0 -0.29500468444E+02  0.31528671641E+02 -0.43918108360E+01  0.43400723223E+02  0.00000000000E+00 0.  1.
         11    1    3    3    0    0  0.81374084880E+01 -0.84149824442E+01  0.34918608741E+01  0.12215663677E+02  0.51100000000E-03 0. -1.
        -11    1    3    3    0    0  0.16258556556E+01 -0.12312998014E+02  0.35491210007E+01  0.12917027013E+02  0.51100000000E-03 0.  1.
         12    1    3    3    0    0  0.19737204301E+02 -0.10800691182E+02 -0.26491710388E+01  0.22654586088E+02  0.00000000000E+00 0. -1.
</event>
<event>
 7    1  0.1322363E-009  0.4778727E+02  0.7816164E-02  0.1312668E+00
        -11   -1    0    0    0    0  0.00000000000E+00  0.00000000000E+00  0.45593999997E+02  0.45594000000E+02  0.51100000000E-03 0. -1.
         11   -1    0    0    0    0 -0.00000000000E+00 -0.00000000000E+00 -0.45593999997E+02  0.45594000000E+02  0.51100000000E-03 0.  1.
    9900012    2    1    2    0    0  0.12853998215E+02  0.15127083864E+02  0.38594943741E+02  0.47787267071E+02  0.19999981885E+02 0.  0.
        -12    1    1    2    0    0 -0.12853998215E+02 -0.15127083864E+02 -0.38594943741E+02  0.43400732929E+02  0.00000000000E+00 0.  1.
         11    1    3    3    0    0  0.67656072236E+00  0.43042992436E+01  0.12882250843E+02  0.13599158556E+02  0.51100000000E-03 0. -1.
        -11    1    3    3    0    0  0.66235403313E+01  0.12472501910E+02  0.96283307933E+01  0.17092084266E+02  0.51100000000E-03 0.  1.
        -12    1    3    3    0    0  0.55538971610E+01 -0.16497172897E+01  0.16084362105E+02  0.17096024249E+02  0.00000000000E+00 0.  1.
</event>
<event>
 7    1  0.1322363E-009  0.4778726E+02  0.7816164E-02  0.1312668E+00
        -11   -1    0    0    0    0  0.00000000000E+00  0.00000000000E+00  0.45593999997E+02  0.45594000000E+02  0.51100000000E-03 0. -1.
         11   -1    0    0    0    0 -0.00000000000E+00 -0.00000000000E+00 -0.45593999997E+02  0.45594000000E+02  0.51100000000E-03 0.  1.
    9900012    2    1    2    0    0  0.14295950989E+02 -0.37918465769E+02 -0.15538343891E+02  0.47787258165E+02  0.19999941278E+02 0.  0.
        -12    1    1    2    0    0 -0.14295950989E+02  0.37918465769E+02  0.15538343891E+02  0.43400741835E+02  0.00000000000E+00 0.  1.
         11    1    3    3    0    0 -0.19874909603E+01 -0.13622362003E+01 -0.29783997941E+01  0.38310146668E+01  0.51100000000E-03 0. -1.
        -11    1    3    3    0    0  0.40464369513E+01 -0.17348584283E+02  0.27045955730E+00  0.17816289660E+02  0.51100000000E-03 0.  1.
         12    1    3    3    0    0  0.12237004998E+02 -0.19207645286E+02 -0.12830403654E+02  0.26139953839E+02  0.00000000000E+00 0. -1.
</event>
<event>
 7    1  0.1322363E-009  0.4778727E+02  0.7816164E-02  0.1312668E+00
        -11   -1    0    0    0    0  0.00000000000E+00  0.00000000000E+00  0.45593999997E+02  0.45594000000E+02  0.51100000000E-03 0.  1.
         11   -1    0    0    0    0 -0.00000000000E+00 -0.00000000000E+00 -0.45593999997E+02  0.45594000000E+02  0.51100000000E-03 0. -1.
    9900012    2    1    2    0    0  0.12288100233E+01 -0.43382691723E+02 -0.23508442751E+00  0.47787272127E+02  0.20000004937E+02 0.  0.
        -12    1    1    2    0    0 -0.12288100233E+01  0.43382691723E+02  0.23508442751E+00  0.43400727873E+02  0.00000000000E+00 0.  1.
         11    1    3    3    0    0  0.77322170880E+01 -0.27518823827E+02  0.56614588064E+01  0.29139748832E+02  0.51100000000E-03 0. -1.
        -11    1    3    3    0    0 -0.16777255754E+01 -0.97620682672E+01 -0.35456242682E+01  0.10520655477E+02  0.51100000000E-03 0.  1.
        -12    1    3    3    0    0 -0.48256814892E+01 -0.61017996283E+01 -0.23509189657E+01  0.81268678175E+01  0.00000000000E+00 0.  1.
</event>
<event>
 7    1  0.1322363E-009  0.4778726E+02  0.7816164E-02  0.1312668E+00
        -11   -1    0    0    0    0  0.00000000000E+00  0.00000000000E+00  0.45593999997E+02  0.45594000000E+02  0.51100000000E-03 0. -1.
         11   -1    0    0    0    0 -0.00000000000E+00 -0.00000000000E+00 -0.45593999997E+02  0.45594000000E+02  0.51100000000E-03 0.  1.
    9900012    2    1    2    0    0  0.17558696133E+02 -0.11769394291E+02  0.37905111378E+02  0.47787263595E+02  0.19999966037E+02 0.  0.
        -12    1    1    2    0    0 -0.17558696133E+02  0.11769394291E+02 -0.37905111378E+02  0.43400736405E+02  0.00000000000E+00 0.  1.
         11    1    3    3    0    0  0.62320210534E+01 -0.17520558835E+01  0.49128512669E+01  0.81267394483E+01  0.51100000000E-03 0. -1.
        -11    1    3    3    0    0 -0.33329798316E+01 -0.15181282620E+01  0.12730605145E+02  0.13246953445E+02  0.51100000000E-03 0.  1.
        -12    1    3    3    0    0  0.14659654912E+02 -0.84992101451E+01  0.20261654967E+02  0.26413570702E+02  0.00000000000E+00 0.  1.
</event>
<event>
 7    1  0.1322363E-009  0.4778727E+02  0.7816164E-02  0.1312668E+00
        -11   -1    0    0    0    0  0.00000000000E+00  0.00000000000E+00  0.45593999997E+02  0.45594000000E+02  0.51100000000E-03 0.  1.
         11   -1    0    0    0    0 -0.00000000000E+00 -0.00000000000E+00 -0.45593999997E+02  0.45594000000E+02  0.51100000000E-03 0. -1.
    9900012    2    1    2    0    0  0.21488828929E+02 -0.78670085954E+01 -0.36877687772E+02  0.47787269033E+02  0.19999990831E+02 0.  0.
        -12    1    1    2    0    0 -0.21488828929E+02  0.78670085954E+01  0.36877687772E+02  0.43400730967E+02  0.00000000000E+00 0.  1.
         11    1    3    3    0    0  0.42122157519E+01 -0.45871287211E+01 -0.15488826481E+02  0.16693958712E+02  0.51100000000E-03 0. -1.
        -11    1    3    3    0    0  0.18057473856E+02 -0.13409749612E+01 -0.12600985209E+02  0.22060267551E+02  0.51100000000E-03 0.  1.
         12    1    3    3    0    0 -0.78086067902E+00 -0.19389049131E+01 -0.87878760821E+01  0.90330427707E+01  0.00000000000E+00 0. -1.
</event>
<event>
 7    1  0.1322363E-009  0.4778726E+02  0.7816164E-02  0.1312668E+00
        -11   -1    0    0    0    0  0.00000000000E+00  0.00000000000E+00  0.45593999997E+02  0.45594000000E+02  0.51100000000E-03 0.  1.
         11   -1    0    0    0    0 -0.00000000000E+00 -0.00000000000E+00 -0.45593999997E+02  0.45594000000E+02  0.51100000000E-03 0. -1.
    9900012    2    1    2    0    0  0.70923261988E+00 -0.28417345022E+02 -0.32795970780E+02  0.47787260278E+02  0.19999950913E+02 0.  0.
        -12    1    1    2    0    0 -0.70923261988E+00  0.28417345022E+02  0.32795970780E+02  0.43400739722E+02  0.00000000000E+00 0.  1.
         11    1    3    3    0    0 -0.25574087682E+01 -0.79129221219E+01 -0.89915225089E+01  0.12247536626E+02  0.51100000000E-03 0. -1.
        -11    1    3    3    0    0  0.12508927148E+01  0.24165046914E+01 -0.45620472810E+00  0.27590488438E+01  0.51100000000E-03 0.  1.
        -12    1    3    3    0    0  0.20157486733E+01 -0.22920927591E+02 -0.23348243543E+02  0.32780674808E+02  0.00000000000E+00 0.  1.
</event>
<event>
 7    1  0.1322363E-009  0.4778725E+02  0.7816164E-02  0.1312668E+00
        -11   -1    0    0    0    0  0.00000000000E+00  0.00000000000E+00  0.45593999997E+02  0.45594000000E+02  0.51100000000E-03 0.  1.
         11   -1    0    0    0    0 -0.00000000000E+00 -0.00000000000E+00 -0.45593999997E+02  0.45594000000E+02  0.51100000000E-03 0. -1.
    9900012    2    1    2    0    0  0.38811871393E+01 -0.22703442074E+02 -0.36784718922E+02  0.47787246069E+02  0.19999886125E+02 0.  0.
        -12    1    1    2    0    0 -0.38811871393E+01  0.22703442074E+02  0.36784718922E+02  0.43400753931E+02  0.00000000000E+00 0.  1.
         11    1    3    3    0    0 -0.62403071422E-02 -0.13656277396E+02 -0.77930822590E+01  0.15723424647E+02  0.51100000000E-03 0.  1.
        -11    1    3    3    0    0  0.49500804250E+00 -0.10080037531E+02 -0.20107308271E+02  0.22497911809E+02  0.51100000000E-03 0. -1.
        -12    1    3    3    0    0  0.33924194039E+01  0.10328728531E+01 -0.88843283920E+01  0.95659096128E+01  0.00000000000E+00 0.  1.
</event>
<event>
 7    1  0.1322363E-009  0.4778727E+02  0.7816164E-02  0.1312668E+00
        -11   -1    0    0    0    0  0.00000000000E+00  0.00000000000E+00  0.45593999997E+02  0.45594000000E+02  0.51100000000E-03 0.  1.
         11   -1    0    0    0    0 -0.00000000000E+00 -0.00000000000E+00 -0.45593999997E+02  0.45594000000E+02  0.51100000000E-03 0. -1.
    9900012    2    1    2    0    0  0.30412838786E+02  0.80375794808E+01 -0.29901165984E+02  0.47787272193E+02  0.20000005237E+02 0.  0.
        -12    1    1    2    0    0 -0.30412838786E+02 -0.80375794808E+01  0.29901165984E+02  0.43400727807E+02  0.00000000000E+00 0.  1.
         11    1    3    3    0    0  0.17511551848E+02  0.72348861436E+01 -0.13350464256E+02  0.23178285565E+02  0.51100000000E-03 0.  1.
        -11    1    3    3    0    0  0.11063234074E+02 -0.36848110717E+01 -0.62643925005E+01  0.13236902752E+02  0.51100000000E-03 0. -1.
         12    1    3    3    0    0  0.18380528649E+01  0.44875044088E+01 -0.10286309228E+02  0.11372083876E+02  0.00000000000E+00 0. -1.
</event>
<event>
 7    1  0.1322363E-009  0.4778727E+02  0.7816164E-02  0.1312668E+00
        -11   -1    0    0    0    0  0.00000000000E+00  0.00000000000E+00  0.45593999997E+02  0.45594000000E+02  0.51100000000E-03 0.  1.
         11   -1    0    0    0    0 -0.00000000000E+00 -0.00000000000E+00 -0.45593999997E+02  0.45594000000E+02  0.51100000000E-03 0. -1.
    9900012    2    1    2    0    0 -0.40605538682E+02  0.22272711043E+01  0.15160901359E+02  0.47787269151E+02  0.19999991367E+02 0.  0.
        -12    1    1    2    0    0  0.40605538682E+02 -0.22272711043E+01 -0.15160901359E+02  0.43400730849E+02  0.00000000000E+00 0.  1.
         11    1    3    3    0    0 -0.35088024846E+01  0.10376769333E+01 -0.30678618942E+01  0.47749602257E+01  0.51100000000E-03 0. -1.
        -11    1    3    3    0    0 -0.54013377100E+01  0.66964625204E+00 -0.15365557386E+01  0.56554291578E+01  0.51100000000E-03 0.  1.
        -12    1    3    3    0    0 -0.31695398487E+02  0.51994791890E+00  0.19765318992E+02  0.37356879767E+02  0.00000000000E+00 0.  1.
</event>
<event>
 7    1  0.1322363E-009  0.4778729E+02  0.7816164E-02  0.1312668E+00
        -11   -1    0    0    0    0  0.00000000000E+00  0.00000000000E+00  0.45593999997E+02  0.45594000000E+02  0.51100000000E-03 0.  1.
         11   -1    0    0    0    0 -0.00000000000E+00 -0.00000000000E+00 -0.45593999997E+02  0.45594000000E+02  0.51100000000E-03 0. -1.
    9900012    2    1    2    0    0 -0.31980119241E+01 -0.42085592063E+02 -0.10109285576E+02  0.47787285785E+02  0.20000067207E+02 0.  0.
        -12    1    1    2    0    0  0.31980119241E+01  0.42085592063E+02  0.10109285576E+02  0.43400714215E+02  0.00000000000E+00 0.  1.
         11    1    3    3    0    0 -0.31422154242E+01 -0.10108621885E+02  0.71911349543E+00  0.10610130945E+02  0.51100000000E-03 0. -1.
        -11    1    3    3    0    0 -0.19987727441E+01 -0.11648132964E+02  0.33881889586E+01  0.12294466995E+02  0.51100000000E-03 0.  1.
         12    1    3    3    0    0  0.19429762442E+01 -0.20328837214E+02 -0.14216588030E+02  0.24882687845E+02  0.00000000000E+00 0. -1.
</event>
<event>
 7    1  0.1322363E-009  0.4778727E+02  0.7816164E-02  0.1312668E+00
        -11   -1    0    0    0    0  0.00000000000E+00  0.00000000000E+00  0.45593999997E+02  0.45594000000E+02  0.51100000000E-03 0.  1.
         11   -1    0    0    0    0 -0.00000000000E+00 -0.00000000000E+00 -0.45593999997E+02  0.45594000000E+02  0.51100000000E-03 0. -1.
    9900012    2    1    2    0    0  0.34333398956E+02 -0.93367118528E+01 -0.24852905271E+02  0.47787269908E+02  0.19999994820E+02 0.  0.
        -12    1    1    2    0    0 -0.34333398956E+02  0.93367118528E+01  0.24852905271E+02  0.43400730092E+02  0.00000000000E+00 0.  1.
         11    1    3    3    0    0  0.18258453407E+02 -0.10998151736E+02 -0.13851274786E+02  0.25420233592E+02  0.51100000000E-03 0. -1.
        -11    1    3    3    0    0  0.18662475500E+01 -0.78562648092E+00  0.20772355082E+01  0.29008613381E+01  0.51100000000E-03 0.  1.
         12    1    3    3    0    0  0.14208697998E+02  0.24470663640E+01 -0.13078865994E+02  0.19466174978E+02  0.00000000000E+00 0. -1.
</event>
<event>
 7    1  0.1322363E-009  0.4778727E+02  0.7816164E-02  0.1312668E+00
        -11   -1    0    0    0    0  0.00000000000E+00  0.00000000000E+00  0.45593999997E+02  0.45594000000E+02  0.51100000000E-03 0.  1.
         11   -1    0    0    0    0 -0.00000000000E+00 -0.00000000000E+00 -0.45593999997E+02  0.45594000000E+02  0.51100000000E-03 0. -1.
    9900012    2    1    2    0    0 -0.16764701242E+02 -0.30280148973E+02 -0.26185500524E+02  0.47787273425E+02  0.20000010852E+02 0.  0.
        -12    1    1    2    0    0  0.16764701242E+02  0.30280148973E+02  0.26185500524E+02  0.43400726575E+02  0.00000000000E+00 0.  1.
         11    1    3    3    0    0 -0.48240786203E+01 -0.14455601119E+01 -0.43319108388E+01  0.66428028985E+01  0.51100000000E-03 0. -1.
        -11    1    3    3    0    0 -0.11044125348E+00 -0.17306619807E+02 -0.16143262005E+02  0.23667196599E+02  0.51100000000E-03 0.  1.
        -12    1    3    3    0    0 -0.11830181368E+02 -0.11527969054E+02 -0.57103276801E+01  0.17477273928E+02  0.00000000000E+00 0.  1.
</event>
<event>
 7    1  0.1515887E-009  0.4778727E+02  0.7816164E-02  0.1312668E+00
        -11   -1    0    0    0    0  0.00000000000E+00  0.00000000000E+00  0.45593999997E+02  0.45594000000E+02  0.51100000000E-03 0. -1.
         11   -1    0    0    0    0 -0.00000000000E+00 -0.00000000000E+00 -0.45593999997E+02  0.45594000000E+02  0.51100000000E-03 0.  1.
    9900012    2    1    2    0    0  0.40402998669E+02  0.68410630494E+01  0.14297587919E+02  0.47787268838E+02  0.19999989942E+02 0.  0.
        -12    1    1    2    0    0 -0.40402998669E+02 -0.68410630494E+01 -0.14297587919E+02  0.43400731162E+02  0.00000000000E+00 0.  1.
         11    1    3    3    0    0  0.39914605976E+02  0.63440556209E+01  0.15579756205E+02  0.43314565860E+02  0.51100000000E-03 0. -1.
        -11    1    3    3    0    0 -0.52168849700E+00 -0.28946116698E+00  0.13884010197E+01  0.15111599213E+01  0.51100000000E-03 0.  1.
         12    1    3    3    0    0  0.10100811892E+01  0.78646859540E+00 -0.26705693060E+01  0.29615430570E+01  0.00000000000E+00 0. -1.
</event>
<event>
 7    1  0.1322363E-009  0.4778727E+02  0.7816164E-02  0.1312668E+00
        -11   -1    0    0    0    0  0.00000000000E+00  0.00000000000E+00  0.45593999997E+02  0.45594000000E+02  0.51100000000E-03 0.  1.
         11   -1    0    0    0    0 -0.00000000000E+00 -0.00000000000E+00 -0.45593999997E+02  0.45594000000E+02  0.51100000000E-03 0. -1.
    9900012    2    1    2    0    0  0.29202940711E+02  0.28825458307E+02 -0.14138754651E+02  0.47787272174E+02  0.20000005149E+02 0.  0.
        -12    1    1    2    0    0 -0.29202940711E+02 -0.28825458307E+02  0.14138754651E+02  0.43400727826E+02  0.00000000000E+00 0.  1.
         11    1    3    3    0    0  0.25170593820E+01  0.13189416345E+02 -0.25268321514E+01  0.13663131867E+02  0.51100000000E-03 0.  1.
        -11    1    3    3    0    0  0.86811320915E+01  0.25567746154E+01 -0.68915093853E+01  0.11375062756E+02  0.51100000000E-03 0. -1.
        -12    1    3    3    0    0  0.18004749238E+02  0.13079267347E+02 -0.47204131145E+01  0.22749077551E+02  0.00000000000E+00 0.  1.
</event>
<event>
 7    1  0.1322363E-009  0.4778727E+02  0.7816164E-02  0.1312668E+00
        -11   -1    0    0    0    0  0.00000000000E+00  0.00000000000E+00  0.45593999997E+02  0.45594000000E+02  0.51100000000E-03 0.  1.
         11   -1    0    0    0    0 -0.00000000000E+00 -0.00000000000E+00 -0.45593999997E+02  0.45594000000E+02  0.51100000000E-03 0. -1.
    9900012    2    1    2    0    0  0.17415898652E+02 -0.98634103970E+01 -0.38510041093E+02  0.47787266648E+02  0.19999979953E+02 0.  0.
        -12    1    1    2    0    0 -0.17415898652E+02  0.98634103970E+01  0.38510041093E+02  0.43400733352E+02  0.00000000000E+00 0.  1.
         11    1    3    3    0    0  0.77637611449E+01 -0.19512949530E+01 -0.18185046479E+02  0.19869057723E+02  0.51100000000E-03 0. -1.
        -11    1    3    3    0    0  0.64302711539E+01 -0.11967989920E+01 -0.29402465075E+00  0.65473021693E+01  0.51100000000E-03 0.  1.
        -12    1    3    3    0    0  0.32218663529E+01 -0.67153164520E+01 -0.20030969964E+02  0.21370906755E+02  0.00000000000E+00 0.  1.
</event>
<event>
 7    1  0.1322363E-009  0.4778727E+02  0.7816164E-02  0.1312668E+00
        -11   -1    0    0    0    0  0.00000000000E+00  0.00000000000E+00  0.45593999997E+02  0.45594000000E+02  0.51100000000E-03 0.  1.
         11   -1    0    0    0    0 -0.00000000000E+00 -0.00000000000E+00 -0.45593999997E+02  0.45594000000E+02  0.51100000000E-03 0. -1.
    9900012    2    1    2    0    0 -0.20490731753E+01  0.55763362603E+01 -0.42992197809E+02  0.47787270751E+02  0.19999998660E+02 0.  0.
        -12    1    1    2    0    0  0.20490731753E+01 -0.55763362603E+01  0.42992197809E+02  0.43400729249E+02  0.00000000000E+00 0.  1.
         11    1    3    3    0    0 -0.30607629787E+01  0.31072579650E+01 -0.23026461428E+02  0.23435896574E+02  0.51100000000E-03 0. -1.
        -11    1    3    3    0    0  0.66525154792E+01 -0.15008313320E+01 -0.12100688794E+02  0.13890108942E+02  0.51100000000E-03 0.  1.
        -12    1    3    3    0    0 -0.56408256758E+01  0.39699096273E+01 -0.78650475867E+01  0.10461265234E+02  0.00000000000E+00 0.  1.
</event>
<event>
 7    1  0.1322363E-009  0.4778731E+02  0.7816164E-02  0.1312668E+00
        -11   -1    0    0    0    0  0.00000000000E+00  0.00000000000E+00  0.45593999997E+02  0.45594000000E+02  0.51100000000E-03 0.  1.
         11   -1    0    0    0    0 -0.00000000000E+00 -0.00000000000E+00 -0.45593999997E+02  0.45594000000E+02  0.51100000000E-03 0. -1.
    9900012    2    1    2    0    0  0.11047236939E+01 -0.43351936040E+02  0.17345615461E+01  0.47787314791E+02  0.20000199456E+02 0.  0.
        -12    1    1    2    0    0 -0.11047236939E+01  0.43351936040E+02 -0.17345615461E+01  0.43400685209E+02  0.00000000000E+00 0.  1.
         11    1    3    3    0    0  0.32978553745E+01 -0.22227381744E+02 -0.27097363136E+01  0.22633493332E+02  0.51100000000E-03 0. -1.
        -11    1    3    3    0    0 -0.32676851449E+01 -0.21386098239E+02  0.66946166037E+01  0.22646431415E+02  0.51100000000E-03 0.  1.
         12    1    3    3    0    0  0.10745534642E+01  0.26154394302E+00 -0.22503187440E+01  0.25073900437E+01  0.00000000000E+00 0. -1.
</event>
<event>
 7    1  0.1322363E-009  0.4778727E+02  0.7816164E-02  0.1312668E+00
        -11   -1    0    0    0    0  0.00000000000E+00  0.00000000000E+00  0.45593999997E+02  0.45594000000E+02  0.51100000000E-03 0.  1.
         11   -1    0    0    0    0 -0.00000000000E+00 -0.00000000000E+00 -0.45593999997E+02  0.45594000000E+02  0.51100000000E-03 0. -1.
    9900012    2    1    2    0    0 -0.16640138025E+02 -0.21002075807E+02 -0.34141496207E+02  0.47787272530E+02  0.20000006772E+02 0.  0.
        -12    1    1    2    0    0  0.16640138025E+02  0.21002075807E+02  0.34141496207E+02  0.43400727470E+02  0.00000000000E+00 0.  1.
         11    1    3    3    0    0 -0.24403190433E+01 -0.50487965175E+01  0.16173788302E+00  0.56099610259E+01  0.51100000000E-03 0. -1.
        -11    1    3    3    0    0 -0.57081060555E+01 -0.70988463430E+01 -0.49584296692E+01  0.10371215897E+02  0.51100000000E-03 0.  1.
         12    1    3    3    0    0 -0.84917129260E+01 -0.88544329467E+01 -0.29344804421E+02  0.31806095606E+02  0.00000000000E+00 0. -1.
</event>
<event>
 7    1  0.1322363E-009  0.4778727E+02  0.7816164E-02  0.1312668E+00
        -11   -1    0    0    0    0  0.00000000000E+00  0.00000000000E+00  0.45593999997E+02  0.45594000000E+02  0.51100000000E-03 0.  1.
         11   -1    0    0    0    0 -0.00000000000E+00 -0.00000000000E+00 -0.45593999997E+02  0.45594000000E+02  0.51100000000E-03 0. -1.
    9900012    2    1    2    0    0 -0.56342127082E+01 -0.17288935710E+02 -0.39407761580E+02  0.47787270472E+02  0.19999997391E+02 0.  0.
        -12    1    1    2    0    0  0.56342127082E+01  0.17288935710E+02  0.39407761580E+02  0.43400729528E+02  0.00000000000E+00 0.  1.
         11    1    3    3    0    0  0.30955306171E+01 -0.12150614310E+02 -0.27468562343E+02  0.30195060116E+02  0.51100000000E-03 0. -1.
        -11    1    3    3    0    0 -0.22394393109E+01 -0.10854955903E+01 -0.90943610539E+01  0.94287216707E+01  0.51100000000E-03 0.  1.
        -12    1    3    3    0    0 -0.64903040144E+01 -0.40528258090E+01 -0.28448381827E+01  0.81634886858E+01  0.00000000000E+00 0.  1.
</event>
<event>
 7    1  0.1322363E-009  0.4778727E+02  0.7816164E-02  0.1312668E+00
        -11   -1    0    0    0    0  0.00000000000E+00  0.00000000000E+00  0.45593999997E+02  0.45594000000E+02  0.51100000000E-03 0.  1.
         11   -1    0    0    0    0 -0.00000000000E+00 -0.00000000000E+00 -0.45593999997E+02  0.45594000000E+02  0.51100000000E-03 0. -1.
    9900012    2    1    2    0    0 -0.11403304485E+02 -0.37766404248E+02 -0.18091058862E+02  0.47787273581E+02  0.20000011563E+02 0.  0.
        -12    1    1    2    0    0  0.11403304485E+02  0.37766404248E+02  0.18091058862E+02  0.43400726419E+02  0.00000000000E+00 0.  1.
         11    1    3    3    0    0  0.56814374989E+00 -0.11117010993E+02 -0.10990232657E+02  0.15642759822E+02  0.51100000000E-03 0. -1.
        -11    1    3    3    0    0 -0.83520114220E+00 -0.48588982570E+01  0.28872864532E+01  0.57133944853E+01  0.51100000000E-03 0.  1.
        -12    1    3    3    0    0 -0.11136247092E+02 -0.21790494998E+02 -0.99881126583E+01  0.26431119273E+02  0.00000000000E+00 0.  1.
</event>
<event>
 7    1  0.1322363E-009  0.4778727E+02  0.7816164E-02  0.1312668E+00
        -11   -1    0    0    0    0  0.00000000000E+00  0.00000000000E+00  0.45593999997E+02  0.45594000000E+02  0.51100000000E-03 0. -1.
         11   -1    0    0    0    0 -0.00000000000E+00 -0.00000000000E+00 -0.45593999997E+02  0.45594000000E+02  0.51100000000E-03 0.  1.
    9900012    2    1    2    0    0 -0.29661058642E+02 -0.26531799954E+02  0.17317861848E+02  0.47787272500E+02  0.20000006637E+02 0.  0.
        -12    1    1    2    0    0  0.29661058642E+02  0.26531799954E+02 -0.17317861848E+02  0.43400727500E+02  0.00000000000E+00 0.  1.
         11    1    3    3    0    0 -0.12256205488E+02 -0.20409769431E+02  0.13127426359E+02  0.27186441184E+02  0.51100000000E-03 0. -1.
        -11    1    3    3    0    0  0.33213665933E-01 -0.20100711639E+01 -0.51828352933E+00  0.20760797936E+01  0.51100000000E-03 0.  1.
        -12    1    3    3    0    0 -0.17438066820E+02 -0.41119593593E+01  0.47087190185E+01  0.18524751523E+02  0.00000000000E+00 0.  1.
</event>
<event>
 7    1  0.1322363E-009  0.4778727E+02  0.7816164E-02  0.1312668E+00
        -11   -1    0    0    0    0  0.00000000000E+00  0.00000000000E+00  0.45593999997E+02  0.45594000000E+02  0.51100000000E-03 0.  1.
         11   -1    0    0    0    0 -0.00000000000E+00 -0.00000000000E+00 -0.45593999997E+02  0.45594000000E+02  0.51100000000E-03 0. -1.
    9900012    2    1    2    0    0  0.22827662476E+02 -0.27019522099E+02 -0.25148885756E+02  0.47787271857E+02  0.20000003704E+02 0.  0.
        -12    1    1    2    0    0 -0.22827662476E+02  0.27019522099E+02  0.25148885756E+02  0.43400728143E+02  0.00000000000E+00 0.  1.
         11    1    3    3    0    0  0.23992694209E+01 -0.89472571660E+01 -0.11697856156E+02  0.14921452458E+02  0.51100000000E-03 0. -1.
        -11    1    3    3    0    0  0.13275372048E+01  0.18275434248E+01 -0.19374298614E+01  0.29758872170E+01  0.51100000000E-03 0.  1.
         12    1    3    3    0    0  0.19100855850E+02 -0.19899808358E+02 -0.11513599739E+02  0.29889932182E+02  0.00000000000E+00 0. -1.
</event>
<event>
 7    1  0.1322363E-009  0.4778727E+02  0.7816164E-02  0.1312668E+00
        -11   -1    0    0    0    0  0.00000000000E+00  0.00000000000E+00  0.45593999997E+02  0.45594000000E+02  0.51100000000E-03 0.  1.
         11   -1    0    0    0    0 -0.00000000000E+00 -0.00000000000E+00 -0.45593999997E+02  0.45594000000E+02  0.51100000000E-03 0. -1.
    9900012    2    1    2    0    0  0.30732777189E+01 -0.29227753881E+02 -0.31936131004E+02  0.47787273089E+02  0.20000009322E+02 0.  0.
        -12    1    1    2    0    0 -0.30732777189E+01  0.29227753881E+02  0.31936131004E+02  0.43400726911E+02  0.00000000000E+00 0.  1.
         11    1    3    3    0    0  0.96928051679E+01 -0.20565759715E+02 -0.18357103282E+02  0.29221296786E+02  0.51100000000E-03 0. -1.
        -11    1    3    3    0    0 -0.26776883799E+01 -0.65706329984E+01 -0.11786026624E+02  0.13756949404E+02  0.51100000000E-03 0.  1.
        -12    1    3    3    0    0 -0.39418390691E+01 -0.20913611675E+01 -0.17930010986E+01  0.48090268994E+01  0.00000000000E+00 0.  1.
</event>
<event>
 7    1  0.1322363E-009  0.4778727E+02  0.7816164E-02  0.1312668E+00
        -11   -1    0    0    0    0  0.00000000000E+00  0.00000000000E+00  0.45593999997E+02  0.45594000000E+02  0.51100000000E-03 0.  1.
         11   -1    0    0    0    0 -0.00000000000E+00 -0.00000000000E+00 -0.45593999997E+02  0.45594000000E+02  0.51100000000E-03 0. -1.
    9900012    2    1    2    0    0  0.17200233414E+02 -0.67486814409E+01 -0.39271243385E+02  0.47787270885E+02  0.19999999272E+02 0.  0.
        -12    1    1    2    0    0 -0.17200233414E+02  0.67486814409E+01  0.39271243385E+02  0.43400729115E+02  0.00000000000E+00 0.  1.
         11    1    3    3    0    0 -0.27517078232E+01 -0.85159010214E+00 -0.60639437592E+01  0.67133088579E+01  0.51100000000E-03 0. -1.
        -11    1    3    3    0    0  0.90598435461E+01 -0.41577515208E+01 -0.58059203187E+01  0.11535873343E+02  0.51100000000E-03 0.  1.
         12    1    3    3    0    0  0.10892097691E+02 -0.17393398180E+01 -0.27401379308E+02  0.29538088683E+02  0.00000000000E+00 0. -1.
</event>
<event>
 7    1  0.1322363E-009  0.4778727E+02  0.7816164E-02  0.1312668E+00
        -11   -1    0    0    0    0  0.00000000000E+00  0.00000000000E+00  0.45593999997E+02  0.45594000000E+02  0.51100000000E-03 0. -1.
         11   -1    0    0    0    0 -0.00000000000E+00 -0.00000000000E+00 -0.45593999997E+02  0.45594000000E+02  0.51100000000E-03 0.  1.
    9900012    2    1    2    0    0 -0.31459645239E+02 -0.16907761758E+02 -0.24658496596E+02  0.47787272579E+02  0.20000006998E+02 0.  0.
        -12    1    1    2    0    0  0.31459645239E+02  0.16907761758E+02  0.24658496596E+02  0.43400727421E+02  0.00000000000E+00 0.  1.
         11    1    3    3    0    0 -0.13100613012E+02 -0.27749744323E+01 -0.15371448417E+02  0.20386465390E+02  0.51100000000E-03 0. -1.
        -11    1    3    3    0    0 -0.45755817024E+01  0.15241192954E+01 -0.83775877489E+00  0.48949696186E+01  0.51100000000E-03 0.  1.
         12    1    3    3    0    0 -0.13783450525E+02 -0.15656906621E+02 -0.84492894045E+01  0.22505837571E+02  0.00000000000E+00 0. -1.
</event>
<event>
 7    1  0.1322363E-009  0.4778727E+02  0.7816164E-02  0.1312668E+00
        -11   -1    0    0    0    0  0.00000000000E+00  0.00000000000E+00  0.45593999997E+02  0.45594000000E+02  0.51100000000E-03 0.  1.
         11   -1    0    0    0    0 -0.00000000000E+00 -0.00000000000E+00 -0.45593999997E+02  0.45594000000E+02  0.51100000000E-03 0. -1.
    9900012    2    1    2    0    0 -0.14857660101E+02  0.25107500504E+02 -0.32132329191E+02  0.47787271613E+02  0.20000002593E+02 0.  0.
        -12    1    1    2    0    0  0.14857660101E+02 -0.25107500504E+02  0.32132329191E+02  0.43400728387E+02  0.00000000000E+00 0.  1.
         11    1    3    3    0    0 -0.12103104923E+02  0.16251751399E+02 -0.26447461765E+02  0.33317755122E+02  0.51100000000E-03 0. -1.
        -11    1    3    3    0    0 -0.25644201155E+01  0.10870873783E+02 -0.54618892184E+01  0.12433196750E+02  0.51100000000E-03 0.  1.
         12    1    3    3    0    0 -0.19013506328E+00 -0.20151246771E+01 -0.22297820756E+00  0.20363197410E+01  0.00000000000E+00 0. -1.
</event>
<event>
 7    1  0.1322363E-009  0.4778727E+02  0.7816164E-02  0.1312668E+00
        -11   -1    0    0    0    0  0.00000000000E+00  0.00000000000E+00  0.45593999997E+02  0.45594000000E+02  0.51100000000E-03 0. -1.
         11   -1    0    0    0    0 -0.00000000000E+00 -0.00000000000E+00 -0.45593999997E+02  0.45594000000E+02  0.51100000000E-03 0.  1.
    9900012    2    1    2    0    0  0.36934461480E+02 -0.68657412862E+01  0.21733167174E+02  0.47787269550E+02  0.19999993184E+02 0.  0.
        -12    1    1    2    0    0 -0.36934461480E+02  0.68657412862E+01 -0.21733167174E+02  0.43400730450E+02  0.00000000000E+00 0.  1.
         11    1    3    3    0    0  0.14561433067E+01 -0.35019381791E+01  0.48914506626E+01  0.61895245524E+01  0.51100000000E-03 0. -1.
        -11    1    3    3    0    0  0.17327502371E+02  0.31913159751E+01  0.13062417245E+02  0.21932933698E+02  0.51100000000E-03 0.  1.
         12    1    3    3    0    0  0.18150815803E+02 -0.65551190822E+01  0.37792992660E+01  0.19664811299E+02  0.00000000000E+00 0. -1.
</event>
<event>
 7    1  0.1322363E-009  0.4778727E+02  0.7816164E-02  0.1312668E+00
        -11   -1    0    0    0    0  0.00000000000E+00  0.00000000000E+00  0.45593999997E+02  0.45594000000E+02  0.51100000000E-03 0.  1.
         11   -1    0    0    0    0 -0.00000000000E+00 -0.00000000000E+00 -0.45593999997E+02  0.45594000000E+02  0.51100000000E-03 0. -1.
    9900012    2    1    2    0    0 -0.20729293310E+02  0.28507651731E+02 -0.25322595320E+02  0.47787266803E+02  0.19999980659E+02 0.  0.
        -12    1    1    2    0    0  0.20729293310E+02 -0.28507651731E+02  0.25322595320E+02  0.43400733197E+02  0.00000000000E+00 0.  1.
         11    1    3    3    0    0  0.11022400559E+01  0.97356783109E+00 -0.13820891151E+00  0.14771152382E+01  0.51100000000E-03 0. -1.
        -11    1    3    3    0    0  0.18552076328E+01  0.47087997114E+00  0.65747202051E+00  0.20238065686E+01  0.51100000000E-03 0.  1.
         12    1    3    3    0    0 -0.23686740999E+02  0.27063203929E+02 -0.25841858429E+02  0.44286344996E+02  0.00000000000E+00 0. -1.
</event>
<event>
 7    1  0.1322363E-009  0.4778728E+02  0.7816164E-02  0.1312668E+00
        -11   -1    0    0    0    0  0.00000000000E+00  0.00000000000E+00  0.45593999997E+02  0.45594000000E+02  0.51100000000E-03 0.  1.
         11   -1    0    0    0    0 -0.00000000000E+00 -0.00000000000E+00 -0.45593999997E+02  0.45594000000E+02  0.51100000000E-03 0. -1.
    9900012    2    1    2    0    0 -0.41313615669E+01  0.32967572947E+02 -0.27922989230E+02  0.47787281781E+02  0.20000048950E+02 0.  0.
        -12    1    1    2    0    0  0.41313615669E+01 -0.32967572947E+02  0.27922989230E+02  0.43400718219E+02  0.00000000000E+00 0.  1.
         11    1    3    3    0    0 -0.15799303293E+01  0.14796086684E+02 -0.16420139973E+02  0.22159453017E+02  0.51100000000E-03 0. -1.
        -11    1    3    3    0    0 -0.31567582135E+01  0.13032183821E+02 -0.14416981881E+02  0.19688887841E+02  0.51100000000E-03 0.  1.
        -12    1    3    3    0    0  0.60532697596E+00  0.51393024418E+01  0.29141326244E+01  0.59389409232E+01  0.00000000000E+00 0.  1.
</event>
<event>
 7    1  0.1322363E-009  0.4778727E+02  0.7816164E-02  0.1312668E+00
        -11   -1    0    0    0    0  0.00000000000E+00  0.00000000000E+00  0.45593999997E+02  0.45594000000E+02  0.51100000000E-03 0. -1.
         11   -1    0    0    0    0 -0.00000000000E+00 -0.00000000000E+00 -0.45593999997E+02  0.45594000000E+02  0.51100000000E-03 0.  1.
    9900012    2    1    2    0    0 -0.35348816633E+02  0.77645847119E+01  0.23954035906E+02  0.47787269023E+02  0.19999990785E+02 0.  0.
        -12    1    1    2    0    0  0.35348816633E+02 -0.77645847119E+01 -0.23954035906E+02  0.43400730977E+02  0.00000000000E+00 0.  1.
         11    1    3    3    0    0 -0.84513125057E+01 -0.25448551765E+01  0.11862523410E+02  0.14785818640E+02  0.51100000000E-03 0. -1.
        -11    1    3    3    0    0 -0.60932236589E+01  0.28086567161E-01 -0.12690728693E+01  0.62240428679E+01  0.51100000000E-03 0.  1.
         12    1    3    3    0    0 -0.20804280469E+02  0.10281353321E+02  0.13360585365E+02  0.26777407515E+02  0.00000000000E+00 0. -1.
</event>
<event>
 7    1  0.1322363E-009  0.4778727E+02  0.7816164E-02  0.1312668E+00
        -11   -1    0    0    0    0  0.00000000000E+00  0.00000000000E+00  0.45593999997E+02  0.45594000000E+02  0.51100000000E-03 0.  1.
         11   -1    0    0    0    0 -0.00000000000E+00 -0.00000000000E+00 -0.45593999997E+02  0.45594000000E+02  0.51100000000E-03 0. -1.
    9900012    2    1    2    0    0  0.28547185707E+02 -0.73574124708E+01 -0.31851996833E+02  0.47787273827E+02  0.20000012688E+02 0.  0.
        -12    1    1    2    0    0 -0.28547185707E+02  0.73574124708E+01  0.31851996833E+02  0.43400726173E+02  0.00000000000E+00 0.  1.
         11    1    3    3    0    0  0.19334909964E+02  0.10426488261E+00 -0.24744719531E+02  0.31403037423E+02  0.51100000000E-03 0. -1.
        -11    1    3    3    0    0  0.90749040841E+01 -0.80110269215E+01 -0.85595105606E+01  0.14825506999E+02  0.51100000000E-03 0.  1.
        -12    1    3    3    0    0  0.13737165923E+00  0.54934956811E+00  0.14522332587E+01  0.15587294051E+01  0.00000000000E+00 0.  1.
</event>
<event>
 7    1  0.1322363E-009  0.4778725E+02  0.7816164E-02  0.1312668E+00
        -11   -1    0    0    0    0  0.00000000000E+00  0.00000000000E+00  0.45593999997E+02  0.45594000000E+02  0.51100000000E-03 0. -1.
         11   -1    0    0    0    0 -0.00000000000E+00 -0.00000000000E+00 -0.45593999997E+02  0.45594000000E+02  0.51100000000E-03 0.  1.
    9900012    2    1    2    0    0  0.30082976750E+02 -0.19367937502E+02 -0.24566693767E+02  0.47787251897E+02  0.19999912700E+02 0.  0.
        -12    1    1    2    0    0 -0.30082976750E+02  0.19367937502E+02  0.24566693767E+02  0.43400748103E+02  0.00000000000E+00 0.  1.
         11    1    3    3    0    0  0.22237882013E+02 -0.60054346449E+01 -0.74132746742E+01  0.24198042965E+02  0.51100000000E-03 0. -1.
        -11    1    3    3    0    0  0.94131447476E+00 -0.55785294099E+01 -0.46507644283E+01  0.73236379858E+01  0.51100000000E-03 0.  1.
        -12    1    3    3    0    0  0.69037802625E+01 -0.77839734472E+01 -0.12502654664E+02  0.16265570946E+02  0.00000000000E+00 0.  1.
</event>
<event>
 7    1  0.1322363E-009  0.4778727E+02  0.7816164E-02  0.1312668E+00
        -11   -1    0    0    0    0  0.00000000000E+00  0.00000000000E+00  0.45593999997E+02  0.45594000000E+02  0.51100000000E-03 0.  1.
         11   -1    0    0    0    0 -0.00000000000E+00 -0.00000000000E+00 -0.45593999997E+02  0.45594000000E+02  0.51100000000E-03 0. -1.
    9900012    2    1    2    0    0  0.16424603034E+02 -0.19630437812E+02 -0.35049984999E+02  0.47787272795E+02  0.20000007983E+02 0.  0.
        -12    1    1    2    0    0 -0.16424603034E+02  0.19630437812E+02  0.35049984999E+02  0.43400727205E+02  0.00000000000E+00 0.  1.
         11    1    3    3    0    0  0.12707530085E+02 -0.10853620097E+02 -0.16192519557E+02  0.23269724535E+02  0.51100000000E-03 0. -1.
        -11    1    3    3    0    0  0.35129852624E+01  0.17294850240E+01 -0.10120522482E+02  0.10851597093E+02  0.51100000000E-03 0.  1.
         12    1    3    3    0    0  0.20408768637E+00 -0.10506302739E+02 -0.87369429593E+01  0.13665951167E+02  0.00000000000E+00 0. -1.
</event>
<event>
 7    1  0.1322363E-009  0.4778727E+02  0.7816164E-02  0.1312668E+00
        -11   -1    0    0    0    0  0.00000000000E+00  0.00000000000E+00  0.45593999997E+02  0.45594000000E+02  0.51100000000E-03 0.  1.
         11   -1    0    0    0    0 -0.00000000000E+00 -0.00000000000E+00 -0.45593999997E+02  0.45594000000E+02  0.51100000000E-03 0. -1.
    9900012    2    1    2    0    0 -0.42538196008E+02 -0.84801404260E+01 -0.14873527896E+01  0.47787272822E+02  0.20000008106E+02 0.  0.
        -12    1    1    2    0    0  0.42538196008E+02  0.84801404260E+01  0.14873527896E+01  0.43400727178E+02  0.00000000000E+00 0.  1.
         11    1    3    3    0    0 -0.22188072676E+01 -0.77166272886E+00  0.31164422013E+01  0.39026633614E+01  0.51100000000E-03 0. -1.
        -11    1    3    3    0    0 -0.39952235384E+01  0.10311714627E+01  0.37787547834E+01  0.55950079251E+01  0.51100000000E-03 0.  1.
         12    1    3    3    0    0 -0.36324165202E+02 -0.87396491599E+01 -0.83825497742E+01  0.38289601536E+02  0.00000000000E+00 0. -1.
</event>
<event>
 7    1  0.1322363E-009  0.4778727E+02  0.7816164E-02  0.1312668E+00
        -11   -1    0    0    0    0  0.00000000000E+00  0.00000000000E+00  0.45593999997E+02  0.45594000000E+02  0.51100000000E-03 0.  1.
         11   -1    0    0    0    0 -0.00000000000E+00 -0.00000000000E+00 -0.45593999997E+02  0.45594000000E+02  0.51100000000E-03 0. -1.
    9900012    2    1    2    0    0  0.75734883909E+01 -0.92028541485E+01 -0.41732157865E+02  0.47787271309E+02  0.20000001205E+02 0.  0.
        -12    1    1    2    0    0 -0.75734883909E+01  0.92028541485E+01  0.41732157865E+02  0.43400728691E+02  0.00000000000E+00 0.  1.
         11    1    3    3    0    0  0.38177048339E+01 -0.28601353469E+01 -0.28318810430E+02  0.28717769217E+02  0.51100000000E-03 0. -1.
        -11    1    3    3    0    0 -0.41080286757E+01 -0.20854547134E+01 -0.43094667412E+01  0.63084486854E+01  0.51100000000E-03 0.  1.
        -12    1    3    3    0    0  0.78638122327E+01 -0.42572640882E+01 -0.91038806937E+01  0.12761053406E+02  0.00000000000E+00 0.  1.
</event>
<event>
 7    1  0.1322363E-009  0.4778728E+02  0.7816164E-02  0.1312668E+00
        -11   -1    0    0    0    0  0.00000000000E+00  0.00000000000E+00  0.45593999997E+02  0.45594000000E+02  0.51100000000E-03 0. -1.
         11   -1    0    0    0    0 -0.00000000000E+00 -0.00000000000E+00 -0.45593999997E+02  0.45594000000E+02  0.51100000000E-03 0.  1.
    9900012    2    1    2    0    0  0.17810845406E+01  0.35660830405E+02 -0.24672976945E+02  0.47787275598E+02  0.20000020761E+02 0.  0.
        -12    1    1    2    0    0 -0.17810845406E+01 -0.35660830405E+02  0.24672976945E+02  0.43400724402E+02  0.00000000000E+00 0.  1.
         11    1    3    3    0    0 -0.41265515134E+01  0.14544668071E+02 -0.55331933290E+01  0.16099441772E+02  0.51100000000E-03 0. -1.
        -11    1    3    3    0    0  0.34236164193E+01  0.11264037276E+02 -0.17938400520E+02  0.21456605012E+02  0.51100000000E-03 0.  1.
         12    1    3    3    0    0  0.24840196347E+01  0.98521250585E+01 -0.12013830954E+01  0.10231228815E+02  0.00000000000E+00 0. -1.
</event>
<event>
 7    1  0.1322363E-009  0.4778727E+02  0.7816164E-02  0.1312668E+00
        -11   -1    0    0    0    0  0.00000000000E+00  0.00000000000E+00  0.45593999997E+02  0.45594000000E+02  0.51100000000E-03 0. -1.
         11   -1    0    0    0    0 -0.00000000000E+00 -0.00000000000E+00 -0.45593999997E+02  0.45594000000E+02  0.51100000000E-03 0.  1.
    9900012    2    1    2    0    0 -0.32455584482E+02  0.12914793349E+02  0.25757851623E+02  0.47787265311E+02  0.19999973860E+02 0.  0.
        -12    1    1    2    0    0  0.32455584482E+02 -0.12914793349E+02 -0.25757851623E+02  0.43400734689E+02  0.00000000000E+00 0.  1.
         11    1    3    3    0    0 -0.14125853860E+02  0.13541415701E+02  0.13027220281E+02  0.23507831780E+02  0.51100000000E-03 0. -1.
        -11    1    3    3    0    0 -0.10065957231E+02  0.23486875154E+00  0.12388093026E+02  0.15963818697E+02  0.51100000000E-03 0.  1.
        -12    1    3    3    0    0 -0.82637733900E+01 -0.86149110416E+00  0.34253831531E+00  0.83156148337E+01  0.00000000000E+00 0.  1.
</event>
<event>
 7    1  0.1322363E-009  0.4778727E+02  0.7816164E-02  0.1312668E+00
        -11   -1    0    0    0    0  0.00000000000E+00  0.00000000000E+00  0.45593999997E+02  0.45594000000E+02  0.51100000000E-03 0. -1.
         11   -1    0    0    0    0 -0.00000000000E+00 -0.00000000000E+00 -0.45593999997E+02  0.45594000000E+02  0.51100000000E-03 0.  1.
    9900012    2    1    2    0    0 -0.29625382241E+02 -0.40224101693E+01  0.31460771529E+02  0.47787271876E+02  0.20000003790E+02 0.  0.
        -12    1    1    2    0    0  0.29625382241E+02  0.40224101693E+01 -0.31460771529E+02  0.43400728124E+02  0.00000000000E+00 0.  1.
         11    1    3    3    0    0 -0.98103852009E+01 -0.39113045796E+01  0.13726198141E+02  0.17319078410E+02  0.51100000000E-03 0. -1.
        -11    1    3    3    0    0 -0.19275877848E+02  0.42279995808E+01  0.11459753524E+02  0.22820197159E+02  0.51100000000E-03 0.  1.
        -12    1    3    3    0    0 -0.53911919235E+00 -0.43391051705E+01  0.62748198641E+01  0.76479963070E+01  0.00000000000E+00 0.  1.
</event>
<event>
 7    1  0.1322363E-009  0.4778727E+02  0.7816164E-02  0.1312668E+00
        -11   -1    0    0    0    0  0.00000000000E+00  0.00000000000E+00  0.45593999997E+02  0.45594000000E+02  0.51100000000E-03 0.  1.
         11   -1    0    0    0    0 -0.00000000000E+00 -0.00000000000E+00 -0.45593999997E+02  0.45594000000E+02  0.51100000000E-03 0. -1.
    9900012    2    1    2    0    0  0.13879168189E+02 -0.25544731045E+02 -0.32225122869E+02  0.47787272613E+02  0.20000007152E+02 0.  0.
        -12    1    1    2    0    0 -0.13879168189E+02  0.25544731045E+02  0.32225122869E+02  0.43400727387E+02  0.00000000000E+00 0.  1.
         11    1    3    3    0    0  0.72189729350E+01 -0.21110242899E+02 -0.21904943884E+02  0.31266315618E+02  0.51100000000E-03 0. -1.
        -11    1    3    3    0    0  0.31685284640E+01 -0.63440765520E+01 -0.21124557922E+01  0.73992803475E+01  0.51100000000E-03 0.  1.
         12    1    3    3    0    0  0.34916667898E+01  0.19095884062E+01 -0.82077231930E+01  0.91216766477E+01  0.00000000000E+00 0. -1.
</event>
<event>
 7    1  0.1322363E-009  0.4778730E+02  0.7816164E-02  0.1312668E+00
        -11   -1    0    0    0    0  0.00000000000E+00  0.00000000000E+00  0.45593999997E+02  0.45594000000E+02  0.51100000000E-03 0.  1.
         11   -1    0    0    0    0 -0.00000000000E+00 -0.00000000000E+00 -0.45593999997E+02  0.45594000000E+02  0.51100000000E-03 0. -1.
    9900012    2    1    2    0    0  0.35166554214E+02  0.61332582552E+01 -0.24684361557E+02  0.47787296116E+02  0.20000114311E+02 0.  0.
        -12    1    1    2    0    0 -0.35166554214E+02 -0.61332582552E+01  0.24684361557E+02  0.43400703884E+02  0.00000000000E+00 0.  1.
         11    1    3    3    0    0  0.12878176707E+02  0.84328281857E+01 -0.12053607045E+02  0.19551201231E+02  0.51100000000E-03 0. -1.
        -11    1    3    3    0    0  0.12098977237E+02  0.62428583011E+00 -0.49882590282E+00  0.12125337543E+02  0.51100000000E-03 0.  1.
         12    1    3    3    0    0  0.10189400270E+02 -0.29238557606E+01 -0.12131928609E+02  0.16110757342E+02  0.00000000000E+00 0. -1.
</event>
<event>
 7    1  0.1322363E-009  0.4778727E+02  0.7816164E-02  0.1312668E+00
        -11   -1    0    0    0    0  0.00000000000E+00  0.00000000000E+00  0.45593999997E+02  0.45594000000E+02  0.51100000000E-03 0.  1.
         11   -1    0    0    0    0 -0.00000000000E+00 -0.00000000000E+00 -0.45593999997E+02  0.45594000000E+02  0.51100000000E-03 0. -1.
    9900012    2    1    2    0    0 -0.83916422509E+01 -0.41984242942E+02 -0.71082271570E+01  0.47787271798E+02  0.20000003438E+02 0.  0.
        -12    1    1    2    0    0  0.83916422509E+01  0.41984242942E+02  0.71082271570E+01  0.43400728202E+02  0.00000000000E+00 0.  1.
         11    1    3    3    0    0 -0.41831840378E+00 -0.72501630568E+01 -0.77012373696E+00  0.73029408781E+01  0.51100000000E-03 0. -1.
        -11    1    3    3    0    0 -0.26232332728E+01  0.17173367022E+01 -0.28322291915E+00  0.31481444750E+01  0.51100000000E-03 0.  1.
        -12    1    3    3    0    0 -0.53500905743E+01 -0.36451416588E+02 -0.60548805009E+01  0.37336186445E+02  0.00000000000E+00 0.  1.
</event>
<event>
 7    1  0.1322363E-009  0.4778727E+02  0.7816164E-02  0.1312668E+00
        -11   -1    0    0    0    0  0.00000000000E+00  0.00000000000E+00  0.45593999997E+02  0.45594000000E+02  0.51100000000E-03 0. -1.
         11   -1    0    0    0    0 -0.00000000000E+00 -0.00000000000E+00 -0.45593999997E+02  0.45594000000E+02  0.51100000000E-03 0.  1.
    9900012    2    1    2    0    0 -0.20786126780E+02  0.33806808568E+02  0.17568722793E+02  0.47787269676E+02  0.19999993761E+02 0.  0.
        -12    1    1    2    0    0  0.20786126780E+02 -0.33806808568E+02 -0.17568722793E+02  0.43400730324E+02  0.00000000000E+00 0.  1.
         11    1    3    3    0    0 -0.98173902911E+01  0.10845588987E+02 -0.17269423953E-01  0.14629020852E+02  0.51100000000E-03 0. -1.
        -11    1    3    3    0    0  0.13992462040E+01 -0.33573887843E+00  0.21803961521E+01  0.26124199844E+01  0.51100000000E-03 0.  1.
         12    1    3    3    0    0 -0.12367982692E+02  0.23296958460E+02  0.15405596065E+02  0.30545828840E+02  0.00000000000E+00 0. -1.
</event>
<event>
 7    1  0.1322363E-009  0.4778727E+02  0.7816164E-02  0.1312668E+00
        -11   -1    0    0    0    0  0.00000000000E+00  0.00000000000E+00  0.45593999997E+02  0.45594000000E+02  0.51100000000E-03 0.  1.
         11   -1    0    0    0    0 -0.00000000000E+00 -0.00000000000E+00 -0.45593999997E+02  0.45594000000E+02  0.51100000000E-03 0. -1.
    9900012    2    1    2    0    0 -0.13907792050E+02  0.16412421484E+02 -0.37693881475E+02  0.47787274668E+02  0.20000016522E+02 0.  0.
        -12    1    1    2    0    0  0.13907792050E+02 -0.16412421484E+02  0.37693881475E+02  0.43400725332E+02  0.00000000000E+00 0.  1.
         11    1    3    3    0    0 -0.58233043012E+01  0.63795563349E+01 -0.12314138182E+02  0.15041529558E+02  0.51100000000E-03 0. -1.
        -11    1    3    3    0    0  0.48599002537E+01  0.43817514082E+01 -0.73112477698E+01  0.98118662900E+01  0.51100000000E-03 0.  1.
        -12    1    3    3    0    0 -0.12944388002E+02  0.56511137409E+01 -0.18068495523E+02  0.22933878820E+02  0.00000000000E+00 0.  1.
</event>
<event>
 7    1  0.1322363E-009  0.4778727E+02  0.7816164E-02  0.1312668E+00
        -11   -1    0    0    0    0  0.00000000000E+00  0.00000000000E+00  0.45593999997E+02  0.45594000000E+02  0.51100000000E-03 0. -1.
         11   -1    0    0    0    0 -0.00000000000E+00 -0.00000000000E+00 -0.45593999997E+02  0.45594000000E+02  0.51100000000E-03 0.  1.
    9900012    2    1    2    0    0  0.22385990746E+02  0.21588082241E+01  0.37119135896E+02  0.47787270925E+02  0.19999999455E+02 0.  0.
        -12    1    1    2    0    0 -0.22385990746E+02 -0.21588082241E+01 -0.37119135896E+02  0.43400729075E+02  0.00000000000E+00 0.  1.
         11    1    3    3    0    0  0.13979738699E+02  0.19854813024E+01  0.18942752659E+02  0.23626322369E+02  0.51100000000E-03 0. -1.
        -11    1    3    3    0    0  0.10472254246E+02 -0.40392892607E+01  0.12963476173E+02  0.17147468661E+02  0.51100000000E-03 0.  1.
        -12    1    3    3    0    0 -0.20660021998E+01  0.42126161824E+01  0.52129070631E+01  0.70134798951E+01  0.00000000000E+00 0.  1.
</event>
<event>
 7    1  0.1322363E-009  0.4778727E+02  0.7816164E-02  0.1312668E+00
        -11   -1    0    0    0    0  0.00000000000E+00  0.00000000000E+00  0.45593999997E+02  0.45594000000E+02  0.51100000000E-03 0.  1.
         11   -1    0    0    0    0 -0.00000000000E+00 -0.00000000000E+00 -0.45593999997E+02  0.45594000000E+02  0.51100000000E-03 0. -1.
    9900012    2    1    2    0    0 -0.27229849382E+02  0.17587907121E+01 -0.33750039827E+02  0.47787271544E+02  0.20000002280E+02 0.  0.
        -12    1    1    2    0    0  0.27229849382E+02 -0.17587907121E+01  0.33750039827E+02  0.43400728456E+02  0.00000000000E+00 0.  1.
         11    1    3    3    0    0 -0.84241015579E+01 -0.37158156750E+01 -0.13713588215E+02  0.16517726090E+02  0.51100000000E-03 0. -1.
        -11    1    3    3    0    0 -0.63142544763E+01  0.76881916251E+01 -0.14116812665E+02  0.17270277940E+02  0.51100000000E-03 0.  1.
        -12    1    3    3    0    0 -0.12491493348E+02 -0.22135852380E+01 -0.59196389467E+01  0.13999267514E+02  0.00000000000E+00 0.  1.
</event>
<event>
 7    1  0.1322363E-009  0.4778727E+02  0.7816164E-02  0.1312668E+00
        -11   -1    0    0    0    0  0.00000000000E+00  0.00000000000E+00  0.45593999997E+02  0.45594000000E+02  0.51100000000E-03 0.  1.
         11   -1    0    0    0    0 -0.00000000000E+00 -0.00000000000E+00 -0.45593999997E+02  0.45594000000E+02  0.51100000000E-03 0. -1.
    9900012    2    1    2    0    0  0.24161633242E+02  0.13105746650E+02 -0.33586876745E+02  0.47787269526E+02  0.19999993077E+02 0.  0.
        -12    1    1    2    0    0 -0.24161633242E+02 -0.13105746650E+02  0.33586876745E+02  0.43400730474E+02  0.00000000000E+00 0.  1.
         11    1    3    3    0    0  0.72666381999E+01  0.12604970165E+02 -0.15715876191E+02  0.21416770725E+02  0.51100000000E-03 0. -1.
        -11    1    3    3    0    0  0.13869102273E+02  0.36115086178E+01 -0.10317614204E+02  0.17659222958E+02  0.51100000000E-03 0.  1.
        -12    1    3    3    0    0  0.30258927686E+01 -0.31107321328E+01 -0.75533863507E+01  0.87112758429E+01  0.00000000000E+00 0.  1.
</event>
<event>
 7    1  0.1322363E-009  0.4778727E+02  0.7816164E-02  0.1312668E+00
        -11   -1    0    0    0    0  0.00000000000E+00  0.00000000000E+00  0.45593999997E+02  0.45594000000E+02  0.51100000000E-03 0. -1.
         11   -1    0    0    0    0 -0.00000000000E+00 -0.00000000000E+00 -0.45593999997E+02  0.45594000000E+02  0.51100000000E-03 0.  1.
    9900012    2    1    2    0    0  0.15637784626E+02  0.54328657881E+01  0.40119409652E+02  0.47787269943E+02  0.19999994978E+02 0.  0.
        -12    1    1    2    0    0 -0.15637784626E+02 -0.54328657881E+01 -0.40119409652E+02  0.43400730057E+02  0.00000000000E+00 0.  1.
         11    1    3    3    0    0  0.70693931738E+01 -0.26488086338E+01  0.55526722910E+01  0.93714821057E+01  0.51100000000E-03 0.  1.
        -11    1    3    3    0    0  0.60910387883E+01  0.92784618415E+00  0.51186767409E+01  0.80101500548E+01  0.51100000000E-03 0. -1.
         12    1    3    3    0    0  0.24773526636E+01  0.71538282377E+01  0.29448060620E+02  0.30405637782E+02  0.00000000000E+00 0. -1.
</event>
<event>
 7    1  0.1322363E-009  0.4778727E+02  0.7816164E-02  0.1312668E+00
        -11   -1    0    0    0    0  0.00000000000E+00  0.00000000000E+00  0.45593999997E+02  0.45594000000E+02  0.51100000000E-03 0.  1.
         11   -1    0    0    0    0 -0.00000000000E+00 -0.00000000000E+00 -0.45593999997E+02  0.45594000000E+02  0.51100000000E-03 0. -1.
    9900012    2    1    2    0    0 -0.42596212887E+02 -0.24058057324E+00 -0.83143206971E+01  0.47787272357E+02  0.20000005984E+02 0.  0.
        -12    1    1    2    0    0  0.42596212887E+02  0.24058057324E+00  0.83143206971E+01  0.43400727643E+02  0.00000000000E+00 0.  1.
         11    1    3    3    0    0 -0.65021125130E+01 -0.45248151580E+01 -0.34498179252E+01  0.86401772739E+01  0.51100000000E-03 0. -1.
        -11    1    3    3    0    0 -0.10546007710E+02  0.75082747985E+01 -0.32408196679E+01  0.13345238157E+02  0.51100000000E-03 0.  1.
         12    1    3    3    0    0 -0.25548092663E+02 -0.32240402138E+01 -0.16236831039E+01  0.25801856926E+02  0.00000000000E+00 0. -1.
</event>
<event>
 7    1  0.1322363E-009  0.4778727E+02  0.7816164E-02  0.1312668E+00
        -11   -1    0    0    0    0  0.00000000000E+00  0.00000000000E+00  0.45593999997E+02  0.45594000000E+02  0.51100000000E-03 0.  1.
         11   -1    0    0    0    0 -0.00000000000E+00 -0.00000000000E+00 -0.45593999997E+02  0.45594000000E+02  0.51100000000E-03 0. -1.
    9900012    2    1    2    0    0 -0.42282418061E+02 -0.70302066606E+01 -0.68114854216E+01  0.47787274010E+02  0.20000013521E+02 0.  0.
        -12    1    1    2    0    0  0.42282418061E+02  0.70302066606E+01  0.68114854216E+01  0.43400725990E+02  0.00000000000E+00 0.  1.
         11    1    3    3    0    0 -0.24176205701E+02 -0.65185964957E+01 -0.10660342540E+02  0.27214406584E+02  0.51100000000E-03 0. -1.
        -11    1    3    3    0    0  0.45742665863E+00 -0.45939250003E+00  0.17798143054E+01  0.18942069158E+01  0.51100000000E-03 0.  1.
        -12    1    3    3    0    0 -0.18563639019E+02 -0.52217664832E-01  0.20690428126E+01  0.18678660510E+02  0.00000000000E+00 0.  1.
</event>
<event>
 7    1  0.1322363E-009  0.4778727E+02  0.7816164E-02  0.1312668E+00
        -11   -1    0    0    0    0  0.00000000000E+00  0.00000000000E+00  0.45593999997E+02  0.45594000000E+02  0.51100000000E-03 0.  1.
         11   -1    0    0    0    0 -0.00000000000E+00 -0.00000000000E+00 -0.45593999997E+02  0.45594000000E+02  0.51100000000E-03 0. -1.
    9900012    2    1    2    0    0  0.31060649334E+02  0.36868622311E+01 -0.30087645820E+02  0.47787270500E+02  0.19999997517E+02 0.  0.
        -12    1    1    2    0    0 -0.31060649334E+02 -0.36868622311E+01  0.30087645820E+02  0.43400729500E+02  0.00000000000E+00 0.  1.
         11    1    3    3    0    0  0.18424155341E+02  0.20554148133E+01 -0.14878355881E+02  0.23770563815E+02  0.51100000000E-03 0. -1.
        -11    1    3    3    0    0  0.10909846946E+02  0.67380331199E+01 -0.83885703395E+01  0.15322988067E+02  0.51100000000E-03 0.  1.
        -12    1    3    3    0    0  0.17266470477E+01 -0.51065857021E+01 -0.68207195990E+01  0.86937186180E+01  0.00000000000E+00 0.  1.
</event>
<event>
 7    1  0.1322363E-009  0.4778727E+02  0.7816164E-02  0.1312668E+00
        -11   -1    0    0    0    0  0.00000000000E+00  0.00000000000E+00  0.45593999997E+02  0.45594000000E+02  0.51100000000E-03 0. -1.
         11   -1    0    0    0    0 -0.00000000000E+00 -0.00000000000E+00 -0.45593999997E+02  0.45594000000E+02  0.51100000000E-03 0.  1.
    9900012    2    1    2    0    0  0.64285332470E+01  0.35154962865E+02  0.24625709063E+02  0.47787274192E+02  0.20000014353E+02 0.  0.
        -12    1    1    2    0    0 -0.64285332470E+01 -0.35154962865E+02 -0.24625709063E+02  0.43400725808E+02  0.00000000000E+00 0.  1.
         11    1    3    3    0    0 -0.16794300359E+01  0.10337001473E+01  0.46543948854E+01  0.50549394902E+01  0.51100000000E-03 0. -1.
        -11    1    3    3    0    0  0.14469945666E+01 -0.11591086200E+01  0.12962424060E+01  0.22622048327E+01  0.51100000000E-03 0.  1.
         12    1    3    3    0    0  0.66609687163E+01  0.35280371338E+02  0.18675071772E+02  0.40470129870E+02  0.00000000000E+00 0. -1.
</event>
<event>
 7    1  0.1322363E-009  0.4778726E+02  0.7816164E-02  0.1312668E+00
        -11   -1    0    0    0    0  0.00000000000E+00  0.00000000000E+00  0.45593999997E+02  0.45594000000E+02  0.51100000000E-03 0.  1.
         11   -1    0    0    0    0 -0.00000000000E+00 -0.00000000000E+00 -0.45593999997E+02  0.45594000000E+02  0.51100000000E-03 0. -1.
    9900012    2    1    2    0    0 -0.27185554859E+02 -0.10589597515E+02 -0.32131446399E+02  0.47787264796E+02  0.19999971512E+02 0.  0.
        -12    1    1    2    0    0  0.27185554859E+02  0.10589597515E+02  0.32131446399E+02  0.43400735204E+02  0.00000000000E+00 0.  1.
         11    1    3    3    0    0 -0.20245718798E+02 -0.14410309814E+02 -0.27225349706E+02  0.36861440903E+02  0.51100000000E-03 0. -1.
        -11    1    3    3    0    0 -0.13455033893E+01 -0.17931922371E+00  0.11370356774E+01  0.17707018799E+01  0.51100000000E-03 0.  1.
        -12    1    3    3    0    0 -0.55943326719E+01  0.40000315231E+01 -0.60431323702E+01  0.91551220131E+01  0.00000000000E+00 0.  1.
</event>
<event>
 7    1  0.1322363E-009  0.4778728E+02  0.7816164E-02  0.1312668E+00
        -11   -1    0    0    0    0  0.00000000000E+00  0.00000000000E+00  0.45593999997E+02  0.45594000000E+02  0.51100000000E-03 0.  1.
         11   -1    0    0    0    0 -0.00000000000E+00 -0.00000000000E+00 -0.45593999997E+02  0.45594000000E+02  0.51100000000E-03 0. -1.
    9900012    2    1    2    0    0 -0.16175901599E+02  0.38030809953E+02 -0.13252179163E+02  0.47787279375E+02  0.20000037983E+02 0.  0.
        -12    1    1    2    0    0  0.16175901599E+02 -0.38030809953E+02  0.13252179163E+02  0.43400720625E+02  0.00000000000E+00 0.  1.
         11    1    3    3    0    0 -0.11269616134E+02  0.25973111983E+02 -0.67951925183E+01  0.29116686548E+02  0.51100000000E-03 0. -1.
        -11    1    3    3    0    0 -0.63851023668E+01  0.95350547894E+01  0.11647620408E+00  0.11476078121E+02  0.51100000000E-03 0.  1.
        -12    1    3    3    0    0  0.14788169020E+01  0.25226431805E+01 -0.65734628483E+01  0.71945147066E+01  0.00000000000E+00 0.  1.
</event>
<event>
 7    1  0.1322363E-009  0.4778727E+02  0.7816164E-02  0.1312668E+00
        -11   -1    0    0    0    0  0.00000000000E+00  0.00000000000E+00  0.45593999997E+02  0.45594000000E+02  0.51100000000E-03 0.  1.
         11   -1    0    0    0    0 -0.00000000000E+00 -0.00000000000E+00 -0.45593999997E+02  0.45594000000E+02  0.51100000000E-03 0. -1.
    9900012    2    1    2    0    0  0.36811976702E+02  0.18190436748E+02 -0.14057361621E+02  0.47787273813E+02  0.20000012624E+02 0.  0.
        -12    1    1    2    0    0 -0.36811976702E+02 -0.18190436748E+02  0.14057361621E+02  0.43400726187E+02  0.00000000000E+00 0.  1.
         11    1    3    3    0    0  0.17107129991E+02  0.70833861742E+01 -0.40691773325E+01  0.18957490885E+02  0.51100000000E-03 0. -1.
        -11    1    3    3    0    0  0.58263924181E+01  0.68979283074E+01 -0.11071620068E+02  0.14286673326E+02  0.51100000000E-03 0.  1.
        -12    1    3    3    0    0  0.13878454293E+02  0.42091222664E+01  0.10834357791E+01  0.14543109602E+02  0.00000000000E+00 0.  1.
</event>
<event>
 7    1  0.1322363E-009  0.4778729E+02  0.7816164E-02  0.1312668E+00
        -11   -1    0    0    0    0  0.00000000000E+00  0.00000000000E+00  0.45593999997E+02  0.45594000000E+02  0.51100000000E-03 0.  1.
         11   -1    0    0    0    0 -0.00000000000E+00 -0.00000000000E+00 -0.45593999997E+02  0.45594000000E+02  0.51100000000E-03 0. -1.
    9900012    2    1    2    0    0 -0.23662425926E+02  0.16029147334E+02 -0.32661561704E+02  0.47787290583E+02  0.20000089083E+02 0.  0.
        -12    1    1    2    0    0  0.23662425926E+02 -0.16029147334E+02  0.32661561704E+02  0.43400709417E+02  0.00000000000E+00 0.  1.
         11    1    3    3    0    0 -0.16934234321E+02  0.12034726826E+02 -0.25035219741E+02  0.32532524796E+02  0.51100000000E-03 0. -1.
        -11    1    3    3    0    0  0.83912255788E+00  0.10989774788E+01 -0.69922536995E+01  0.71276567134E+01  0.51100000000E-03 0.  1.
        -12    1    3    3    0    0 -0.75673141624E+01  0.28954430290E+01 -0.63408826354E+00  0.81271090735E+01  0.00000000000E+00 0.  1.
</event>
<event>
 7    1  0.1322363E-009  0.4778728E+02  0.7816164E-02  0.1312668E+00
        -11   -1    0    0    0    0  0.00000000000E+00  0.00000000000E+00  0.45593999997E+02  0.45594000000E+02  0.51100000000E-03 0. -1.
         11   -1    0    0    0    0 -0.00000000000E+00 -0.00000000000E+00 -0.45593999997E+02  0.45594000000E+02  0.51100000000E-03 0.  1.
    9900012    2    1    2    0    0 -0.20492876159E+02  0.22839314168E+02  0.30692517986E+02  0.47787275291E+02  0.20000019364E+02 0.  0.
        -12    1    1    2    0    0  0.20492876159E+02 -0.22839314168E+02 -0.30692517986E+02  0.43400724709E+02  0.00000000000E+00 0.  1.
         11    1    3    3    0    0 -0.97968811092E+01  0.66223700434E+00  0.71071586619E+01  0.12121433159E+02  0.51100000000E-03 0. -1.
        -11    1    3    3    0    0  0.11573746313E+01  0.60737781332E+01  0.26844909948E+01  0.67406816428E+01  0.51100000000E-03 0.  1.
         12    1    3    3    0    0 -0.11853369682E+02  0.16103299030E+02  0.20900868329E+02  0.28925160490E+02  0.00000000000E+00 0. -1.
</event>
<event>
 7    1  0.1322363E-009  0.4778727E+02  0.7816164E-02  0.1312668E+00
        -11   -1    0    0    0    0  0.00000000000E+00  0.00000000000E+00  0.45593999997E+02  0.45594000000E+02  0.51100000000E-03 0.  1.
         11   -1    0    0    0    0 -0.00000000000E+00 -0.00000000000E+00 -0.45593999997E+02  0.45594000000E+02  0.51100000000E-03 0. -1.
    9900012    2    1    2    0    0  0.66084933660E+01  0.17303686349E+02 -0.39249631647E+02  0.47787270394E+02  0.19999997036E+02 0.  0.
        -12    1    1    2    0    0 -0.66084933660E+01 -0.17303686349E+02  0.39249631647E+02  0.43400729606E+02  0.00000000000E+00 0.  1.
         11    1    3    3    0    0  0.81048264473E+01  0.16430038359E+02 -0.37589135851E+02  0.41815995822E+02  0.51100000000E-03 0. -1.
        -11    1    3    3    0    0  0.18572424309E+01 -0.10269918449E+00 -0.16378415859E+01  0.24783909883E+01  0.51100000000E-03 0.  1.
        -12    1    3    3    0    0 -0.33535755122E+01  0.97634717443E+00 -0.22654210082E-01  0.34928835844E+01  0.00000000000E+00 0.  1.
</event>
<event>
 7    1  0.1322363E-009  0.4778727E+02  0.7816164E-02  0.1312668E+00
        -11   -1    0    0    0    0  0.00000000000E+00  0.00000000000E+00  0.45593999997E+02  0.45594000000E+02  0.51100000000E-03 0.  1.
         11   -1    0    0    0    0 -0.00000000000E+00 -0.00000000000E+00 -0.45593999997E+02  0.45594000000E+02  0.51100000000E-03 0. -1.
    9900012    2    1    2    0    0 -0.10566547314E+02  0.28059328229E+02 -0.31379059093E+02  0.47787272214E+02  0.20000005334E+02 0.  0.
        -12    1    1    2    0    0  0.10566547314E+02 -0.28059328229E+02  0.31379059093E+02  0.43400727786E+02  0.00000000000E+00 0.  1.
         11    1    3    3    0    0 -0.51853817488E+01  0.92687584205E+01 -0.20771999534E+01  0.10821867974E+02  0.51100000000E-03 0. -1.
        -11    1    3    3    0    0 -0.24107665528E+01  0.18418298997E+01 -0.12691786899E+02  0.13049352004E+02  0.51100000000E-03 0.  1.
         12    1    3    3    0    0 -0.29703990122E+01  0.16948739908E+02 -0.16610072240E+02  0.23916052237E+02  0.00000000000E+00 0. -1.
</event>
<event>
 7    1  0.1322363E-009  0.4778728E+02  0.7816164E-02  0.1312668E+00
        -11   -1    0    0    0    0  0.00000000000E+00  0.00000000000E+00  0.45593999997E+02  0.45594000000E+02  0.51100000000E-03 0.  1.
         11   -1    0    0    0    0 -0.00000000000E+00 -0.00000000000E+00 -0.45593999997E+02  0.45594000000E+02  0.51100000000E-03 0. -1.
    9900012    2    1    2    0    0 -0.28063022368E+02 -0.56546938067E+01 -0.32620762080E+02  0.47787275292E+02  0.20000019365E+02 0.  0.
        -12    1    1    2    0    0  0.28063022368E+02  0.56546938067E+01  0.32620762080E+02  0.43400724708E+02  0.00000000000E+00 0.  1.
         11    1    3    3    0    0 -0.12241974768E+02 -0.37116478309E+01 -0.85620524277E+01  0.15393213370E+02  0.51100000000E-03 0. -1.
        -11    1    3    3    0    0 -0.30402553736E+01 -0.60857825341E+01 -0.30471315131E+01  0.74541875820E+01  0.51100000000E-03 0.  1.
        -12    1    3    3    0    0 -0.12780792227E+02  0.41427365583E+01 -0.21011578140E+02  0.24939874339E+02  0.00000000000E+00 0.  1.
</event>
<event>
 7    1  0.1322363E-009  0.4778727E+02  0.7816164E-02  0.1312668E+00
        -11   -1    0    0    0    0  0.00000000000E+00  0.00000000000E+00  0.45593999997E+02  0.45594000000E+02  0.51100000000E-03 0.  1.
         11   -1    0    0    0    0 -0.00000000000E+00 -0.00000000000E+00 -0.45593999997E+02  0.45594000000E+02  0.51100000000E-03 0. -1.
    9900012    2    1    2    0    0 -0.36016983290E+02 -0.97497539812E+01 -0.22166250902E+02  0.47787268819E+02  0.19999989853E+02 0.  0.
        -12    1    1    2    0    0  0.36016983290E+02  0.97497539812E+01  0.22166250902E+02  0.43400731181E+02  0.00000000000E+00 0.  1.
         11    1    3    3    0    0 -0.60657411824E+01  0.44755558267E+00 -0.10571991033E+02  0.12196742055E+02  0.51100000000E-03 0. -1.
        -11    1    3    3    0    0 -0.20462395296E+02 -0.10025509848E+02 -0.12615118063E+02  0.26045377190E+02  0.51100000000E-03 0.  1.
        -12    1    3    3    0    0 -0.94888468110E+01 -0.17179971609E+00  0.10208581930E+01  0.95451495743E+01  0.00000000000E+00 0.  1.
</event>
<event>
 7    1  0.1322363E-009  0.4778727E+02  0.7816164E-02  0.1312668E+00
        -11   -1    0    0    0    0  0.00000000000E+00  0.00000000000E+00  0.45593999997E+02  0.45594000000E+02  0.51100000000E-03 0.  1.
         11   -1    0    0    0    0 -0.00000000000E+00 -0.00000000000E+00 -0.45593999997E+02  0.45594000000E+02  0.51100000000E-03 0. -1.
    9900012    2    1    2    0    0  0.69019066991E+01 -0.27715395319E+02 -0.32677875567E+02  0.47787274138E+02  0.20000014104E+02 0.  0.
        -12    1    1    2    0    0 -0.69019066991E+01  0.27715395319E+02  0.32677875567E+02  0.43400725862E+02  0.00000000000E+00 0.  1.
         11    1    3    3    0    0  0.36182495532E+01 -0.24061837389E+01 -0.77518643227E+01  0.88866670216E+01  0.51100000000E-03 0. -1.
        -11    1    3    3    0    0  0.28184675071E+01  0.10455681820E+01 -0.50915909423E+01  0.59128056367E+01  0.51100000000E-03 0.  1.
        -12    1    3    3    0    0  0.46518963879E+00 -0.26354779763E+02 -0.19834420302E+02  0.32987801479E+02  0.00000000000E+00 0.  1.
</event>
<event>
 7    1  0.1322363E-009  0.4778727E+02  0.7816164E-02  0.1312668E+00
        -11   -1    0    0    0    0  0.00000000000E+00  0.00000000000E+00  0.45593999997E+02  0.45594000000E+02  0.51100000000E-03 0. -1.
         11   -1    0    0    0    0 -0.00000000000E+00 -0.00000000000E+00 -0.45593999997E+02  0.45594000000E+02  0.51100000000E-03 0.  1.
    9900012    2    1    2    0    0 -0.11916043565E+02  0.33195457633E+02  0.25292142297E+02  0.47787274618E+02  0.20000016295E+02 0.  0.
        -12    1    1    2    0    0  0.11916043565E+02 -0.33195457633E+02 -0.25292142297E+02  0.43400725382E+02  0.00000000000E+00 0.  1.
         11    1    3    3    0    0 -0.28159794708E+01  0.61112180006E+01 -0.30350748929E+00  0.67356397535E+01  0.51100000000E-03 0. -1.
        -11    1    3    3    0    0 -0.10748906064E+02  0.11061356554E+02  0.16359826852E+02  0.22484139416E+02  0.51100000000E-03 0.  1.
         12    1    3    3    0    0  0.16488419700E+01  0.16022883078E+02  0.92358229345E+01  0.18567495449E+02  0.00000000000E+00 0. -1.
</event>
<event>
 7    1  0.1322363E-009  0.4778728E+02  0.7816164E-02  0.1312668E+00
        -11   -1    0    0    0    0  0.00000000000E+00  0.00000000000E+00  0.45593999997E+02  0.45594000000E+02  0.51100000000E-03 0.  1.
         11   -1    0    0    0    0 -0.00000000000E+00 -0.00000000000E+00 -0.45593999997E+02  0.45594000000E+02  0.51100000000E-03 0. -1.
    9900012    2    1    2    0    0 -0.36784899966E+02  0.22693897217E+02  0.39345709484E+01  0.47787277829E+02  0.20000030935E+02 0.  0.
        -12    1    1    2    0    0  0.36784899966E+02 -0.22693897217E+02 -0.39345709484E+01  0.43400722171E+02  0.00000000000E+00 0.  1.
         11    1    3    3    0    0 -0.69432408686E+01  0.13675724449E+02  0.43747966415E+01  0.15949071411E+02  0.51100000000E-03 0.  1.
        -11    1    3    3    0    0 -0.14710778097E+02  0.69690651949E+01  0.19087626935E+01  0.16389577090E+02  0.51100000000E-03 0. -1.
        -12    1    3    3    0    0 -0.15130881000E+02  0.20491075735E+01 -0.23489883866E+01  0.15448629328E+02  0.00000000000E+00 0.  1.
</event>
<event>
 7    1  0.1322363E-009  0.4778727E+02  0.7816164E-02  0.1312668E+00
        -11   -1    0    0    0    0  0.00000000000E+00  0.00000000000E+00  0.45593999997E+02  0.45594000000E+02  0.51100000000E-03 0. -1.
         11   -1    0    0    0    0 -0.00000000000E+00 -0.00000000000E+00 -0.45593999997E+02  0.45594000000E+02  0.51100000000E-03 0.  1.
    9900012    2    1    2    0    0 -0.28004788320E+02 -0.25973246921E+01  0.33054636837E+02  0.47787270965E+02  0.19999999636E+02 0.  0.
        -12    1    1    2    0    0  0.28004788320E+02  0.25973246921E+01 -0.33054636837E+02  0.43400729035E+02  0.00000000000E+00 0.  1.
         11    1    3    3    0    0 -0.27274580058E+01 -0.37080857907E+01  0.60476722181E+01  0.76002149261E+01  0.51100000000E-03 0. -1.
        -11    1    3    3    0    0  0.19598787687E+01 -0.27268793204E+00  0.27398322105E+00  0.19976362439E+01  0.51100000000E-03 0.  1.
         12    1    3    3    0    0 -0.27237209082E+02  0.13834490306E+01  0.26732981398E+02  0.38189419795E+02  0.00000000000E+00 0. -1.
</event>
<event>
 7    1  0.1322363E-009  0.4778727E+02  0.7816164E-02  0.1312668E+00
        -11   -1    0    0    0    0  0.00000000000E+00  0.00000000000E+00  0.45593999997E+02  0.45594000000E+02  0.51100000000E-03 0.  1.
         11   -1    0    0    0    0 -0.00000000000E+00 -0.00000000000E+00 -0.45593999997E+02  0.45594000000E+02  0.51100000000E-03 0. -1.
    9900012    2    1    2    0    0  0.15588786852E+02  0.15516672396E+02 -0.37414512297E+02  0.47787272722E+02  0.20000007650E+02 0.  0.
        -12    1    1    2    0    0 -0.15588786852E+02 -0.15516672396E+02  0.37414512297E+02  0.43400727278E+02  0.00000000000E+00 0.  1.
         11    1    3    3    0    0  0.93917485701E+01  0.31737562617E+01 -0.24819709510E+02  0.26726310079E+02  0.51100000000E-03 0. -1.
        -11    1    3    3    0    0 -0.19084625679E+00 -0.14070731253E+00  0.12990548348E+01  0.13205167801E+01  0.51100000000E-03 0.  1.
        -12    1    3    3    0    0  0.63878845388E+01  0.12483623447E+02 -0.13893857622E+02  0.19740445863E+02  0.00000000000E+00 0.  1.
</event>
<event>
 7    1  0.1322363E-009  0.4778727E+02  0.7816164E-02  0.1312668E+00
        -11   -1    0    0    0    0  0.00000000000E+00  0.00000000000E+00  0.45593999997E+02  0.45594000000E+02  0.51100000000E-03 0.  1.
         11   -1    0    0    0    0 -0.00000000000E+00 -0.00000000000E+00 -0.45593999997E+02  0.45594000000E+02  0.51100000000E-03 0. -1.
    9900012    2    1    2    0    0  0.41097170547E+02  0.11769201714E+02 -0.74921110371E+01  0.47787271161E+02  0.20000000532E+02 0.  0.
        -12    1    1    2    0    0 -0.41097170547E+02 -0.11769201714E+02  0.74921110371E+01  0.43400728839E+02  0.00000000000E+00 0.  1.
         11    1    3    3    0    0  0.32941559408E+02  0.83146882778E+01 -0.11861686492E+02  0.35985830324E+02  0.51100000000E-03 0. -1.
        -11    1    3    3    0    0  0.80400741117E+01  0.55618649460E+00  0.33299320933E+01  0.87201251794E+01  0.51100000000E-03 0.  1.
        -12    1    3    3    0    0  0.11553702769E+00  0.28983269414E+01  0.10396433620E+01  0.30813156580E+01  0.00000000000E+00 0.  1.
</event>
<event>
 7    1  0.1322363E-009  0.4778725E+02  0.7816164E-02  0.1312668E+00
        -11   -1    0    0    0    0  0.00000000000E+00  0.00000000000E+00  0.45593999997E+02  0.45594000000E+02  0.51100000000E-03 0.  1.
         11   -1    0    0    0    0 -0.00000000000E+00 -0.00000000000E+00 -0.45593999997E+02  0.45594000000E+02  0.51100000000E-03 0. -1.
    9900012    2    1    2    0    0 -0.36810461786E+02 -0.21200713094E+02 -0.88963139381E+01  0.47787254220E+02  0.19999923292E+02 0.  0.
        -12    1    1    2    0    0  0.36810461786E+02  0.21200713094E+02  0.88963139381E+01  0.43400745780E+02  0.00000000000E+00 0.  1.
         11    1    3    3    0    0 -0.16691460642E+02 -0.44003227134E+00 -0.26514505505E+01  0.16906468497E+02  0.51100000000E-03 0. -1.
        -11    1    3    3    0    0  0.23338034368E+00 -0.32761906266E+01 -0.15878947675E+01  0.36481915329E+01  0.51100000000E-03 0.  1.
        -12    1    3    3    0    0 -0.20352381487E+02 -0.17484490196E+02 -0.46569686201E+01  0.27232594190E+02  0.00000000000E+00 0.  1.
</event>
<event>
 7    1  0.1322363E-009  0.4778727E+02  0.7816164E-02  0.1312668E+00
        -11   -1    0    0    0    0  0.00000000000E+00  0.00000000000E+00  0.45593999997E+02  0.45594000000E+02  0.51100000000E-03 0. -1.
         11   -1    0    0    0    0 -0.00000000000E+00 -0.00000000000E+00 -0.45593999997E+02  0.45594000000E+02  0.51100000000E-03 0.  1.
    9900012    2    1    2    0    0 -0.42168492916E+01  0.28406938298E+02  0.32540547075E+02  0.47787272294E+02  0.20000005698E+02 0.  0.
        -12    1    1    2    0    0  0.42168492916E+01 -0.28406938298E+02 -0.32540547075E+02  0.43400727706E+02  0.00000000000E+00 0.  1.
         11    1    3    3    0    0 -0.18304653924E+01  0.15356395121E+02  0.90723466438E+01  0.17929778263E+02  0.51100000000E-03 0.  1.
        -11    1    3    3    0    0  0.29674003709E+01 -0.12217547947E+01  0.43735674125E+01  0.54245960137E+01  0.51100000000E-03 0. -1.
         12    1    3    3    0    0 -0.53537842701E+01  0.14272297972E+02  0.19094633019E+02  0.24432898018E+02  0.00000000000E+00 0. -1.
</event>
<event>
 7    1  0.1322363E-009  0.4778729E+02  0.7816164E-02  0.1312668E+00
        -11   -1    0    0    0    0  0.00000000000E+00  0.00000000000E+00  0.45593999997E+02  0.45594000000E+02  0.51100000000E-03 0. -1.
         11   -1    0    0    0    0 -0.00000000000E+00 -0.00000000000E+00 -0.45593999997E+02  0.45594000000E+02  0.51100000000E-03 0.  1.
    9900012    2    1    2    0    0  0.32475540231E+02  0.27569290325E+02 -0.83003269519E+01  0.47787286759E+02  0.20000071649E+02 0.  0.
        -12    1    1    2    0    0 -0.32475540231E+02 -0.27569290325E+02  0.83003269519E+01  0.43400713241E+02  0.00000000000E+00 0.  1.
         11    1    3    3    0    0  0.13229516764E+02  0.13587402118E+02  0.11936614418E+01  0.19001643035E+02  0.51100000000E-03 0. -1.
        -11    1    3    3    0    0  0.10356915834E+02  0.13010984193E+02 -0.10682095044E+02  0.19765084621E+02  0.51100000000E-03 0.  1.
         12    1    3    3    0    0  0.88891076332E+01  0.97090401320E+00  0.11881066507E+01  0.90205591031E+01  0.00000000000E+00 0. -1.
</event>
<event>
 7    1  0.1322363E-009  0.4778727E+02  0.7816164E-02  0.1312668E+00
        -11   -1    0    0    0    0  0.00000000000E+00  0.00000000000E+00  0.45593999997E+02  0.45594000000E+02  0.51100000000E-03 0. -1.
         11   -1    0    0    0    0 -0.00000000000E+00 -0.00000000000E+00 -0.45593999997E+02  0.45594000000E+02  0.51100000000E-03 0.  1.
    9900012    2    1    2    0    0  0.20794273474E+02  0.27146369086E+02  0.26726321720E+02  0.47787269170E+02  0.19999991454E+02 0.  0.
        -12    1    1    2    0    0 -0.20794273474E+02 -0.27146369086E+02 -0.26726321720E+02  0.43400730830E+02  0.00000000000E+00 0.  1.
         11    1    3    3    0    0  0.82462025228E+01  0.14020887289E+02  0.49424460580E+01  0.17000379693E+02  0.51100000000E-03 0. -1.
        -11    1    3    3    0    0  0.13452071922E+02  0.66110099411E+01  0.16937166348E+02  0.22617057625E+02  0.51100000000E-03 0.  1.
        -12    1    3    3    0    0 -0.90400097083E+00  0.65144718555E+01  0.48467093144E+01  0.81698318520E+01  0.00000000000E+00 0.  1.
</event>
<event>
 7    1  0.1322363E-009  0.4778727E+02  0.7816164E-02  0.1312668E+00
        -11   -1    0    0    0    0  0.00000000000E+00  0.00000000000E+00  0.45593999997E+02  0.45594000000E+02  0.51100000000E-03 0.  1.
         11   -1    0    0    0    0 -0.00000000000E+00 -0.00000000000E+00 -0.45593999997E+02  0.45594000000E+02  0.51100000000E-03 0. -1.
    9900012    2    1    2    0    0  0.26673185349E+02  0.14034227910E+02 -0.31228272732E+02  0.47787269735E+02  0.19999994028E+02 0.  0.
        -12    1    1    2    0    0 -0.26673185349E+02 -0.14034227910E+02  0.31228272732E+02  0.43400730265E+02  0.00000000000E+00 0.  1.
         11    1    3    3    0    0  0.12971061283E+02 -0.40141601183E+00 -0.16230371039E+02  0.20780628238E+02  0.51100000000E-03 0. -1.
        -11    1    3    3    0    0  0.13175956712E+02  0.79818942021E+01 -0.13199096298E+02  0.20286266628E+02  0.51100000000E-03 0.  1.
        -12    1    3    3    0    0  0.52616735393E+00  0.64537497201E+01 -0.17988053949E+01  0.67203748692E+01  0.00000000000E+00 0.  1.
</event>
<event>
 7    1  0.1322363E-009  0.4778731E+02  0.7816164E-02  0.1312668E+00
        -11   -1    0    0    0    0  0.00000000000E+00  0.00000000000E+00  0.45593999997E+02  0.45594000000E+02  0.51100000000E-03 0.  1.
         11   -1    0    0    0    0 -0.00000000000E+00 -0.00000000000E+00 -0.45593999997E+02  0.45594000000E+02  0.51100000000E-03 0. -1.
    9900012    2    1    2    0    0  0.17798105315E+02 -0.39162568393E+02  0.57567815582E+01  0.47787310491E+02  0.20000179854E+02 0.  0.
        -12    1    1    2    0    0 -0.17798105315E+02  0.39162568393E+02 -0.57567815582E+01  0.43400689509E+02  0.00000000000E+00 0.  1.
         11    1    3    3    0    0 -0.44303976163E+00 -0.18558687083E+02 -0.16038876845E+01  0.18633131955E+02  0.51100000000E-03 0. -1.
        -11    1    3    3    0    0  0.25051871545E+01 -0.55834659991E+01  0.35321935048E+01  0.70659356393E+01  0.51100000000E-03 0.  1.
         12    1    3    3    0    0  0.15735957922E+02 -0.15020415311E+02  0.38284757378E+01  0.22088242897E+02  0.00000000000E+00 0. -1.
</event>
<event>
 7    1  0.1322363E-009  0.4778727E+02  0.7816164E-02  0.1312668E+00
        -11   -1    0    0    0    0  0.00000000000E+00  0.00000000000E+00  0.45593999997E+02  0.45594000000E+02  0.51100000000E-03 0.  1.
         11   -1    0    0    0    0 -0.00000000000E+00 -0.00000000000E+00 -0.45593999997E+02  0.45594000000E+02  0.51100000000E-03 0. -1.
    9900012    2    1    2    0    0 -0.10251745953E+02  0.24156327873E+02 -0.34568724430E+02  0.47787272124E+02  0.20000004923E+02 0.  0.
        -12    1    1    2    0    0  0.10251745953E+02 -0.24156327873E+02  0.34568724430E+02  0.43400727876E+02  0.00000000000E+00 0.  1.
         11    1    3    3    0    0 -0.36694590937E+00 -0.44663048665E+00 -0.19406164891E+01  0.20248754804E+01  0.51100000000E-03 0. -1.
        -11    1    3    3    0    0 -0.12557116845E+02  0.10973194590E+02 -0.10726484995E+02  0.19828002007E+02  0.51100000000E-03 0.  1.
         12    1    3    3    0    0  0.26723168016E+01  0.13629763770E+02 -0.21901622946E+02  0.25934394637E+02  0.00000000000E+00 0. -1.
</event>
<event>
 7    1  0.1322363E-009  0.4778728E+02  0.7816164E-02  0.1312668E+00
        -11   -1    0    0    0    0  0.00000000000E+00  0.00000000000E+00  0.45593999997E+02  0.45594000000E+02  0.51100000000E-03 0.  1.
         11   -1    0    0    0    0 -0.00000000000E+00 -0.00000000000E+00 -0.45593999997E+02  0.45594000000E+02  0.51100000000E-03 0. -1.
    9900012    2    1    2    0    0 -0.16400772564E+02  0.31778793289E+01 -0.40056689620E+02  0.47787278335E+02  0.20000033241E+02 0.  0.
        -12    1    1    2    0    0  0.16400772564E+02 -0.31778793289E+01  0.40056689620E+02  0.43400721665E+02  0.00000000000E+00 0.  1.
         11    1    3    3    0    0 -0.97397249043E+01  0.49290759409E+01 -0.15587071093E+02  0.19029314658E+02  0.51100000000E-03 0. -1.
        -11    1    3    3    0    0 -0.14925294153E+01 -0.16412077834E+01  0.12347644142E+01  0.25388679492E+01  0.51100000000E-03 0.  1.
        -12    1    3    3    0    0 -0.51685182441E+01 -0.10998882855E+00 -0.25704382942E+02  0.26219095728E+02  0.00000000000E+00 0.  1.
</event>
<event>
 7    1  0.1322363E-009  0.4778727E+02  0.7816164E-02  0.1312668E+00
        -11   -1    0    0    0    0  0.00000000000E+00  0.00000000000E+00  0.45593999997E+02  0.45594000000E+02  0.51100000000E-03 0.  1.
         11   -1    0    0    0    0 -0.00000000000E+00 -0.00000000000E+00 -0.45593999997E+02  0.45594000000E+02  0.51100000000E-03 0. -1.
    9900012    2    1    2    0    0 -0.18025270221E+02  0.38106663576E+02  0.10324492093E+02  0.47787270601E+02  0.19999997977E+02 0.  0.
        -12    1    1    2    0    0  0.18025270221E+02 -0.38106663576E+02 -0.10324492093E+02  0.43400729399E+02  0.00000000000E+00 0.  1.
         11    1    3    3    0    0 -0.17254981515E+02  0.24023880974E+02  0.60536626306E+00  0.29584585728E+02  0.51100000000E-03 0. -1.
        -11    1    3    3    0    0 -0.21537798079E+01  0.11085130963E+02  0.47815920821E+01  0.12263055045E+02  0.51100000000E-03 0.  1.
        -12    1    3    3    0    0  0.13834911025E+01  0.29976516390E+01  0.49375337478E+01  0.59396298277E+01  0.00000000000E+00 0.  1.
</event>
<event>
 7    1  0.1322363E-009  0.4778727E+02  0.7816164E-02  0.1312668E+00
        -11   -1    0    0    0    0  0.00000000000E+00  0.00000000000E+00  0.45593999997E+02  0.45594000000E+02  0.51100000000E-03 0.  1.
         11   -1    0    0    0    0 -0.00000000000E+00 -0.00000000000E+00 -0.45593999997E+02  0.45594000000E+02  0.51100000000E-03 0. -1.
    9900012    2    1    2    0    0 -0.38386790297E+02 -0.61939686402E+01 -0.19279836382E+02  0.47787274111E+02  0.20000013980E+02 0.  0.
        -12    1    1    2    0    0  0.38386790297E+02  0.61939686402E+01  0.19279836382E+02  0.43400725889E+02  0.00000000000E+00 0.  1.
         11    1    3    3    0    0 -0.43206747585E+01 -0.52287069975E+01 -0.36648527597E+01  0.77096532507E+01  0.51100000000E-03 0. -1.
        -11    1    3    3    0    0 -0.11476751152E+02 -0.18078858151E+01 -0.12818481616E+02  0.17300223679E+02  0.51100000000E-03 0.  1.
        -12    1    3    3    0    0 -0.22589364386E+02  0.84262417237E+00 -0.27965020061E+01  0.22777397181E+02  0.00000000000E+00 0.  1.
</event>
<event>
 7    1  0.1322363E-009  0.4778727E+02  0.7816164E-02  0.1312668E+00
        -11   -1    0    0    0    0  0.00000000000E+00  0.00000000000E+00  0.45593999997E+02  0.45594000000E+02  0.51100000000E-03 0.  1.
         11   -1    0    0    0    0 -0.00000000000E+00 -0.00000000000E+00 -0.45593999997E+02  0.45594000000E+02  0.51100000000E-03 0. -1.
    9900012    2    1    2    0    0  0.17440674768E+02  0.38272145905E+02 -0.10709303160E+02  0.47787268869E+02  0.19999990080E+02 0.  0.
        -12    1    1    2    0    0 -0.17440674768E+02 -0.38272145905E+02  0.10709303160E+02  0.43400731131E+02  0.00000000000E+00 0.  1.
         11    1    3    3    0    0  0.19498761940E+01  0.17191411663E+02 -0.24994300414E+01  0.17481241458E+02  0.51100000000E-03 0. -1.
        -11    1    3    3    0    0  0.15334612598E+02  0.18892803658E+02 -0.28308824558E+01  0.24496984903E+02  0.51100000000E-03 0.  1.
        -12    1    3    3    0    0  0.15618597664E+00  0.21879305837E+01 -0.53789906632E+01  0.58090425074E+01  0.00000000000E+00 0.  1.
</event>
<event>
 7    1  0.1322363E-009  0.4778727E+02  0.7816164E-02  0.1312668E+00
        -11   -1    0    0    0    0  0.00000000000E+00  0.00000000000E+00  0.45593999997E+02  0.45594000000E+02  0.51100000000E-03 0.  1.
         11   -1    0    0    0    0 -0.00000000000E+00 -0.00000000000E+00 -0.45593999997E+02  0.45594000000E+02  0.51100000000E-03 0. -1.
    9900012    2    1    2    0    0 -0.14413295943E+02 -0.29336401993E+02 -0.28552685310E+02  0.47787269358E+02  0.19999992313E+02 0.  0.
        -12    1    1    2    0    0  0.14413295943E+02  0.29336401993E+02  0.28552685310E+02  0.43400730642E+02  0.00000000000E+00 0.  1.
         11    1    3    3    0    0  0.20126005058E+01 -0.15280955249E+02 -0.12391124254E+02  0.19776200713E+02  0.51100000000E-03 0. -1.
        -11    1    3    3    0    0 -0.15937426957E+01 -0.18165164774E+01 -0.55371202144E+01  0.60414773377E+01  0.51100000000E-03 0.  1.
         12    1    3    3    0    0 -0.14832153753E+02 -0.12238930266E+02 -0.10624440842E+02  0.21969591308E+02  0.00000000000E+00 0. -1.
</event>
<event>
 7    1  0.1322363E-009  0.4778727E+02  0.7816164E-02  0.1312668E+00
        -11   -1    0    0    0    0  0.00000000000E+00  0.00000000000E+00  0.45593999997E+02  0.45594000000E+02  0.51100000000E-03 0.  1.
         11   -1    0    0    0    0 -0.00000000000E+00 -0.00000000000E+00 -0.45593999997E+02  0.45594000000E+02  0.51100000000E-03 0. -1.
    9900012    2    1    2    0    0 -0.29026063624E+02 -0.29401481449E+02 -0.13291484417E+02  0.47787273752E+02  0.20000012345E+02 0.  0.
        -12    1    1    2    0    0  0.29026063624E+02  0.29401481449E+02  0.13291484417E+02  0.43400726248E+02  0.00000000000E+00 0.  1.
         11    1    3    3    0    0 -0.32149572602E+00  0.58999216449E+00 -0.39875045663E+01  0.40437165063E+01  0.51100000000E-03 0. -1.
        -11    1    3    3    0    0 -0.16654250860E+02 -0.19759609683E+02 -0.10492148396E+02  0.27890704989E+02  0.51100000000E-03 0.  1.
        -12    1    3    3    0    0 -0.12050317038E+02 -0.10231863930E+02  0.11881685457E+01  0.15852852257E+02  0.00000000000E+00 0.  1.
</event>
<event>
 7    1  0.1322363E-009  0.4778727E+02  0.7816164E-02  0.1312668E+00
        -11   -1    0    0    0    0  0.00000000000E+00  0.00000000000E+00  0.45593999997E+02  0.45594000000E+02  0.51100000000E-03 0.  1.
         11   -1    0    0    0    0 -0.00000000000E+00 -0.00000000000E+00 -0.45593999997E+02  0.45594000000E+02  0.51100000000E-03 0. -1.
    9900012    2    1    2    0    0  0.38953829238E+02  0.93086876212E+01  0.16720377136E+02  0.47787268565E+02  0.19999988695E+02 0.  0.
        -12    1    1    2    0    0 -0.38953829238E+02 -0.93086876212E+01 -0.16720377136E+02  0.43400731435E+02  0.00000000000E+00 0.  1.
         11    1    3    3    0    0  0.28176055606E+02 -0.89342086997E+00  0.11197032695E+02  0.30332521355E+02  0.51100000000E-03 0. -1.
        -11    1    3    3    0    0  0.97202102953E+01  0.62243225793E+01  0.13969807766E+01  0.11626531525E+02  0.51100000000E-03 0.  1.
        -12    1    3    3    0    0  0.10575633372E+01  0.39777859118E+01  0.41263636641E+01  0.58282156842E+01  0.00000000000E+00 0.  1.
</event>
<event>
 7    1  0.1322363E-009  0.4778726E+02  0.7816164E-02  0.1312668E+00
        -11   -1    0    0    0    0  0.00000000000E+00  0.00000000000E+00  0.45593999997E+02  0.45594000000E+02  0.51100000000E-03 0.  1.
         11   -1    0    0    0    0 -0.00000000000E+00 -0.00000000000E+00 -0.45593999997E+02  0.45594000000E+02  0.51100000000E-03 0. -1.
    9900012    2    1    2    0    0 -0.30050898562E+02  0.26618563862E+02 -0.16493026106E+02  0.47787258571E+02  0.19999943128E+02 0.  0.
        -12    1    1    2    0    0  0.30050898562E+02 -0.26618563862E+02  0.16493026106E+02  0.43400741429E+02  0.00000000000E+00 0.  1.
         11    1    3    3    0    0 -0.38025927766E+01  0.96348701402E+00 -0.37548713134E+01  0.54302005388E+01  0.51100000000E-03 0.  1.
        -11    1    3    3    0    0 -0.15162858451E+01 -0.80204776820E+00  0.25273924860E+01  0.30545239279E+01  0.51100000000E-03 0. -1.
         12    1    3    3    0    0 -0.24732019940E+02  0.26457124617E+02 -0.15265547279E+02  0.39302534104E+02  0.00000000000E+00 0. -1.
</event>
<event>
 7    1  0.1322363E-009  0.4778727E+02  0.7816164E-02  0.1312668E+00
        -11   -1    0    0    0    0  0.00000000000E+00  0.00000000000E+00  0.45593999997E+02  0.45594000000E+02  0.51100000000E-03 0.  1.
         11   -1    0    0    0    0 -0.00000000000E+00 -0.00000000000E+00 -0.45593999997E+02  0.45594000000E+02  0.51100000000E-03 0. -1.
    9900012    2    1    2    0    0 -0.17046494471E+02  0.25548759021E+02 -0.30664327700E+02  0.47787273571E+02  0.20000011520E+02 0.  0.
        -12    1    1    2    0    0  0.17046494471E+02 -0.25548759021E+02  0.30664327700E+02  0.43400726429E+02  0.00000000000E+00 0.  1.
         11    1    3    3    0    0 -0.69999358850E+01  0.15236877788E+02 -0.12601756230E+02  0.20975361915E+02  0.51100000000E-03 0. -1.
        -11    1    3    3    0    0  0.31689893291E+01  0.24786721459E+01 -0.16998977799E+01  0.43676036562E+01  0.51100000000E-03 0.  1.
        -12    1    3    3    0    0 -0.13215547915E+02  0.78332090871E+01 -0.16362673690E+02  0.22444308000E+02  0.00000000000E+00 0.  1.
</event>
<event>
 7    1  0.1322363E-009  0.4778727E+02  0.7816164E-02  0.1312668E+00
        -11   -1    0    0    0    0  0.00000000000E+00  0.00000000000E+00  0.45593999997E+02  0.45594000000E+02  0.51100000000E-03 0. -1.
         11   -1    0    0    0    0 -0.00000000000E+00 -0.00000000000E+00 -0.45593999997E+02  0.45594000000E+02  0.51100000000E-03 0.  1.
    9900012    2    1    2    0    0  0.31613416564E+02 -0.38986816174E+01  0.29479067568E+02  0.47787271321E+02  0.20000001261E+02 0.  0.
        -12    1    1    2    0    0 -0.31613416564E+02  0.38986816174E+01 -0.29479067568E+02  0.43400728679E+02  0.00000000000E+00 0.  1.
         11    1    3    3    0    0  0.14186118936E+02  0.74081558510E+01  0.11010956452E+02  0.19425959586E+02  0.51100000000E-03 0.  1.
        -11    1    3    3    0    0  0.38210136612E+01 -0.50862999587E+01  0.38037151715E+01  0.74120740711E+01  0.51100000000E-03 0. -1.
        -12    1    3    3    0    0  0.13606283967E+02 -0.62205375097E+01  0.14664395944E+02  0.20949237664E+02  0.00000000000E+00 0.  1.
</event>
<event>
 7    1  0.1322363E-009  0.4778731E+02  0.7816164E-02  0.1312668E+00
        -11   -1    0    0    0    0  0.00000000000E+00  0.00000000000E+00  0.45593999997E+02  0.45594000000E+02  0.51100000000E-03 0.  1.
         11   -1    0    0    0    0 -0.00000000000E+00 -0.00000000000E+00 -0.45593999997E+02  0.45594000000E+02  0.51100000000E-03 0. -1.
    9900012    2    1    2    0    0  0.40670472391E+01 -0.38976600635E+02 -0.18652172179E+02  0.47787311096E+02  0.20000182610E+02 0.  0.
        -12    1    1    2    0    0 -0.40670472391E+01  0.38976600635E+02  0.18652172179E+02  0.43400688904E+02  0.00000000000E+00 0.  1.
         11    1    3    3    0    0  0.27406581708E+01 -0.17904794941E+02 -0.14082272640E+02  0.22943480383E+02  0.51100000000E-03 0. -1.
        -11    1    3    3    0    0 -0.12122836309E+01 -0.18340562618E+02 -0.77455797395E+01  0.19945923757E+02  0.51100000000E-03 0.  1.
        -12    1    3    3    0    0  0.25386726991E+01 -0.27312430756E+01  0.31756802008E+01  0.48979069560E+01  0.00000000000E+00 0.  1.
</event>
<event>
 7    1  0.1322363E-009  0.4778726E+02  0.7816164E-02  0.1312668E+00
        -11   -1    0    0    0    0  0.00000000000E+00  0.00000000000E+00  0.45593999997E+02  0.45594000000E+02  0.51100000000E-03 0. -1.
         11   -1    0    0    0    0 -0.00000000000E+00 -0.00000000000E+00 -0.45593999997E+02  0.45594000000E+02  0.51100000000E-03 0.  1.
    9900012    2    1    2    0    0 -0.15372901663E+02  0.35609851413E+02  0.19473993237E+02  0.47787262266E+02  0.19999959977E+02 0.  0.
        -12    1    1    2    0    0  0.15372901663E+02 -0.35609851413E+02 -0.19473993237E+02  0.43400737734E+02  0.00000000000E+00 0.  1.
         11    1    3    3    0    0 -0.48588076169E+01  0.48174208613E+01  0.61905716058E+01  0.92270652041E+01  0.51100000000E-03 0. -1.
        -11    1    3    3    0    0  0.29075470240E+01  0.15851016800E+02  0.59414069013E+01  0.17175822528E+02  0.51100000000E-03 0.  1.
        -12    1    3    3    0    0 -0.13421641070E+02  0.14941413752E+02  0.73420147303E+01  0.21384374534E+02  0.00000000000E+00 0.  1.
</event>
<event>
 7    1  0.1322363E-009  0.4778727E+02  0.7816164E-02  0.1312668E+00
        -11   -1    0    0    0    0  0.00000000000E+00  0.00000000000E+00  0.45593999997E+02  0.45594000000E+02  0.51100000000E-03 0. -1.
         11   -1    0    0    0    0 -0.00000000000E+00 -0.00000000000E+00 -0.45593999997E+02  0.45594000000E+02  0.51100000000E-03 0.  1.
    9900012    2    1    2    0    0  0.27655288357E+02  0.46549645344E+01  0.33123098594E+02  0.47787270405E+02  0.19999997084E+02 0.  0.
        -12    1    1    2    0    0 -0.27655288357E+02 -0.46549645344E+01 -0.33123098594E+02  0.43400729595E+02  0.00000000000E+00 0.  1.
         11    1    3    3    0    0  0.57268352811E+01  0.47711989440E+01  0.92790614450E+01  0.11902183130E+02  0.51100000000E-03 0. -1.
        -11    1    3    3    0    0  0.14239074006E+02  0.67541271953E+01  0.18393212747E+02  0.24221472667E+02  0.51100000000E-03 0.  1.
        -12    1    3    3    0    0  0.76893790704E+01 -0.68703616049E+01  0.54508244012E+01  0.11663614608E+02  0.00000000000E+00 0.  1.
</event>
<event>
 7    1  0.1322363E-009  0.4778729E+02  0.7816164E-02  0.1312668E+00
        -11   -1    0    0    0    0  0.00000000000E+00  0.00000000000E+00  0.45593999997E+02  0.45594000000E+02  0.51100000000E-03 0.  1.
         11   -1    0    0    0    0 -0.00000000000E+00 -0.00000000000E+00 -0.45593999997E+02  0.45594000000E+02  0.51100000000E-03 0. -1.
    9900012    2    1    2    0    0  0.32380046400E+02 -0.21449465657E+02  0.19366845381E+02  0.47787289386E+02  0.20000083626E+02 0.  0.
        -12    1    1    2    0    0 -0.32380046400E+02  0.21449465657E+02 -0.19366845381E+02  0.43400710614E+02  0.00000000000E+00 0.  1.
         11    1    3    3    0    0  0.39313482334E+01 -0.16069093379E+01  0.71895121300E+01  0.83502539771E+01  0.51100000000E-03 0. -1.
        -11    1    3    3    0    0  0.14079243525E+02 -0.48382792237E+01 -0.85605585425E+00  0.14911970895E+02  0.51100000000E-03 0.  1.
         12    1    3    3    0    0  0.14369454641E+02 -0.15004277095E+02  0.13033389105E+02  0.24525064514E+02  0.00000000000E+00 0. -1.
</event>
<event>
 7    1  0.1322363E-009  0.4778727E+02  0.7816164E-02  0.1312668E+00
        -11   -1    0    0    0    0  0.00000000000E+00  0.00000000000E+00  0.45593999997E+02  0.45594000000E+02  0.51100000000E-03 0. -1.
         11   -1    0    0    0    0 -0.00000000000E+00 -0.00000000000E+00 -0.45593999997E+02  0.45594000000E+02  0.51100000000E-03 0.  1.
    9900012    2    1    2    0    0 -0.16754917770E+02 -0.29348108638E+02  0.27232049228E+02  0.47787271259E+02  0.20000000976E+02 0.  0.
        -12    1    1    2    0    0  0.16754917770E+02  0.29348108638E+02 -0.27232049228E+02  0.43400728741E+02  0.00000000000E+00 0.  1.
         11    1    3    3    0    0  0.91999196682E+00 -0.98029635860E+01  0.89427350966E+01  0.13301014681E+02  0.51100000000E-03 0.  1.
        -11    1    3    3    0    0 -0.88119410694E+01 -0.12632836549E+02  0.17360305338E+02  0.23208168096E+02  0.51100000000E-03 0. -1.
         12    1    3    3    0    0 -0.88629686679E+01 -0.69123085031E+01  0.92900879350E+00  0.11278088481E+02  0.00000000000E+00 0. -1.
</event>
<event>
 7    1  0.1322363E-009  0.4778727E+02  0.7816164E-02  0.1312668E+00
        -11   -1    0    0    0    0  0.00000000000E+00  0.00000000000E+00  0.45593999997E+02  0.45594000000E+02  0.51100000000E-03 0.  1.
         11   -1    0    0    0    0 -0.00000000000E+00 -0.00000000000E+00 -0.45593999997E+02  0.45594000000E+02  0.51100000000E-03 0. -1.
    9900012    2    1    2    0    0  0.38167452895E+02  0.59105176964E+01 -0.19797337343E+02  0.47787271368E+02  0.20000001476E+02 0.  0.
        -12    1    1    2    0    0 -0.38167452895E+02 -0.59105176964E+01  0.19797337343E+02  0.43400728632E+02  0.00000000000E+00 0.  1.
         11    1    3    3    0    0  0.58762475336E+01  0.89427623894E+01 -0.46280688065E+01  0.11658572184E+02  0.51100000000E-03 0. -1.
        -11    1    3    3    0    0  0.21193641328E+01  0.52955125060E+00 -0.21829125818E+01  0.30882416446E+01  0.51100000000E-03 0.  1.
        -12    1    3    3    0    0  0.30171841228E+02 -0.35617959437E+01 -0.12986355955E+02  0.33040457540E+02  0.00000000000E+00 0.  1.
</event>
<event>
 7    1  0.1322363E-009  0.4778727E+02  0.7816164E-02  0.1312668E+00
        -11   -1    0    0    0    0  0.00000000000E+00  0.00000000000E+00  0.45593999997E+02  0.45594000000E+02  0.51100000000E-03 0.  1.
         11   -1    0    0    0    0 -0.00000000000E+00 -0.00000000000E+00 -0.45593999997E+02  0.45594000000E+02  0.51100000000E-03 0. -1.
    9900012    2    1    2    0    0  0.22006912428E+02  0.20952909140E+02 -0.30988622525E+02  0.47787270489E+02  0.19999997470E+02 0.  0.
        -12    1    1    2    0    0 -0.22006912428E+02 -0.20952909140E+02  0.30988622525E+02  0.43400729511E+02  0.00000000000E+00 0.  1.
         11    1    3    3    0    0  0.16969252740E+02  0.10198310594E+02 -0.82904582389E+01  0.21463754928E+02  0.51100000000E-03 0. -1.
        -11    1    3    3    0    0 -0.10517400904E+01  0.93332595670E+00 -0.49420040424E+01  0.51381571380E+01  0.51100000000E-03 0.  1.
         12    1    3    3    0    0  0.60893997782E+01  0.98212725891E+01 -0.17756160244E+02  0.21185358423E+02  0.00000000000E+00 0. -1.
</event>
<event>
 7    1  0.1322363E-009  0.4778727E+02  0.7816164E-02  0.1312668E+00
        -11   -1    0    0    0    0  0.00000000000E+00  0.00000000000E+00  0.45593999997E+02  0.45594000000E+02  0.51100000000E-03 0.  1.
         11   -1    0    0    0    0 -0.00000000000E+00 -0.00000000000E+00 -0.45593999997E+02  0.45594000000E+02  0.51100000000E-03 0. -1.
    9900012    2    1    2    0    0 -0.34254048203E+02  0.26260946255E+02 -0.45437994088E+01  0.47787271555E+02  0.20000002328E+02 0.  0.
        -12    1    1    2    0    0  0.34254048203E+02 -0.26260946255E+02  0.45437994088E+01  0.43400728445E+02  0.00000000000E+00 0.  1.
         11    1    3    3    0    0 -0.15820243075E+02  0.13010190463E+02 -0.37162755916E+01  0.20817200853E+02  0.51100000000E-03 0. -1.
        -11    1    3    3    0    0 -0.15229813175E+02  0.47407060098E+01  0.43143327968E+01  0.16523769865E+02  0.51100000000E-03 0.  1.
         12    1    3    3    0    0 -0.32039919528E+01  0.85100497826E+01 -0.51418566140E+01  0.10446300837E+02  0.00000000000E+00 0. -1.
</event>
<event>
 7    1  0.1322363E-009  0.4778726E+02  0.7816164E-02  0.1312668E+00
        -11   -1    0    0    0    0  0.00000000000E+00  0.00000000000E+00  0.45593999997E+02  0.45594000000E+02  0.51100000000E-03 0.  1.
         11   -1    0    0    0    0 -0.00000000000E+00 -0.00000000000E+00 -0.45593999997E+02  0.45594000000E+02  0.51100000000E-03 0. -1.
    9900012    2    1    2    0    0  0.20416028551E+01 -0.31080802803E+02  0.30223165105E+02  0.47787260904E+02  0.19999953766E+02 0.  0.
        -12    1    1    2    0    0 -0.20416028551E+01  0.31080802803E+02 -0.30223165105E+02  0.43400739096E+02  0.00000000000E+00 0.  1.
         11    1    3    3    0    0 -0.21310031058E+00 -0.20270606773E+02  0.13809907457E+02  0.24528686368E+02  0.51100000000E-03 0. -1.
        -11    1    3    3    0    0 -0.41375235537E+01 -0.64593978581E+01  0.12311201601E+02  0.14505468175E+02  0.51100000000E-03 0.  1.
        -12    1    3    3    0    0  0.63922267194E+01 -0.43507981725E+01  0.41020560463E+01  0.87531063615E+01  0.00000000000E+00 0.  1.
</event>
<event>
 7    1  0.1322363E-009  0.4778728E+02  0.7816164E-02  0.1312668E+00
        -11   -1    0    0    0    0  0.00000000000E+00  0.00000000000E+00  0.45593999997E+02  0.45594000000E+02  0.51100000000E-03 0. -1.
         11   -1    0    0    0    0 -0.00000000000E+00 -0.00000000000E+00 -0.45593999997E+02  0.45594000000E+02  0.51100000000E-03 0.  1.
    9900012    2    1    2    0    0 -0.20096386741E+02 -0.90644853345E+01  0.37384397006E+02  0.47787276574E+02  0.20000025212E+02 0.  0.
        -12    1    1    2    0    0  0.20096386741E+02  0.90644853345E+01 -0.37384397006E+02  0.43400723426E+02  0.00000000000E+00 0.  1.
         11    1    3    3    0    0 -0.32670310615E+01 -0.61619921164E+01  0.81456037661E+01  0.10723548842E+02  0.51100000000E-03 0. -1.
        -11    1    3    3    0    0 -0.86923693984E+01  0.46034674489E+01  0.65474639378E+01  0.11816026514E+02  0.51100000000E-03 0.  1.
         12    1    3    3    0    0 -0.81369862807E+01 -0.75059606671E+01  0.22691329302E+02  0.25247701217E+02  0.00000000000E+00 0. -1.
</event>
<event>
 7    1  0.1322363E-009  0.4778727E+02  0.7816164E-02  0.1312668E+00
        -11   -1    0    0    0    0  0.00000000000E+00  0.00000000000E+00  0.45593999997E+02  0.45594000000E+02  0.51100000000E-03 0.  1.
         11   -1    0    0    0    0 -0.00000000000E+00 -0.00000000000E+00 -0.45593999997E+02  0.45594000000E+02  0.51100000000E-03 0. -1.
    9900012    2    1    2    0    0  0.10517577690E+02 -0.34714789936E+02 -0.23830382286E+02  0.47787271888E+02  0.20000003844E+02 0.  0.
        -12    1    1    2    0    0 -0.10517577690E+02  0.34714789936E+02  0.23830382286E+02  0.43400728112E+02  0.00000000000E+00 0.  1.
         11    1    3    3    0    0 -0.36172146797E+01 -0.54007326752E+01 -0.25994358493E+01  0.70006587164E+01  0.51100000000E-03 0. -1.
        -11    1    3    3    0    0  0.11372573888E+02 -0.12275735205E+02 -0.60325118913E+01  0.17788207095E+02  0.51100000000E-03 0.  1.
         12    1    3    3    0    0  0.27622184820E+01 -0.17038322056E+02 -0.15198434546E+02  0.22998406076E+02  0.00000000000E+00 0. -1.
</event>
<event>
 7    1  0.1322363E-009  0.4778727E+02  0.7816164E-02  0.1312668E+00
        -11   -1    0    0    0    0  0.00000000000E+00  0.00000000000E+00  0.45593999997E+02  0.45594000000E+02  0.51100000000E-03 0.  1.
         11   -1    0    0    0    0 -0.00000000000E+00 -0.00000000000E+00 -0.45593999997E+02  0.45594000000E+02  0.51100000000E-03 0. -1.
    9900012    2    1    2    0    0  0.11885361228E+01 -0.18454561580E+02 -0.39263724103E+02  0.47787268535E+02  0.19999988559E+02 0.  0.
        -12    1    1    2    0    0 -0.11885361228E+01  0.18454561580E+02  0.39263724103E+02  0.43400731465E+02  0.00000000000E+00 0.  1.
         11    1    3    3    0    0 -0.39890761718E+01 -0.38370969004E+01 -0.19492437220E+01  0.58681847855E+01  0.51100000000E-03 0. -1.
        -11    1    3    3    0    0 -0.13949249592E+01 -0.59870075277E+01 -0.23843016640E+02  0.24622743908E+02  0.51100000000E-03 0.  1.
        -12    1    3    3    0    0  0.65725372537E+01 -0.86304571523E+01 -0.13471463741E+02  0.17296339842E+02  0.00000000000E+00 0.  1.
</event>
<event>
 7    1  0.1322363E-009  0.4778727E+02  0.7816164E-02  0.1312668E+00
        -11   -1    0    0    0    0  0.00000000000E+00  0.00000000000E+00  0.45593999997E+02  0.45594000000E+02  0.51100000000E-03 0.  1.
         11   -1    0    0    0    0 -0.00000000000E+00 -0.00000000000E+00 -0.45593999997E+02  0.45594000000E+02  0.51100000000E-03 0. -1.
    9900012    2    1    2    0    0 -0.21013231794E+02 -0.10268429438E+02 -0.36559907921E+02  0.47787269353E+02  0.19999992287E+02 0.  0.
        -12    1    1    2    0    0  0.21013231794E+02  0.10268429438E+02  0.36559907921E+02  0.43400730647E+02  0.00000000000E+00 0.  1.
         11    1    3    3    0    0 -0.59361225232E+01 -0.73542715282E+01 -0.16403141151E+02  0.18931082911E+02  0.51100000000E-03 0. -1.
        -11    1    3    3    0    0 -0.66678928826E+01 -0.48959415282E+01 -0.16544257728E+01  0.84361225596E+01  0.51100000000E-03 0.  1.
         12    1    3    3    0    0 -0.84092163881E+01  0.19817836180E+01 -0.18502340997E+02  0.20420063882E+02  0.00000000000E+00 0. -1.
</event>
<event>
 7    1  0.1322363E-009  0.4778728E+02  0.7816164E-02  0.1312668E+00
        -11   -1    0    0    0    0  0.00000000000E+00  0.00000000000E+00  0.45593999997E+02  0.45594000000E+02  0.51100000000E-03 0. -1.
         11   -1    0    0    0    0 -0.00000000000E+00 -0.00000000000E+00 -0.45593999997E+02  0.45594000000E+02  0.51100000000E-03 0.  1.
    9900012    2    1    2    0    0  0.83681627817E+01  0.11353870532E+01  0.42571197789E+02  0.47787284185E+02  0.20000059913E+02 0.  0.
        -12    1    1    2    0    0 -0.83681627817E+01 -0.11353870532E+01 -0.42571197789E+02  0.43400715815E+02  0.00000000000E+00 0.  1.
         11    1    3    3    0    0  0.54641264154E+01  0.91904341159E+01  0.25683225501E+02  0.27819935822E+02  0.51100000000E-03 0. -1.
        -11    1    3    3    0    0  0.40156915067E+01 -0.41550553002E+01  0.13493990921E+02  0.14679170755E+02  0.51100000000E-03 0.  1.
        -12    1    3    3    0    0 -0.11116551404E+01 -0.38999917625E+01  0.33939813661E+01  0.52881776078E+01  0.00000000000E+00 0.  1.
</event>
<event>
 7    1  0.1322363E-009  0.4778727E+02  0.7816164E-02  0.1312668E+00
        -11   -1    0    0    0    0  0.00000000000E+00  0.00000000000E+00  0.45593999997E+02  0.45594000000E+02  0.51100000000E-03 0.  1.
         11   -1    0    0    0    0 -0.00000000000E+00 -0.00000000000E+00 -0.45593999997E+02  0.45594000000E+02  0.51100000000E-03 0. -1.
    9900012    2    1    2    0    0 -0.31840032674E+02  0.11785662905E+02 -0.27035792355E+02  0.47787267298E+02  0.19999982920E+02 0.  0.
        -12    1    1    2    0    0  0.31840032674E+02 -0.11785662905E+02  0.27035792355E+02  0.43400732702E+02  0.00000000000E+00 0.  1.
         11    1    3    3    0    0 -0.20715342048E+02  0.89833897619E+01 -0.15807962151E+02  0.27562988869E+02  0.51100000000E-03 0. -1.
        -11    1    3    3    0    0 -0.62345641633E+01  0.30783798763E+01  0.10254490195E+01  0.70283539269E+01  0.51100000000E-03 0.  1.
        -12    1    3    3    0    0 -0.48901264627E+01 -0.27610673323E+00 -0.12253279223E+02  0.13195924502E+02  0.00000000000E+00 0.  1.
</event>
<event>
 7    1  0.1322363E-009  0.4778730E+02  0.7816164E-02  0.1312668E+00
        -11   -1    0    0    0    0  0.00000000000E+00  0.00000000000E+00  0.45593999997E+02  0.45594000000E+02  0.51100000000E-03 0. -1.
         11   -1    0    0    0    0 -0.00000000000E+00 -0.00000000000E+00 -0.45593999997E+02  0.45594000000E+02  0.51100000000E-03 0.  1.
    9900012    2    1    2    0    0  0.26670663694E+02  0.66715788931E+01  0.33582529844E+02  0.47787302108E+02  0.20000141629E+02 0.  0.
        -12    1    1    2    0    0 -0.26670663694E+02 -0.66715788931E+01 -0.33582529844E+02  0.43400697892E+02  0.00000000000E+00 0.  1.
         11    1    3    3    0    0  0.11027265039E+02 -0.41315367430E+01  0.11038566985E+02  0.16140636029E+02  0.51100000000E-03 0. -1.
        -11    1    3    3    0    0  0.78877122151E+01  0.52165067257E+01  0.19404208808E+02  0.21585904339E+02  0.51100000000E-03 0.  1.
        -12    1    3    3    0    0  0.77556864400E+01  0.55866089104E+01  0.31397540520E+01  0.10060761740E+02  0.00000000000E+00 0.  1.
</event>
<event>
 7    1  0.1322363E-009  0.4778727E+02  0.7816164E-02  0.1312668E+00
        -11   -1    0    0    0    0  0.00000000000E+00  0.00000000000E+00  0.45593999997E+02  0.45594000000E+02  0.51100000000E-03 0.  1.
         11   -1    0    0    0    0 -0.00000000000E+00 -0.00000000000E+00 -0.45593999997E+02  0.45594000000E+02  0.51100000000E-03 0. -1.
    9900012    2    1    2    0    0 -0.20410412712E+01  0.95531815151E+00 -0.43342181065E+02  0.47787272567E+02  0.20000006943E+02 0.  0.
        -12    1    1    2    0    0  0.20410412712E+01 -0.95531815151E+00  0.43342181065E+02  0.43400727433E+02  0.00000000000E+00 0.  1.
         11    1    3    3    0    0  0.78805664593E+00  0.45481726350E+00 -0.18285255810E+02  0.18307880061E+02  0.51100000000E-03 0. -1.
        -11    1    3    3    0    0  0.43795558865E+01  0.24238527588E+01 -0.22589795437E+01  0.54916810541E+01  0.51100000000E-03 0.  1.
        -12    1    3    3    0    0 -0.72086538036E+01 -0.19233518708E+01 -0.22797945711E+02  0.23987711452E+02  0.00000000000E+00 0.  1.
</event>
<event>
 7    1  0.1322363E-009  0.4778728E+02  0.7816164E-02  0.1312668E+00
        -11   -1    0    0    0    0  0.00000000000E+00  0.00000000000E+00  0.45593999997E+02  0.45594000000E+02  0.51100000000E-03 0.  1.
         11   -1    0    0    0    0 -0.00000000000E+00 -0.00000000000E+00 -0.45593999997E+02  0.45594000000E+02  0.51100000000E-03 0. -1.
    9900012    2    1    2    0    0  0.37253870138E+02  0.13875808708E+02 -0.17413613236E+02  0.47787276118E+02  0.20000023134E+02 0.  0.
        -12    1    1    2    0    0 -0.37253870138E+02 -0.13875808708E+02  0.17413613236E+02  0.43400723882E+02  0.00000000000E+00 0.  1.
         11    1    3    3    0    0  0.23070853604E+02  0.13180194920E+02 -0.17517847406E+02  0.31825411264E+02  0.51100000000E-03 0. -1.
        -11    1    3    3    0    0  0.58030095638E+01  0.38880707214E+01 -0.21851649683E+00  0.69885451742E+01  0.51100000000E-03 0.  1.
        -12    1    3    3    0    0  0.83800069697E+01 -0.31924569333E+01  0.32275066676E+00  0.89733196798E+01  0.00000000000E+00 0.  1.
</event>
<event>
 7    1  0.1322363E-009  0.4778727E+02  0.7816164E-02  0.1312668E+00
        -11   -1    0    0    0    0  0.00000000000E+00  0.00000000000E+00  0.45593999997E+02  0.45594000000E+02  0.51100000000E-03 0.  1.
         11   -1    0    0    0    0 -0.00000000000E+00 -0.00000000000E+00 -0.45593999997E+02  0.45594000000E+02  0.51100000000E-03 0. -1.
    9900012    2    1    2    0    0  0.56568522488E+01 -0.15185868199E+02 -0.40261798671E+02  0.47787274171E+02  0.20000014253E+02 0.  0.
        -12    1    1    2    0    0 -0.56568522488E+01  0.15185868199E+02  0.40261798671E+02  0.43400725829E+02  0.00000000000E+00 0.  1.
         11    1    3    3    0    0 -0.25398956413E+01 -0.11746844012E+02 -0.21241113667E+02  0.24405415878E+02  0.51100000000E-03 0. -1.
        -11    1    3    3    0    0  0.70684629636E+01 -0.66814340782E+01 -0.11157232527E+02  0.14801640718E+02  0.51100000000E-03 0.  1.
        -12    1    3    3    0    0  0.11282849265E+01  0.32424098911E+01 -0.78634524769E+01  0.85802175750E+01  0.00000000000E+00 0.  1.
</event>
<event>
 7    1  0.1322363E-009  0.4778727E+02  0.7816164E-02  0.1312668E+00
        -11   -1    0    0    0    0  0.00000000000E+00  0.00000000000E+00  0.45593999997E+02  0.45594000000E+02  0.51100000000E-03 0.  1.
         11   -1    0    0    0    0 -0.00000000000E+00 -0.00000000000E+00 -0.45593999997E+02  0.45594000000E+02  0.51100000000E-03 0. -1.
    9900012    2    1    2    0    0 -0.20118216970E+02  0.35570359258E+02 -0.14616102836E+02  0.47787267587E+02  0.19999984238E+02 0.  0.
        -12    1    1    2    0    0  0.20118216970E+02 -0.35570359258E+02  0.14616102836E+02  0.43400732413E+02  0.00000000000E+00 0.  1.
         11    1    3    3    0    0 -0.18740394782E+02  0.18249945715E+02 -0.14858466936E+02  0.30083832121E+02  0.51100000000E-03 0. -1.
        -11    1    3    3    0    0 -0.18522206176E+01  0.64403440277E+01  0.10498368780E+01  0.67831342418E+01  0.51100000000E-03 0.  1.
         12    1    3    3    0    0  0.47439842883E+00  0.10880069516E+02 -0.80747277872E+00  0.10920301224E+02  0.00000000000E+00 0. -1.
</event>
<event>
 7    1  0.1322363E-009  0.4778728E+02  0.7816164E-02  0.1312668E+00
        -11   -1    0    0    0    0  0.00000000000E+00  0.00000000000E+00  0.45593999997E+02  0.45594000000E+02  0.51100000000E-03 0.  1.
         11   -1    0    0    0    0 -0.00000000000E+00 -0.00000000000E+00 -0.45593999997E+02  0.45594000000E+02  0.51100000000E-03 0. -1.
    9900012    2    1    2    0    0 -0.16461851342E+02  0.39482120699E+02 -0.73343128873E+01  0.47787279383E+02  0.20000038021E+02 0.  0.
        -12    1    1    2    0    0  0.16461851342E+02 -0.39482120699E+02  0.73343128873E+01  0.43400720617E+02  0.00000000000E+00 0.  1.
         11    1    3    3    0    0 -0.96985462345E+01  0.19863408066E+02 -0.89563393447E+01  0.23850215802E+02  0.51100000000E-03 0. -1.
        -11    1    3    3    0    0 -0.31555082756E+01  0.13394525235E+02 -0.45128262599E+01  0.14482269845E+02  0.51100000000E-03 0.  1.
        -12    1    3    3    0    0 -0.36077968318E+01  0.62241873978E+01  0.61348527172E+01  0.94547937368E+01  0.00000000000E+00 0.  1.
</event>
<event>
 7    1  0.1322363E-009  0.4778725E+02  0.7816164E-02  0.1312668E+00
        -11   -1    0    0    0    0  0.00000000000E+00  0.00000000000E+00  0.45593999997E+02  0.45594000000E+02  0.51100000000E-03 0.  1.
         11   -1    0    0    0    0 -0.00000000000E+00 -0.00000000000E+00 -0.45593999997E+02  0.45594000000E+02  0.51100000000E-03 0. -1.
    9900012    2    1    2    0    0  0.21976063719E+02 -0.35251150772E+02  0.12571143977E+02  0.47787254981E+02  0.19999926759E+02 0.  0.
        -12    1    1    2    0    0 -0.21976063719E+02  0.35251150772E+02 -0.12571143977E+02  0.43400745019E+02  0.00000000000E+00 0.  1.
         11    1    3    3    0    0  0.34040603101E+01 -0.11875087871E+02  0.62167354164E+01  0.13829430141E+02  0.51100000000E-03 0. -1.
        -11    1    3    3    0    0 -0.20951439895E+01 -0.40242463876E+01  0.30177158672E+01  0.54489261915E+01  0.51100000000E-03 0.  1.
         12    1    3    3    0    0  0.20667147399E+02 -0.19351816514E+02  0.33366926932E+01  0.28508898648E+02  0.00000000000E+00 0. -1.
</event>
<event>
 7    1  0.1322363E-009  0.4778727E+02  0.7816164E-02  0.1312668E+00
        -11   -1    0    0    0    0  0.00000000000E+00  0.00000000000E+00  0.45593999997E+02  0.45594000000E+02  0.51100000000E-03 0.  1.
         11   -1    0    0    0    0 -0.00000000000E+00 -0.00000000000E+00 -0.45593999997E+02  0.45594000000E+02  0.51100000000E-03 0. -1.
    9900012    2    1    2    0    0 -0.24291615866E+02 -0.27945809448E+02 -0.22640060021E+02  0.47787272070E+02  0.20000004678E+02 0.  0.
        -12    1    1    2    0    0  0.24291615866E+02  0.27945809448E+02  0.22640060021E+02  0.43400727930E+02  0.00000000000E+00 0.  1.
         11    1    3    3    0    0 -0.16386146139E+02 -0.19592873818E+02 -0.14377077412E+02  0.29310183297E+02  0.51100000000E-03 0. -1.
        -11    1    3    3    0    0 -0.42135795547E+01 -0.59875020697E+01  0.17660211096E+01  0.75314848814E+01  0.51100000000E-03 0.  1.
         12    1    3    3    0    0 -0.36918901724E+01 -0.23654335599E+01 -0.10029003719E+02  0.10945603892E+02  0.00000000000E+00 0. -1.
</event>
<event>
 7    1  0.1322363E-009  0.4778728E+02  0.7816164E-02  0.1312668E+00
        -11   -1    0    0    0    0  0.00000000000E+00  0.00000000000E+00  0.45593999997E+02  0.45594000000E+02  0.51100000000E-03 0.  1.
         11   -1    0    0    0    0 -0.00000000000E+00 -0.00000000000E+00 -0.45593999997E+02  0.45594000000E+02  0.51100000000E-03 0. -1.
    9900012    2    1    2    0    0  0.66637390179E+01  0.63610362962E+00 -0.42881380359E+02  0.47787276193E+02  0.20000023473E+02 0.  0.
        -12    1    1    2    0    0 -0.66637390179E+01 -0.63610362962E+00  0.42881380359E+02  0.43400723807E+02  0.00000000000E+00 0.  1.
         11    1    3    3    0    0 -0.21551874568E+01  0.89949557725E+00 -0.47549063730E+00  0.23832785978E+01  0.51100000000E-03 0.  1.
        -11    1    3    3    0    0  0.89101443633E+01 -0.37211166061E+01 -0.40101767268E+02  0.41247898366E+02  0.51100000000E-03 0. -1.
         12    1    3    3    0    0 -0.91217888570E-01  0.34577246585E+01 -0.23041224538E+01  0.41560992288E+01  0.00000000000E+00 0. -1.
</event>
<event>
 7    1  0.1322363E-009  0.4778728E+02  0.7816164E-02  0.1312668E+00
        -11   -1    0    0    0    0  0.00000000000E+00  0.00000000000E+00  0.45593999997E+02  0.45594000000E+02  0.51100000000E-03 0. -1.
         11   -1    0    0    0    0 -0.00000000000E+00 -0.00000000000E+00 -0.45593999997E+02  0.45594000000E+02  0.51100000000E-03 0.  1.
    9900012    2    1    2    0    0 -0.28265160741E+02 -0.32933629581E+02  0.28103575947E+00  0.47787282838E+02  0.20000053772E+02 0.  0.
        -12    1    1    2    0    0  0.28265160741E+02  0.32933629581E+02 -0.28103575947E+00  0.43400717162E+02  0.00000000000E+00 0.  1.
         11    1    3    3    0    0 -0.98428392440E+01 -0.16345178718E+02 -0.35753477908E+01  0.19412095811E+02  0.51100000000E-03 0. -1.
        -11    1    3    3    0    0 -0.42162627932E+01 -0.12162690463E+02  0.40487234101E+01  0.13494445996E+02  0.51100000000E-03 0.  1.
        -12    1    3    3    0    0 -0.14206058703E+02 -0.44257604005E+01 -0.19233985978E+00  0.14880741031E+02  0.00000000000E+00 0.  1.
</event>
<event>
 7    1  0.1322363E-009  0.4778727E+02  0.7816164E-02  0.1312668E+00
        -11   -1    0    0    0    0  0.00000000000E+00  0.00000000000E+00  0.45593999997E+02  0.45594000000E+02  0.51100000000E-03 0.  1.
         11   -1    0    0    0    0 -0.00000000000E+00 -0.00000000000E+00 -0.45593999997E+02  0.45594000000E+02  0.51100000000E-03 0. -1.
    9900012    2    1    2    0    0 -0.30013732473E+02  0.20171212731E+02 -0.23998357127E+02  0.47787272992E+02  0.20000008882E+02 0.  0.
        -12    1    1    2    0    0  0.30013732473E+02 -0.20171212731E+02  0.23998357127E+02  0.43400727008E+02  0.00000000000E+00 0.  1.
         11    1    3    3    0    0 -0.13896970895E+02  0.25657026360E+01 -0.83449362894E+01  0.16411782110E+02  0.51100000000E-03 0. -1.
        -11    1    3    3    0    0 -0.13099199792E+02  0.14208965449E+02 -0.17868897354E+02  0.26320737589E+02  0.51100000000E-03 0.  1.
        -12    1    3    3    0    0 -0.30175617849E+01  0.33965446465E+01  0.22154765168E+01  0.50547532935E+01  0.00000000000E+00 0.  1.
</event>
<event>
 7    1  0.1322363E-009  0.4778725E+02  0.7816164E-02  0.1312668E+00
        -11   -1    0    0    0    0  0.00000000000E+00  0.00000000000E+00  0.45593999997E+02  0.45594000000E+02  0.51100000000E-03 0.  1.
         11   -1    0    0    0    0 -0.00000000000E+00 -0.00000000000E+00 -0.45593999997E+02  0.45594000000E+02  0.51100000000E-03 0. -1.
    9900012    2    1    2    0    0 -0.10633274117E+02  0.19821226665E+02 -0.37117073709E+02  0.47787254550E+02  0.19999924793E+02 0.  0.
        -12    1    1    2    0    0  0.10633274117E+02 -0.19821226665E+02  0.37117073709E+02  0.43400745450E+02  0.00000000000E+00 0.  1.
         11    1    3    3    0    0 -0.87500437431E+01  0.20640640744E+02 -0.28958105632E+02  0.36622004286E+02  0.51100000000E-03 0. -1.
        -11    1    3    3    0    0  0.11837501882E+01  0.14939115361E+01  0.24802723906E+00  0.19221222537E+01  0.51100000000E-03 0.  1.
         12    1    3    3    0    0 -0.30669805623E+01 -0.23133256157E+01 -0.84069953156E+01  0.92431280101E+01  0.00000000000E+00 0. -1.
</event>
<event>
 7    1  0.1322363E-009  0.4778726E+02  0.7816164E-02  0.1312668E+00
        -11   -1    0    0    0    0  0.00000000000E+00  0.00000000000E+00  0.45593999997E+02  0.45594000000E+02  0.51100000000E-03 0.  1.
         11   -1    0    0    0    0 -0.00000000000E+00 -0.00000000000E+00 -0.45593999997E+02  0.45594000000E+02  0.51100000000E-03 0. -1.
    9900012    2    1    2    0    0  0.41270758949E+02 -0.27779041127E+01  0.13138944542E+02  0.47787260845E+02  0.19999953498E+02 0.  0.
        -12    1    1    2    0    0 -0.41270758949E+02  0.27779041127E+01 -0.13138944542E+02  0.43400739155E+02  0.00000000000E+00 0.  1.
         11    1    3    3    0    0  0.14639398826E+02  0.54022935268E+01  0.37076032361E+01  0.16038799685E+02  0.51100000000E-03 0. -1.
        -11    1    3    3    0    0  0.45346917963E+01 -0.26870534737E+01 -0.27288641903E+01  0.59355190244E+01  0.51100000000E-03 0.  1.
         12    1    3    3    0    0  0.22096668327E+02 -0.54931441657E+01  0.12160205497E+02  0.25812942136E+02  0.00000000000E+00 0. -1.
</event>
<event>
 7    1  0.1322363E-009  0.4778727E+02  0.7816164E-02  0.1312668E+00
        -11   -1    0    0    0    0  0.00000000000E+00  0.00000000000E+00  0.45593999997E+02  0.45594000000E+02  0.51100000000E-03 0.  1.
         11   -1    0    0    0    0 -0.00000000000E+00 -0.00000000000E+00 -0.45593999997E+02  0.45594000000E+02  0.51100000000E-03 0. -1.
    9900012    2    1    2    0    0 -0.35663592320E+02  0.23387108932E+02 -0.80482771492E+01  0.47787269057E+02  0.19999990937E+02 0.  0.
        -12    1    1    2    0    0  0.35663592320E+02 -0.23387108932E+02  0.80482771492E+01  0.43400730943E+02  0.00000000000E+00 0.  1.
         11    1    3    3    0    0 -0.15560932882E+02  0.14343322895E+01 -0.63308979200E+01  0.16860611199E+02  0.51100000000E-03 0. -1.
        -11    1    3    3    0    0 -0.23640965863E+01  0.39238273556E+01  0.26017293792E+01  0.52682416241E+01  0.51100000000E-03 0.  1.
         12    1    3    3    0    0 -0.17738562851E+02  0.18028949287E+02 -0.43191086085E+01  0.25658416233E+02  0.00000000000E+00 0. -1.
</event>
<event>
 7    1  0.1458801E-009  0.4778727E+02  0.7816164E-02  0.1312668E+00
        -11   -1    0    0    0    0  0.00000000000E+00  0.00000000000E+00  0.45593999997E+02  0.45594000000E+02  0.51100000000E-03 0. -1.
         11   -1    0    0    0    0 -0.00000000000E+00 -0.00000000000E+00 -0.45593999997E+02  0.45594000000E+02  0.51100000000E-03 0.  1.
    9900012    2    1    2    0    0 -0.27221551691E+02 -0.32377364296E+02  0.97116874390E+01  0.47787268806E+02  0.19999989796E+02 0.  0.
        -12    1    1    2    0    0  0.27221551691E+02  0.32377364296E+02 -0.97116874390E+01  0.43400731194E+02  0.00000000000E+00 0.  1.
         11    1    3    3    0    0 -0.10378026628E+02 -0.13337290839E+02 -0.11445007012E+01  0.16938023666E+02  0.51100000000E-03 0. -1.
        -11    1    3    3    0    0 -0.69381348221E+01  0.10891082131E+00  0.48600938657E+01  0.84717229075E+01  0.51100000000E-03 0.  1.
         12    1    3    3    0    0 -0.99053902414E+01 -0.19148984279E+02  0.59960942745E+01  0.22377522233E+02  0.00000000000E+00 0. -1.
</event>
<event>
 7    1  0.1322363E-009  0.4778727E+02  0.7816164E-02  0.1312668E+00
        -11   -1    0    0    0    0  0.00000000000E+00  0.00000000000E+00  0.45593999997E+02  0.45594000000E+02  0.51100000000E-03 0.  1.
         11   -1    0    0    0    0 -0.00000000000E+00 -0.00000000000E+00 -0.45593999997E+02  0.45594000000E+02  0.51100000000E-03 0. -1.
    9900012    2    1    2    0    0  0.92216474604E+01 -0.20040915774E+01 -0.42362344031E+02  0.47787270090E+02  0.19999995648E+02 0.  0.
        -12    1    1    2    0    0 -0.92216474604E+01  0.20040915774E+01  0.42362344031E+02  0.43400729910E+02  0.00000000000E+00 0.  1.
         11    1    3    3    0    0 -0.45391289208E+01 -0.30067937847E+01 -0.10799598257E+02  0.12094454225E+02  0.51100000000E-03 0. -1.
        -11    1    3    3    0    0  0.65504457282E+01 -0.32355774166E+01 -0.87728066921E+01  0.11416629887E+02  0.51100000000E-03 0.  1.
         12    1    3    3    0    0  0.72103306530E+01  0.42382796239E+01 -0.22789939082E+02  0.24276185978E+02  0.00000000000E+00 0. -1.
</event>
<event>
 7    1  0.1480449E-009  0.4778727E+02  0.7816164E-02  0.1312668E+00
        -11   -1    0    0    0    0  0.00000000000E+00  0.00000000000E+00  0.45593999997E+02  0.45594000000E+02  0.51100000000E-03 0. -1.
         11   -1    0    0    0    0 -0.00000000000E+00 -0.00000000000E+00 -0.45593999997E+02  0.45594000000E+02  0.51100000000E-03 0.  1.
    9900012    2    1    2    0    0  0.29109874507E+02  0.97502422126E+01  0.30678523064E+02  0.47787265048E+02  0.19999972660E+02 0.  0.
        -12    1    1    2    0    0 -0.29109874507E+02 -0.97502422126E+01 -0.30678523064E+02  0.43400734952E+02  0.00000000000E+00 0.  1.
         11    1    3    3    0    0  0.25045787983E+02  0.25151213503E+01  0.28533841435E+02  0.38049933487E+02  0.51100000000E-03 0. -1.
        -11    1    3    3    0    0  0.16667475213E+01  0.40178547918E+01  0.34134447379E+01  0.55292684568E+01  0.51100000000E-03 0.  1.
         12    1    3    3    0    0  0.23973390025E+01  0.32172660706E+01 -0.12687631087E+01  0.42080631041E+01  0.00000000000E+00 0. -1.
</event>
<event>
 7    1  0.1322363E-009  0.4778727E+02  0.7816164E-02  0.1312668E+00
        -11   -1    0    0    0    0  0.00000000000E+00  0.00000000000E+00  0.45593999997E+02  0.45594000000E+02  0.51100000000E-03 0.  1.
         11   -1    0    0    0    0 -0.00000000000E+00 -0.00000000000E+00 -0.45593999997E+02  0.45594000000E+02  0.51100000000E-03 0. -1.
    9900012    2    1    2    0    0  0.13301756637E+01 -0.97094389707E+01 -0.42279791638E+02  0.47787270128E+02  0.19999995823E+02 0.  0.
        -12    1    1    2    0    0 -0.13301756637E+01  0.97094389707E+01  0.42279791638E+02  0.43400729872E+02  0.00000000000E+00 0.  1.
         11    1    3    3    0    0 -0.30157700791E+01 -0.26216072469E+01 -0.10496858879E+02  0.11231729178E+02  0.51100000000E-03 0. -1.
        -11    1    3    3    0    0  0.71328479258E+01  0.19672791545E+01 -0.20657383777E+02  0.21942543416E+02  0.51100000000E-03 0.  1.
        -12    1    3    3    0    0 -0.27869021829E+01 -0.90551108783E+01 -0.11125548982E+02  0.14612997534E+02  0.00000000000E+00 0.  1.
</event>
<event>
 7    1  0.1322363E-009  0.4778727E+02  0.7816164E-02  0.1312668E+00
        -11   -1    0    0    0    0  0.00000000000E+00  0.00000000000E+00  0.45593999997E+02  0.45594000000E+02  0.51100000000E-03 0. -1.
         11   -1    0    0    0    0 -0.00000000000E+00 -0.00000000000E+00 -0.45593999997E+02  0.45594000000E+02  0.51100000000E-03 0.  1.
    9900012    2    1    2    0    0 -0.41828837772E+02  0.96798098277E+01  0.63460969622E+01  0.47787270348E+02  0.19999996825E+02 0.  0.
        -12    1    1    2    0    0  0.41828837772E+02 -0.96798098277E+01 -0.63460969622E+01  0.43400729652E+02  0.00000000000E+00 0.  1.
         11    1    3    3    0    0 -0.13406209404E+02 -0.45203103539E+01  0.57175355416E+01  0.15259419033E+02  0.51100000000E-03 0. -1.
        -11    1    3    3    0    0 -0.35538431655E+01  0.46121704356E+01 -0.55216063447E+00  0.58486578802E+01  0.51100000000E-03 0.  1.
        -12    1    3    3    0    0 -0.24868785202E+02  0.95879497459E+01  0.11807220551E+01  0.26679193435E+02  0.00000000000E+00 0.  1.
</event>
<event>
 7    1  0.1322363E-009  0.4778728E+02  0.7816164E-02  0.1312668E+00
        -11   -1    0    0    0    0  0.00000000000E+00  0.00000000000E+00  0.45593999997E+02  0.45594000000E+02  0.51100000000E-03 0. -1.
         11   -1    0    0    0    0 -0.00000000000E+00 -0.00000000000E+00 -0.45593999997E+02  0.45594000000E+02  0.51100000000E-03 0.  1.
    9900012    2    1    2    0    0  0.41140621671E+02  0.45306449260E+01 -0.13059299716E+02  0.47787276458E+02  0.20000024681E+02 0.  0.
        -12    1    1    2    0    0 -0.41140621671E+02 -0.45306449260E+01  0.13059299716E+02  0.43400723542E+02  0.00000000000E+00 0.  1.
         11    1    3    3    0    0  0.13212683188E+02  0.80294133645E+01 -0.25726472916E+00  0.15463268135E+02  0.51100000000E-03 0. -1.
        -11    1    3    3    0    0  0.95004167955E+01 -0.32475582850E+01 -0.28174440910E+00  0.10044099476E+02  0.51100000000E-03 0.  1.
        -12    1    3    3    0    0  0.18427521688E+02 -0.25121015352E+00 -0.12520290578E+02  0.22279908847E+02  0.00000000000E+00 0.  1.
</event>
<event>
 7    1  0.1322363E-009  0.4778727E+02  0.7816164E-02  0.1312668E+00
        -11   -1    0    0    0    0  0.00000000000E+00  0.00000000000E+00  0.45593999997E+02  0.45594000000E+02  0.51100000000E-03 0.  1.
         11   -1    0    0    0    0 -0.00000000000E+00 -0.00000000000E+00 -0.45593999997E+02  0.45594000000E+02  0.51100000000E-03 0. -1.
    9900012    2    1    2    0    0  0.38733283935E+02  0.19553844043E+02  0.10014644166E+01  0.47787273828E+02  0.20000012693E+02 0.  0.
        -12    1    1    2    0    0 -0.38733283935E+02 -0.19553844043E+02 -0.10014644166E+01  0.43400726172E+02  0.00000000000E+00 0.  1.
         11    1    3    3    0    0  0.27180867182E+02  0.18349456607E+02  0.93386329906E-01  0.32794981625E+02  0.51100000000E-03 0. -1.
        -11    1    3    3    0    0  0.12944106054E+02 -0.21434760002E-01  0.15345462429E+01  0.13034767870E+02  0.51100000000E-03 0.  1.
        -12    1    3    3    0    0 -0.13916893007E+01  0.12258221963E+01 -0.62646815617E+00  0.19575243338E+01  0.00000000000E+00 0.  1.
</event>
<event>
 7    1  0.1322363E-009  0.4778727E+02  0.7816164E-02  0.1312668E+00
        -11   -1    0    0    0    0  0.00000000000E+00  0.00000000000E+00  0.45593999997E+02  0.45594000000E+02  0.51100000000E-03 0. -1.
         11   -1    0    0    0    0 -0.00000000000E+00 -0.00000000000E+00 -0.45593999997E+02  0.45594000000E+02  0.51100000000E-03 0.  1.
    9900012    2    1    2    0    0 -0.33369514837E+02  0.25298228650E+02  0.11406060771E+02  0.47787272868E+02  0.20000008314E+02 0.  0.
        -12    1    1    2    0    0  0.33369514837E+02 -0.25298228650E+02 -0.11406060771E+02  0.43400727132E+02  0.00000000000E+00 0.  1.
         11    1    3    3    0    0 -0.19602946020E+02  0.15718644437E+02  0.29653692789E+01  0.25301080824E+02  0.51100000000E-03 0. -1.
        -11    1    3    3    0    0 -0.12524132217E+02  0.78941736938E+01  0.11522709921E+02  0.18760189506E+02  0.51100000000E-03 0.  1.
         12    1    3    3    0    0 -0.12424366001E+01  0.16854105185E+01 -0.30820184294E+01  0.37260025390E+01  0.00000000000E+00 0. -1.
</event>
<event>
 7    1  0.1322363E-009  0.4778725E+02  0.7816164E-02  0.1312668E+00
        -11   -1    0    0    0    0  0.00000000000E+00  0.00000000000E+00  0.45593999997E+02  0.45594000000E+02  0.51100000000E-03 0.  1.
         11   -1    0    0    0    0 -0.00000000000E+00 -0.00000000000E+00 -0.45593999997E+02  0.45594000000E+02  0.51100000000E-03 0. -1.
    9900012    2    1    2    0    0  0.32916922523E+02  0.72970480130E+01 -0.27328635481E+02  0.47787250982E+02  0.19999908526E+02 0.  0.
        -12    1    1    2    0    0 -0.32916922523E+02 -0.72970480130E+01  0.27328635481E+02  0.43400749018E+02  0.00000000000E+00 0.  1.
         11    1    3    3    0    0  0.10117785485E+02  0.73319111151E+01 -0.16715963177E+02  0.20869832987E+02  0.51100000000E-03 0. -1.
        -11    1    3    3    0    0  0.58946391776E+01  0.42583358575E+01 -0.25871276207E+01  0.77183822719E+01  0.51100000000E-03 0.  1.
        -12    1    3    3    0    0  0.16904497861E+02 -0.42931989596E+01 -0.80255446832E+01  0.19199035723E+02  0.00000000000E+00 0.  1.
</event>
<event>
 7    1  0.1322363E-009  0.4778728E+02  0.7816164E-02  0.1312668E+00
        -11   -1    0    0    0    0  0.00000000000E+00  0.00000000000E+00  0.45593999997E+02  0.45594000000E+02  0.51100000000E-03 0.  1.
         11   -1    0    0    0    0 -0.00000000000E+00 -0.00000000000E+00 -0.45593999997E+02  0.45594000000E+02  0.51100000000E-03 0. -1.
    9900012    2    1    2    0    0 -0.17215507132E+01  0.27639502961E+02 -0.33417315748E+02  0.47787275898E+02  0.20000022129E+02 0.  0.
        -12    1    1    2    0    0  0.17215507132E+01 -0.27639502961E+02  0.33417315748E+02  0.43400724102E+02  0.00000000000E+00 0.  1.
         11    1    3    3    0    0 -0.13586735184E+01  0.19807925051E+02 -0.17002796434E+02  0.26139911542E+02  0.51100000000E-03 0. -1.
        -11    1    3    3    0    0  0.53414866477E+01  0.31167429071E+01 -0.46046555508E+01  0.77102800831E+01  0.51100000000E-03 0.  1.
        -12    1    3    3    0    0 -0.57043638425E+01  0.47148350033E+01 -0.11809863762E+02  0.13937084273E+02  0.00000000000E+00 0.  1.
</event>
<event>
 7    1  0.1322363E-009  0.4778727E+02  0.7816164E-02  0.1312668E+00
        -11   -1    0    0    0    0  0.00000000000E+00  0.00000000000E+00  0.45593999997E+02  0.45594000000E+02  0.51100000000E-03 0.  1.
         11   -1    0    0    0    0 -0.00000000000E+00 -0.00000000000E+00 -0.45593999997E+02  0.45594000000E+02  0.51100000000E-03 0. -1.
    9900012    2    1    2    0    0 -0.17455700548E+02 -0.23368675074E+02 -0.32137625380E+02  0.47787269345E+02  0.19999992251E+02 0.  0.
        -12    1    1    2    0    0  0.17455700548E+02  0.23368675074E+02  0.32137625380E+02  0.43400730655E+02  0.00000000000E+00 0.  1.
         11    1    3    3    0    0  0.31185645189E+01 -0.12394199437E+01  0.32640395766E+00  0.33716681717E+01  0.51100000000E-03 0.  1.
        -11    1    3    3    0    0 -0.64981166105E+01 -0.61258113784E+01 -0.10981161046E+02  0.14154044748E+02  0.51100000000E-03 0. -1.
        -12    1    3    3    0    0 -0.14076148456E+02 -0.16003443752E+02 -0.21482868291E+02  0.30261556426E+02  0.00000000000E+00 0.  1.
</event>
<event>
 7    1  0.1322363E-009  0.4778727E+02  0.7816164E-02  0.1312668E+00
        -11   -1    0    0    0    0  0.00000000000E+00  0.00000000000E+00  0.45593999997E+02  0.45594000000E+02  0.51100000000E-03 0.  1.
         11   -1    0    0    0    0 -0.00000000000E+00 -0.00000000000E+00 -0.45593999997E+02  0.45594000000E+02  0.51100000000E-03 0. -1.
    9900012    2    1    2    0    0 -0.83203511078E+01  0.81133380660E+01 -0.41815891543E+02  0.47787270943E+02  0.19999999540E+02 0.  0.
        -12    1    1    2    0    0  0.83203511078E+01 -0.81133380660E+01  0.41815891543E+02  0.43400729057E+02  0.00000000000E+00 0.  1.
         11    1    3    3    0    0 -0.38984356312E+01  0.66049909409E+01 -0.54658216877E+01  0.94180100171E+01  0.51100000000E-03 0. -1.
        -11    1    3    3    0    0  0.22313251003E+01 -0.33565906953E+01 -0.11211005187E+02  0.11913528040E+02  0.51100000000E-03 0.  1.
         12    1    3    3    0    0 -0.66532405770E+01  0.48649378203E+01 -0.25139064668E+02  0.26455732886E+02  0.00000000000E+00 0. -1.
</event>
<event>
 7    1  0.1322363E-009  0.4778727E+02  0.7816164E-02  0.1312668E+00
        -11   -1    0    0    0    0  0.00000000000E+00  0.00000000000E+00  0.45593999997E+02  0.45594000000E+02  0.51100000000E-03 0. -1.
         11   -1    0    0    0    0 -0.00000000000E+00 -0.00000000000E+00 -0.45593999997E+02  0.45594000000E+02  0.51100000000E-03 0.  1.
    9900012    2    1    2    0    0  0.15708279569E+02 -0.35407007634E+02  0.19575940782E+02  0.47787266203E+02  0.19999977926E+02 0.  0.
        -12    1    1    2    0    0 -0.15708279569E+02  0.35407007634E+02 -0.19575940782E+02  0.43400733797E+02  0.00000000000E+00 0.  1.
         11    1    3    3    0    0  0.79976100695E+01 -0.16647211108E+02  0.13427616612E+02  0.22834016130E+02  0.51100000000E-03 0. -1.
        -11    1    3    3    0    0 -0.30995766503E+01 -0.30846519212E+01  0.37516246191E+01  0.57616959682E+01  0.51100000000E-03 0.  1.
        -12    1    3    3    0    0  0.10810246150E+02 -0.15675144605E+02  0.23966995504E+01  0.19191554104E+02  0.00000000000E+00 0.  1.
</event>
<event>
 7    1  0.1322363E-009  0.4778727E+02  0.7816164E-02  0.1312668E+00
        -11   -1    0    0    0    0  0.00000000000E+00  0.00000000000E+00  0.45593999997E+02  0.45594000000E+02  0.51100000000E-03 0.  1.
         11   -1    0    0    0    0 -0.00000000000E+00 -0.00000000000E+00 -0.45593999997E+02  0.45594000000E+02  0.51100000000E-03 0. -1.
    9900012    2    1    2    0    0  0.19172443800E+02 -0.29376221524E+02 -0.25555392999E+02  0.47787273006E+02  0.20000008942E+02 0.  0.
        -12    1    1    2    0    0 -0.19172443800E+02  0.29376221524E+02  0.25555392999E+02  0.43400726994E+02  0.00000000000E+00 0.  1.
         11    1    3    3    0    0 -0.20501911163E+01 -0.85697245370E+00 -0.43948817252E+01  0.49247000964E+01  0.51100000000E-03 0. -1.
        -11    1    3    3    0    0 -0.93577701315E+00 -0.13049768736E+01  0.42523129194E+00  0.16611638004E+01  0.51100000000E-03 0.  1.
         12    1    3    3    0    0  0.22158411929E+02 -0.27214272197E+02 -0.21585742566E+02  0.41201409109E+02  0.00000000000E+00 0. -1.
</event>
<event>
 7    1  0.1322363E-009  0.4778727E+02  0.7816164E-02  0.1312668E+00
        -11   -1    0    0    0    0  0.00000000000E+00  0.00000000000E+00  0.45593999997E+02  0.45594000000E+02  0.51100000000E-03 0.  1.
         11   -1    0    0    0    0 -0.00000000000E+00 -0.00000000000E+00 -0.45593999997E+02  0.45594000000E+02  0.51100000000E-03 0. -1.
    9900012    2    1    2    0    0  0.39215601773E+01  0.27323088633E+02 -0.33491689068E+02  0.47787273701E+02  0.20000012112E+02 0.  0.
        -12    1    1    2    0    0 -0.39215601773E+01 -0.27323088633E+02  0.33491689068E+02  0.43400726299E+02  0.00000000000E+00 0.  1.
         11    1    3    3    0    0 -0.32639829986E+01  0.18429476782E+02 -0.14604926684E+02  0.23740326097E+02  0.51100000000E-03 0. -1.
        -11    1    3    3    0    0  0.48238754320E+00 -0.12631537343E+01  0.24369115845E+00  0.13739143860E+01  0.51100000000E-03 0.  1.
         12    1    3    3    0    0  0.67031556327E+01  0.10156765585E+02 -0.19130453542E+02  0.22673033218E+02  0.00000000000E+00 0. -1.
</event>
<event>
 7    1  0.1322363E-009  0.4778727E+02  0.7816164E-02  0.1312668E+00
        -11   -1    0    0    0    0  0.00000000000E+00  0.00000000000E+00  0.45593999997E+02  0.45594000000E+02  0.51100000000E-03 0.  1.
         11   -1    0    0    0    0 -0.00000000000E+00 -0.00000000000E+00 -0.45593999997E+02  0.45594000000E+02  0.51100000000E-03 0. -1.
    9900012    2    1    2    0    0 -0.24188073954E+02 -0.10598427202E+02 -0.34441740509E+02  0.47787273393E+02  0.20000010706E+02 0.  0.
        -12    1    1    2    0    0  0.24188073954E+02  0.10598427202E+02  0.34441740509E+02  0.43400726607E+02  0.00000000000E+00 0.  1.
         11    1    3    3    0    0 -0.11685133013E+02 -0.81730969481E+01 -0.23475629492E+02  0.27467199121E+02  0.51100000000E-03 0. -1.
        -11    1    3    3    0    0 -0.91956787895E+01 -0.64911104972E+01 -0.48247400835E+01  0.12246352152E+02  0.51100000000E-03 0.  1.
        -12    1    3    3    0    0 -0.33072621515E+01  0.40657802432E+01 -0.61413709331E+01  0.80737221195E+01  0.00000000000E+00 0.  1.
</event>
<event>
 7    1  0.1322363E-009  0.4778726E+02  0.7816164E-02  0.1312668E+00
        -11   -1    0    0    0    0  0.00000000000E+00  0.00000000000E+00  0.45593999997E+02  0.45594000000E+02  0.51100000000E-03 0. -1.
         11   -1    0    0    0    0 -0.00000000000E+00 -0.00000000000E+00 -0.45593999997E+02  0.45594000000E+02  0.51100000000E-03 0.  1.
    9900012    2    1    2    0    0 -0.23375362448E+02 -0.34633190375E+02  0.11737052483E+02  0.47787264452E+02  0.19999969941E+02 0.  0.
        -12    1    1    2    0    0  0.23375362448E+02  0.34633190375E+02 -0.11737052483E+02  0.43400735548E+02  0.00000000000E+00 0.  1.
         11    1    3    3    0    0 -0.14049694409E+02 -0.27311885512E+02  0.60073043296E+01  0.31295697927E+02  0.51100000000E-03 0. -1.
        -11    1    3    3    0    0 -0.10649202463E+02 -0.75760668745E+01  0.68349742503E+01  0.14748531305E+02  0.51100000000E-03 0.  1.
        -12    1    3    3    0    0  0.13235344238E+01  0.25476201073E+00 -0.11052260966E+01  0.17430352198E+01  0.00000000000E+00 0.  1.
</event>
<event>
 7    1  0.1322363E-009  0.4778727E+02  0.7816164E-02  0.1312668E+00
        -11   -1    0    0    0    0  0.00000000000E+00  0.00000000000E+00  0.45593999997E+02  0.45594000000E+02  0.51100000000E-03 0. -1.
         11   -1    0    0    0    0 -0.00000000000E+00 -0.00000000000E+00 -0.45593999997E+02  0.45594000000E+02  0.51100000000E-03 0.  1.
    9900012    2    1    2    0    0  0.29441168527E+02  0.74205895158E+01  0.31012507514E+02  0.47787272180E+02  0.20000005178E+02 0.  0.
        -12    1    1    2    0    0 -0.29441168527E+02 -0.74205895158E+01 -0.31012507514E+02  0.43400727820E+02  0.00000000000E+00 0.  1.
         11    1    3    3    0    0  0.14011149835E+02  0.15262975697E+01  0.25077302411E+02  0.28766525693E+02  0.51100000000E-03 0. -1.
        -11    1    3    3    0    0  0.15386247093E+02  0.48711683320E+01  0.69566010280E+01  0.17574389851E+02  0.51100000000E-03 0.  1.
        -12    1    3    3    0    0  0.43771598948E-01  0.10231236141E+01 -0.10213959251E+01  0.14463566360E+01  0.00000000000E+00 0.  1.
</event>
<event>
 7    1  0.1322363E-009  0.4778727E+02  0.7816164E-02  0.1312668E+00
        -11   -1    0    0    0    0  0.00000000000E+00  0.00000000000E+00  0.45593999997E+02  0.45594000000E+02  0.51100000000E-03 0. -1.
         11   -1    0    0    0    0 -0.00000000000E+00 -0.00000000000E+00 -0.45593999997E+02  0.45594000000E+02  0.51100000000E-03 0.  1.
    9900012    2    1    2    0    0 -0.17986618106E+02 -0.30380740991E+02  0.25241151735E+02  0.47787267345E+02  0.19999983131E+02 0.  0.
        -12    1    1    2    0    0  0.17986618106E+02  0.30380740991E+02 -0.25241151735E+02  0.43400732655E+02  0.00000000000E+00 0.  1.
         11    1    3    3    0    0 -0.10784338905E+02 -0.11751348298E+02  0.64570640951E+01  0.17207260951E+02  0.51100000000E-03 0. -1.
        -11    1    3    3    0    0 -0.57287956640E+01 -0.20660447670E+02  0.17865603475E+02  0.27907937679E+02  0.51100000000E-03 0.  1.
         12    1    3    3    0    0 -0.14734835375E+01  0.20310549772E+01  0.91848416547E+00  0.26720687151E+01  0.00000000000E+00 0. -1.
</event>
<event>
 7    1  0.1322363E-009  0.4778727E+02  0.7816164E-02  0.1312668E+00
        -11   -1    0    0    0    0  0.00000000000E+00  0.00000000000E+00  0.45593999997E+02  0.45594000000E+02  0.51100000000E-03 0.  1.
         11   -1    0    0    0    0 -0.00000000000E+00 -0.00000000000E+00 -0.45593999997E+02  0.45594000000E+02  0.51100000000E-03 0. -1.
    9900012    2    1    2    0    0  0.35640832707E+02  0.10694713966E+01 -0.24742885620E+02  0.47787272887E+02  0.20000008402E+02 0.  0.
        -12    1    1    2    0    0 -0.35640832707E+02 -0.10694713966E+01  0.24742885620E+02  0.43400727113E+02  0.00000000000E+00 0.  1.
         11    1    3    3    0    0  0.18896915188E+02 -0.20512944916E+00 -0.83411377289E+01  0.20656961552E+02  0.51100000000E-03 0. -1.
        -11    1    3    3    0    0  0.82740901829E+01  0.35593258468E+00  0.40067898296E+00  0.82914293260E+01  0.51100000000E-03 0.  1.
         12    1    3    3    0    0  0.84698273364E+01  0.91866826111E+00 -0.16802426874E+02  0.18838882009E+02  0.00000000000E+00 0. -1.
</event>
<event>
 7    1  0.1322363E-009  0.4778729E+02  0.7816164E-02  0.1312668E+00
        -11   -1    0    0    0    0  0.00000000000E+00  0.00000000000E+00  0.45593999997E+02  0.45594000000E+02  0.51100000000E-03 0.  1.
         11   -1    0    0    0    0 -0.00000000000E+00 -0.00000000000E+00 -0.45593999997E+02  0.45594000000E+02  0.51100000000E-03 0. -1.
    9900012    2    1    2    0    0  0.37578908917E+02  0.57800799053E+00 -0.21705132897E+02  0.47787293983E+02  0.20000104588E+02 0.  0.
        -12    1    1    2    0    0 -0.37578908917E+02 -0.57800799053E+00  0.21705132897E+02  0.43400706017E+02  0.00000000000E+00 0.  1.
         11    1    3    3    0    0  0.19753355171E+02  0.91997776711E+01 -0.14549519023E+02  0.26201516249E+02  0.51100000000E-03 0. -1.
        -11    1    3    3    0    0  0.93740986481E+01 -0.36630633889E+01 -0.60049188095E+01  0.11719676148E+02  0.51100000000E-03 0.  1.
        -12    1    3    3    0    0  0.84514550983E+01 -0.49587062917E+01 -0.11506950648E+01  0.98661015857E+01  0.00000000000E+00 0.  1.
</event>
<event>
 7    1  0.1322363E-009  0.4778727E+02  0.7816164E-02  0.1312668E+00
        -11   -1    0    0    0    0  0.00000000000E+00  0.00000000000E+00  0.45593999997E+02  0.45594000000E+02  0.51100000000E-03 0.  1.
         11   -1    0    0    0    0 -0.00000000000E+00 -0.00000000000E+00 -0.45593999997E+02  0.45594000000E+02  0.51100000000E-03 0. -1.
    9900012    2    1    2    0    0  0.28326415552E+02  0.29633406669E+02 -0.14251275317E+02  0.47787268935E+02  0.19999990383E+02 0.  0.
        -12    1    1    2    0    0 -0.28326415552E+02 -0.29633406669E+02  0.14251275317E+02  0.43400731065E+02  0.00000000000E+00 0.  1.
         11    1    3    3    0    0  0.15073740077E+02  0.60562649875E+01 -0.61135559833E+01  0.17357175822E+02  0.51100000000E-03 0. -1.
        -11    1    3    3    0    0  0.64089735703E+01  0.13644392004E+02 -0.10188583608E+02  0.18194823758E+02  0.51100000000E-03 0.  1.
        -12    1    3    3    0    0  0.68437019048E+01  0.99327496771E+01  0.20508642748E+01  0.12235269355E+02  0.00000000000E+00 0.  1.
</event>
<event>
 7    1  0.1322363E-009  0.4778728E+02  0.7816164E-02  0.1312668E+00
        -11   -1    0    0    0    0  0.00000000000E+00  0.00000000000E+00  0.45593999997E+02  0.45594000000E+02  0.51100000000E-03 0. -1.
         11   -1    0    0    0    0 -0.00000000000E+00 -0.00000000000E+00 -0.45593999997E+02  0.45594000000E+02  0.51100000000E-03 0.  1.
    9900012    2    1    2    0    0 -0.23375281432E+02 -0.29757641005E+02  0.21253263393E+02  0.47787283588E+02  0.20000057191E+02 0.  0.
        -12    1    1    2    0    0  0.23375281432E+02  0.29757641005E+02 -0.21253263393E+02  0.43400716412E+02  0.00000000000E+00 0.  1.
         11    1    3    3    0    0 -0.30669293164E+01 -0.14515758543E+02  0.63521933569E+01  0.16138886648E+02  0.51100000000E-03 0. -1.
        -11    1    3    3    0    0 -0.15476427784E+02 -0.11571708733E+02  0.48757049081E+01  0.19929795749E+02  0.51100000000E-03 0.  1.
         12    1    3    3    0    0 -0.48319243309E+01 -0.36701737290E+01  0.10025365128E+02  0.11718601192E+02  0.00000000000E+00 0. -1.
</event>
<event>
 7    1  0.1322363E-009  0.4778727E+02  0.7816164E-02  0.1312668E+00
        -11   -1    0    0    0    0  0.00000000000E+00  0.00000000000E+00  0.45593999997E+02  0.45594000000E+02  0.51100000000E-03 0. -1.
         11   -1    0    0    0    0 -0.00000000000E+00 -0.00000000000E+00 -0.45593999997E+02  0.45594000000E+02  0.51100000000E-03 0.  1.
    9900012    2    1    2    0    0 -0.36920191846E+01  0.36095647158E+02  0.23813797761E+02  0.47787265983E+02  0.19999976923E+02 0.  0.
        -12    1    1    2    0    0  0.36920191846E+01 -0.36095647158E+02 -0.23813797761E+02  0.43400734017E+02  0.00000000000E+00 0.  1.
         11    1    3    3    0    0  0.11780534018E+01  0.19660969196E+02  0.14053835362E+02  0.24196111427E+02  0.51100000000E-03 0. -1.
        -11    1    3    3    0    0 -0.23202794666E+01  0.23636043526E+01  0.86330234161E+01  0.92465894200E+01  0.51100000000E-03 0.  1.
        -12    1    3    3    0    0 -0.25497931198E+01  0.14071073610E+02  0.11269389827E+01  0.14344565136E+02  0.00000000000E+00 0.  1.
</event>
<event>
 7    1  0.1322363E-009  0.4778728E+02  0.7816164E-02  0.1312668E+00
        -11   -1    0    0    0    0  0.00000000000E+00  0.00000000000E+00  0.45593999997E+02  0.45594000000E+02  0.51100000000E-03 0.  1.
         11   -1    0    0    0    0 -0.00000000000E+00 -0.00000000000E+00 -0.45593999997E+02  0.45594000000E+02  0.51100000000E-03 0. -1.
    9900012    2    1    2    0    0 -0.28408827682E+02  0.18546328266E+02 -0.27066492802E+02  0.47787276331E+02  0.20000024104E+02 0.  0.
        -12    1    1    2    0    0  0.28408827682E+02 -0.18546328266E+02  0.27066492802E+02  0.43400723669E+02  0.00000000000E+00 0.  1.
         11    1    3    3    0    0 -0.15081923551E+02  0.27015998207E+01 -0.11337348975E+02  0.19060391959E+02  0.51100000000E-03 0.  1.
        -11    1    3    3    0    0 -0.12026234967E+02  0.49350111437E+01 -0.75836663716E+01  0.15049805925E+02  0.51100000000E-03 0. -1.
        -12    1    3    3    0    0 -0.13006691632E+01  0.10909717302E+02 -0.81454774552E+01  0.13677078447E+02  0.00000000000E+00 0.  1.
</event>
<event>
 7    1  0.1322363E-009  0.4778727E+02  0.7816164E-02  0.1312668E+00
        -11   -1    0    0    0    0  0.00000000000E+00  0.00000000000E+00  0.45593999997E+02  0.45594000000E+02  0.51100000000E-03 0.  1.
         11   -1    0    0    0    0 -0.00000000000E+00 -0.00000000000E+00 -0.45593999997E+02  0.45594000000E+02  0.51100000000E-03 0. -1.
    9900012    2    1    2    0    0  0.65261955070E+01 -0.40165119003E+02 -0.15092896474E+02  0.47787268021E+02  0.19999986216E+02 0.  0.
        -12    1    1    2    0    0 -0.65261955070E+01  0.40165119003E+02  0.15092896474E+02  0.43400731979E+02  0.00000000000E+00 0.  1.
         11    1    3    3    0    0 -0.51613966757E+00 -0.23841821880E+02 -0.12648608245E+02  0.26994187551E+02  0.51100000000E-03 0. -1.
        -11    1    3    3    0    0 -0.22797485307E+01 -0.31318188937E+01  0.15193073514E+01  0.41609900306E+01  0.51100000000E-03 0.  1.
         12    1    3    3    0    0  0.93220837053E+01 -0.13191478229E+02 -0.39635955804E+01  0.16632090440E+02  0.00000000000E+00 0. -1.
</event>
<event>
 7    1  0.1322363E-009  0.4778725E+02  0.7816164E-02  0.1312668E+00
        -11   -1    0    0    0    0  0.00000000000E+00  0.00000000000E+00  0.45593999997E+02  0.45594000000E+02  0.51100000000E-03 0.  1.
         11   -1    0    0    0    0 -0.00000000000E+00 -0.00000000000E+00 -0.45593999997E+02  0.45594000000E+02  0.51100000000E-03 0. -1.
    9900012    2    1    2    0    0  0.19324325195E+02  0.66940142835E+01 -0.38280357252E+02  0.47787249744E+02  0.19999902882E+02 0.  0.
        -12    1    1    2    0    0 -0.19324325195E+02 -0.66940142835E+01  0.38280357252E+02  0.43400750256E+02  0.00000000000E+00 0.  1.
         11    1    3    3    0    0  0.87725949876E+01 -0.52609519999E+01 -0.15247381614E+02  0.18360792061E+02  0.51100000000E-03 0.  1.
        -11    1    3    3    0    0  0.93521183743E+01  0.74645940064E+01 -0.21366337472E+02  0.24488827228E+02  0.51100000000E-03 0. -1.
        -12    1    3    3    0    0  0.11996118327E+01  0.44903722769E+01 -0.16666381658E+01  0.49376304550E+01  0.00000000000E+00 0.  1.
</event>
<event>
 7    1  0.1322363E-009  0.4778727E+02  0.7816164E-02  0.1312668E+00
        -11   -1    0    0    0    0  0.00000000000E+00  0.00000000000E+00  0.45593999997E+02  0.45594000000E+02  0.51100000000E-03 0.  1.
         11   -1    0    0    0    0 -0.00000000000E+00 -0.00000000000E+00 -0.45593999997E+02  0.45594000000E+02  0.51100000000E-03 0. -1.
    9900012    2    1    2    0    0  0.18895713421E+02  0.22933352194E+02 -0.31632849536E+02  0.47787265002E+02  0.19999972452E+02 0.  0.
        -12    1    1    2    0    0 -0.18895713421E+02 -0.22933352194E+02  0.31632849536E+02  0.43400734998E+02  0.00000000000E+00 0.  1.
         11    1    3    3    0    0  0.56919517441E+01  0.10476058492E+02 -0.12090312606E+02  0.16980040499E+02  0.51100000000E-03 0. -1.
        -11    1    3    3    0    0  0.62891115067E+01  0.46203027871E+01  0.89240808872E+00  0.78547128430E+01  0.51100000000E-03 0.  1.
         12    1    3    3    0    0  0.69146501700E+01  0.78369909153E+01 -0.20434945019E+02  0.22952511660E+02  0.00000000000E+00 0. -1.
</event>
<event>
 7    1  0.1485642E-009  0.4778727E+02  0.7816164E-02  0.1312668E+00
        -11   -1    0    0    0    0  0.00000000000E+00  0.00000000000E+00  0.45593999997E+02  0.45594000000E+02  0.51100000000E-03 0. -1.
         11   -1    0    0    0    0 -0.00000000000E+00 -0.00000000000E+00 -0.45593999997E+02  0.45594000000E+02  0.51100000000E-03 0.  1.
    9900012    2    1    2    0    0  0.42503264665E+02  0.87318316698E+01  0.92240755840E+00  0.47787271583E+02  0.20000002454E+02 0.  0.
        -12    1    1    2    0    0 -0.42503264665E+02 -0.87318316698E+01 -0.92240755840E+00  0.43400728417E+02  0.00000000000E+00 0.  1.
         11    1    3    3    0    0  0.28518566567E+02  0.91029283300E+01  0.61811786644E+00  0.29942511805E+02  0.51100000000E-03 0. -1.
        -11    1    3    3    0    0  0.23730694266E+01  0.28305741133E+01  0.38034223754E+01  0.53018515956E+01  0.51100000000E-03 0.  1.
        -12    1    3    3    0    0  0.11611628671E+02 -0.32016707734E+01 -0.34991326835E+01  0.12542908182E+02  0.00000000000E+00 0.  1.
</event>
<event>
 7    1  0.1382409E-009  0.4778728E+02  0.7816164E-02  0.1312668E+00
        -11   -1    0    0    0    0  0.00000000000E+00  0.00000000000E+00  0.45593999997E+02  0.45594000000E+02  0.51100000000E-03 0.  1.
         11   -1    0    0    0    0 -0.00000000000E+00 -0.00000000000E+00 -0.45593999997E+02  0.45594000000E+02  0.51100000000E-03 0. -1.
    9900012    2    1    2    0    0  0.70831766830E+01 -0.40883094792E+02 -0.12728856620E+02  0.47787278548E+02  0.20000034213E+02 0.  0.
        -12    1    1    2    0    0 -0.70831766830E+01  0.40883094792E+02  0.12728856620E+02  0.43400721452E+02  0.00000000000E+00 0.  1.
         11    1    3    3    0    0  0.80027086959E+01 -0.21782075267E+02 -0.10433214553E+02  0.25443154591E+02  0.51100000000E-03 0. -1.
        -11    1    3    3    0    0 -0.25709373113E+01 -0.19919764477E+02 -0.31183613599E+01  0.20325622089E+02  0.51100000000E-03 0.  1.
        -12    1    3    3    0    0  0.16514052984E+01  0.81874495165E+00  0.82271929323E+00  0.20185018679E+01  0.00000000000E+00 0.  1.
</event>
<event>
 7    1  0.1322363E-009  0.4778727E+02  0.7816164E-02  0.1312668E+00
        -11   -1    0    0    0    0  0.00000000000E+00  0.00000000000E+00  0.45593999997E+02  0.45594000000E+02  0.51100000000E-03 0. -1.
         11   -1    0    0    0    0 -0.00000000000E+00 -0.00000000000E+00 -0.45593999997E+02  0.45594000000E+02  0.51100000000E-03 0.  1.
    9900012    2    1    2    0    0 -0.24361053070E+02  0.35575903821E+02 -0.49514953798E+01  0.47787272520E+02  0.20000006727E+02 0.  0.
        -12    1    1    2    0    0  0.24361053070E+02 -0.35575903821E+02  0.49514953798E+01  0.43400727480E+02  0.00000000000E+00 0.  1.
         11    1    3    3    0    0 -0.67050331411E+01  0.62781940544E+01  0.76506316357E+00  0.92172941753E+01  0.51100000000E-03 0. -1.
        -11    1    3    3    0    0 -0.26020195201E+01  0.18837811459E+02 -0.68275027992E+01  0.20205158769E+02  0.51100000000E-03 0.  1.
        -12    1    3    3    0    0 -0.15054000408E+02  0.10459898307E+02  0.11109442559E+01  0.18364819575E+02  0.00000000000E+00 0.  1.
</event>
<event>
 7    1  0.1322363E-009  0.4778727E+02  0.7816164E-02  0.1312668E+00
        -11   -1    0    0    0    0  0.00000000000E+00  0.00000000000E+00  0.45593999997E+02  0.45594000000E+02  0.51100000000E-03 0.  1.
         11   -1    0    0    0    0 -0.00000000000E+00 -0.00000000000E+00 -0.45593999997E+02  0.45594000000E+02  0.51100000000E-03 0. -1.
    9900012    2    1    2    0    0  0.33383105730E+02 -0.77598375645E+01 -0.26626620709E+02  0.47787265471E+02  0.19999974590E+02 0.  0.
        -12    1    1    2    0    0 -0.33383105730E+02  0.77598375645E+01  0.26626620709E+02  0.43400734529E+02  0.00000000000E+00 0.  1.
         11    1    3    3    0    0  0.11103560850E+02  0.36373412699E+01 -0.12546088152E+02  0.17144201447E+02  0.51100000000E-03 0. -1.
        -11    1    3    3    0    0  0.13115443705E+01 -0.50966691700E+01 -0.35497545011E+01  0.63479872828E+01  0.51100000000E-03 0.  1.
         12    1    3    3    0    0  0.20968000510E+02 -0.63005096645E+01 -0.10530778056E+02  0.24295076741E+02  0.00000000000E+00 0. -1.
</event>
<event>
 7    1  0.1322363E-009  0.4778727E+02  0.7816164E-02  0.1312668E+00
        -11   -1    0    0    0    0  0.00000000000E+00  0.00000000000E+00  0.45593999997E+02  0.45594000000E+02  0.51100000000E-03 0. -1.
         11   -1    0    0    0    0 -0.00000000000E+00 -0.00000000000E+00 -0.45593999997E+02  0.45594000000E+02  0.51100000000E-03 0.  1.
    9900012    2    1    2    0    0  0.99941097689E+00 -0.52026472825E+01  0.43076175868E+02  0.47787270876E+02  0.19999999233E+02 0.  0.
        -12    1    1    2    0    0 -0.99941097689E+00  0.52026472825E+01 -0.43076175868E+02  0.43400729124E+02  0.00000000000E+00 0.  1.
         11    1    3    3    0    0  0.29802118682E+01 -0.10575413790E+02  0.17618604418E+02  0.20763820976E+02  0.51100000000E-03 0. -1.
        -11    1    3    3    0    0 -0.35436444002E+01  0.47652575597E+01  0.11285712357E+02  0.12752740839E+02  0.51100000000E-03 0.  1.
         12    1    3    3    0    0  0.15628435089E+01  0.60750894817E+00  0.14171859093E+02  0.14270709061E+02  0.00000000000E+00 0. -1.
</event>
<event>
 7    1  0.1322363E-009  0.4778727E+02  0.7816164E-02  0.1312668E+00
        -11   -1    0    0    0    0  0.00000000000E+00  0.00000000000E+00  0.45593999997E+02  0.45594000000E+02  0.51100000000E-03 0. -1.
         11   -1    0    0    0    0 -0.00000000000E+00 -0.00000000000E+00 -0.45593999997E+02  0.45594000000E+02  0.51100000000E-03 0.  1.
    9900012    2    1    2    0    0  0.65410174601E+01 -0.41535621890E+02  0.10753164533E+02  0.47787270252E+02  0.19999996387E+02 0.  0.
        -12    1    1    2    0    0 -0.65410174601E+01  0.41535621890E+02 -0.10753164533E+02  0.43400729748E+02  0.00000000000E+00 0.  1.
         11    1    3    3    0    0 -0.17367917589E+01 -0.26840532790E+01  0.31626924160E+01  0.44970224813E+01  0.51100000000E-03 0. -1.
        -11    1    3    3    0    0  0.47592333273E+01 -0.22691275372E+02 -0.33994730874E+01  0.23432897759E+02  0.51100000000E-03 0.  1.
        -12    1    3    3    0    0  0.35185758917E+01 -0.16160293239E+02  0.10989945205E+02  0.19857350012E+02  0.00000000000E+00 0.  1.
</event>
<event>
 7    1  0.1322363E-009  0.4778727E+02  0.7816164E-02  0.1312668E+00
        -11   -1    0    0    0    0  0.00000000000E+00  0.00000000000E+00  0.45593999997E+02  0.45594000000E+02  0.51100000000E-03 0.  1.
         11   -1    0    0    0    0 -0.00000000000E+00 -0.00000000000E+00 -0.45593999997E+02  0.45594000000E+02  0.51100000000E-03 0. -1.
    9900012    2    1    2    0    0  0.74843391070E+01  0.31591035246E+02 -0.28803029425E+02  0.47787270238E+02  0.19999996323E+02 0.  0.
        -12    1    1    2    0    0 -0.74843391070E+01 -0.31591035246E+02  0.28803029425E+02  0.43400729762E+02  0.00000000000E+00 0.  1.
         11    1    3    3    0    0  0.89055367911E-01  0.25003798709E+00  0.12767478924E+01  0.13040457413E+01  0.51100000000E-03 0.  1.
        -11    1    3    3    0    0 -0.41251174254E+01  0.90912771490E+01 -0.11866863111E+02  0.15507751427E+02  0.51100000000E-03 0. -1.
        -12    1    3    3    0    0  0.11520401164E+02  0.22249720110E+02 -0.18212914206E+02  0.30975473069E+02  0.00000000000E+00 0.  1.
</event>
<event>
 7    1  0.1322363E-009  0.4778727E+02  0.7816164E-02  0.1312668E+00
        -11   -1    0    0    0    0  0.00000000000E+00  0.00000000000E+00  0.45593999997E+02  0.45594000000E+02  0.51100000000E-03 0.  1.
         11   -1    0    0    0    0 -0.00000000000E+00 -0.00000000000E+00 -0.45593999997E+02  0.45594000000E+02  0.51100000000E-03 0. -1.
    9900012    2    1    2    0    0 -0.49292355543E+00 -0.40390470445E+02  0.15874204892E+02  0.47787268931E+02  0.19999990365E+02 0.  0.
        -12    1    1    2    0    0  0.49292355543E+00  0.40390470445E+02 -0.15874204892E+02  0.43400731069E+02  0.00000000000E+00 0.  1.
         11    1    3    3    0    0  0.85817887002E+00 -0.64057112310E+01 -0.39295652920E+01  0.75638013586E+01  0.51100000000E-03 0. -1.
        -11    1    3    3    0    0  0.34942864351E+01 -0.14145800963E+02  0.76217946376E+01  0.16444010348E+02  0.51100000000E-03 0.  1.
        -12    1    3    3    0    0 -0.48453888606E+01 -0.19838958251E+02  0.12181975546E+02  0.23779457224E+02  0.00000000000E+00 0.  1.
</event>
<event>
 7    1  0.1322363E-009  0.4778727E+02  0.7816164E-02  0.1312668E+00
        -11   -1    0    0    0    0  0.00000000000E+00  0.00000000000E+00  0.45593999997E+02  0.45594000000E+02  0.51100000000E-03 0.  1.
         11   -1    0    0    0    0 -0.00000000000E+00 -0.00000000000E+00 -0.45593999997E+02  0.45594000000E+02  0.51100000000E-03 0. -1.
    9900012    2    1    2    0    0 -0.32423652061E+02 -0.35786512099E+01 -0.28627313953E+02  0.47787273490E+02  0.20000011150E+02 0.  0.
        -12    1    1    2    0    0  0.32423652061E+02  0.35786512099E+01  0.28627313953E+02  0.43400726510E+02  0.00000000000E+00 0.  1.
         11    1    3    3    0    0  0.36299958449E+00  0.19658005741E+01 -0.68680053677E+01  0.71530160483E+01  0.51100000000E-03 0. -1.
        -11    1    3    3    0    0 -0.78829359551E+01 -0.27371492321E+01 -0.16589194468E+01  0.85079186164E+01  0.51100000000E-03 0.  1.
         12    1    3    3    0    0 -0.24903715690E+02 -0.28073025519E+01 -0.20100389138E+02  0.32126338825E+02  0.00000000000E+00 0. -1.
</event>
<event>
 7    1  0.1322363E-009  0.4778727E+02  0.7816164E-02  0.1312668E+00
        -11   -1    0    0    0    0  0.00000000000E+00  0.00000000000E+00  0.45593999997E+02  0.45594000000E+02  0.51100000000E-03 0.  1.
         11   -1    0    0    0    0 -0.00000000000E+00 -0.00000000000E+00 -0.45593999997E+02  0.45594000000E+02  0.51100000000E-03 0. -1.
    9900012    2    1    2    0    0 -0.16943191713E+01  0.32552381741E+02 -0.28654753781E+02  0.47787272025E+02  0.20000004471E+02 0.  0.
        -12    1    1    2    0    0  0.16943191713E+01 -0.32552381741E+02  0.28654753781E+02  0.43400727975E+02  0.00000000000E+00 0.  1.
         11    1    3    3    0    0  0.22913076769E+01  0.17115518525E+02 -0.58353736594E+01  0.18227524551E+02  0.51100000000E-03 0. -1.
        -11    1    3    3    0    0 -0.58267464433E+01  0.10780076779E+02 -0.10065281415E+02  0.15857834647E+02  0.51100000000E-03 0.  1.
        -12    1    3    3    0    0  0.18411195950E+01  0.46567864372E+01 -0.12754098707E+02  0.13701912827E+02  0.00000000000E+00 0.  1.
</event>
<event>
 7    1  0.1322363E-009  0.4778727E+02  0.7816164E-02  0.1312668E+00
        -11   -1    0    0    0    0  0.00000000000E+00  0.00000000000E+00  0.45593999997E+02  0.45594000000E+02  0.51100000000E-03 0.  1.
         11   -1    0    0    0    0 -0.00000000000E+00 -0.00000000000E+00 -0.45593999997E+02  0.45594000000E+02  0.51100000000E-03 0. -1.
    9900012    2    1    2    0    0  0.34086000541E+01 -0.60543081336E+01 -0.42840988505E+02  0.47787268469E+02  0.19999988259E+02 0.  0.
        -12    1    1    2    0    0 -0.34086000541E+01  0.60543081336E+01  0.42840988505E+02  0.43400731531E+02  0.00000000000E+00 0.  1.
         11    1    3    3    0    0  0.56433250992E+01 -0.29406852914E+01 -0.23815655197E+02  0.24651169970E+02  0.51100000000E-03 0. -1.
        -11    1    3    3    0    0 -0.76741564151E+00  0.30479806564E+01 -0.15643054636E+02  0.15955697148E+02  0.51100000000E-03 0.  1.
         12    1    3    3    0    0 -0.14673094035E+01 -0.61616034986E+01 -0.33822786717E+01  0.71804013518E+01  0.00000000000E+00 0. -1.
</event>
<event>
 7    1  0.1322363E-009  0.4778727E+02  0.7816164E-02  0.1312668E+00
        -11   -1    0    0    0    0  0.00000000000E+00  0.00000000000E+00  0.45593999997E+02  0.45594000000E+02  0.51100000000E-03 0.  1.
         11   -1    0    0    0    0 -0.00000000000E+00 -0.00000000000E+00 -0.45593999997E+02  0.45594000000E+02  0.51100000000E-03 0. -1.
    9900012    2    1    2    0    0 -0.34046095096E+02 -0.20423278203E+02 -0.17532155767E+02  0.47787269941E+02  0.19999994968E+02 0.  0.
        -12    1    1    2    0    0  0.34046095096E+02  0.20423278203E+02  0.17532155767E+02  0.43400730059E+02  0.00000000000E+00 0.  1.
         11    1    3    3    0    0 -0.14767364494E+02 -0.54886441564E+01 -0.65983068964E+01  0.17080337319E+02  0.51100000000E-03 0. -1.
        -11    1    3    3    0    0 -0.12379685757E+02 -0.16603206265E+02 -0.46477121983E+01  0.21225557865E+02  0.51100000000E-03 0.  1.
        -12    1    3    3    0    0 -0.68990448450E+01  0.16685722184E+01 -0.62861366721E+01  0.94813747569E+01  0.00000000000E+00 0.  1.
</event>
<event>
 7    1  0.1322363E-009  0.4778727E+02  0.7816164E-02  0.1312668E+00
        -11   -1    0    0    0    0  0.00000000000E+00  0.00000000000E+00  0.45593999997E+02  0.45594000000E+02  0.51100000000E-03 0.  1.
         11   -1    0    0    0    0 -0.00000000000E+00 -0.00000000000E+00 -0.45593999997E+02  0.45594000000E+02  0.51100000000E-03 0. -1.
    9900012    2    1    2    0    0 -0.38279993662E+02 -0.11191108667E+02  0.17117961303E+02  0.47787269279E+02  0.19999991951E+02 0.  0.
        -12    1    1    2    0    0  0.38279993662E+02  0.11191108667E+02 -0.17117961303E+02  0.43400730721E+02  0.00000000000E+00 0.  1.
         11    1    3    3    0    0 -0.11677278364E+02 -0.65333950702E+01  0.50707832750E+01  0.14309329978E+02  0.51100000000E-03 0. -1.
        -11    1    3    3    0    0 -0.12227528197E+02  0.56526582518E+01  0.63521928599E+01  0.14893466538E+02  0.51100000000E-03 0.  1.
        -12    1    3    3    0    0 -0.14375187100E+02 -0.10310371848E+02  0.56949851683E+01  0.18584472763E+02  0.00000000000E+00 0.  1.
</event>
<event>
 7    1  0.1322363E-009  0.4778727E+02  0.7816164E-02  0.1312668E+00
        -11   -1    0    0    0    0  0.00000000000E+00  0.00000000000E+00  0.45593999997E+02  0.45594000000E+02  0.51100000000E-03 0. -1.
         11   -1    0    0    0    0 -0.00000000000E+00 -0.00000000000E+00 -0.45593999997E+02  0.45594000000E+02  0.51100000000E-03 0.  1.
    9900012    2    1    2    0    0  0.21943962145E+01 -0.28244875537E+02  0.32879098727E+02  0.47787268417E+02  0.19999988020E+02 0.  0.
        -12    1    1    2    0    0 -0.21943962145E+01  0.28244875537E+02 -0.32879098727E+02  0.43400731583E+02  0.00000000000E+00 0.  1.
         11    1    3    3    0    0 -0.43253845018E+01 -0.17328221976E+02  0.25019301931E+02  0.30739903990E+02  0.51100000000E-03 0. -1.
        -11    1    3    3    0    0 -0.20498326639E+00 -0.50520091598E+01 -0.14773637263E+00  0.50583239306E+01  0.51100000000E-03 0.  1.
        -12    1    3    3    0    0  0.67247639826E+01 -0.58646444014E+01  0.80075331680E+01  0.11989040496E+02  0.00000000000E+00 0.  1.
</event>
<event>
 7    1  0.1322363E-009  0.4778727E+02  0.7816164E-02  0.1312668E+00
        -11   -1    0    0    0    0  0.00000000000E+00  0.00000000000E+00  0.45593999997E+02  0.45594000000E+02  0.51100000000E-03 0.  1.
         11   -1    0    0    0    0 -0.00000000000E+00 -0.00000000000E+00 -0.45593999997E+02  0.45594000000E+02  0.51100000000E-03 0. -1.
    9900012    2    1    2    0    0 -0.39600080395E+02  0.35606635829E+01 -0.17400534889E+02  0.47787270664E+02  0.19999998267E+02 0.  0.
        -12    1    1    2    0    0  0.39600080395E+02 -0.35606635829E+01  0.17400534889E+02  0.43400729336E+02  0.00000000000E+00 0.  1.
         11    1    3    3    0    0 -0.60420962587E+01 -0.36445666204E+01 -0.64823817563E+01  0.95818091478E+01  0.51100000000E-03 0. -1.
        -11    1    3    3    0    0 -0.10755172137E+02  0.83848092340E+01 -0.57171126199E+01  0.14787296256E+02  0.51100000000E-03 0.  1.
         12    1    3    3    0    0 -0.22802811999E+02 -0.11795790308E+01 -0.52010405129E+01  0.23418165261E+02  0.00000000000E+00 0. -1.
</event>
<event>
 7    1  0.1322363E-009  0.4778727E+02  0.7816164E-02  0.1312668E+00
        -11   -1    0    0    0    0  0.00000000000E+00  0.00000000000E+00  0.45593999997E+02  0.45594000000E+02  0.51100000000E-03 0.  1.
         11   -1    0    0    0    0 -0.00000000000E+00 -0.00000000000E+00 -0.45593999997E+02  0.45594000000E+02  0.51100000000E-03 0. -1.
    9900012    2    1    2    0    0  0.11316251546E+02  0.34189857377E+02 -0.24220223177E+02  0.47787272964E+02  0.20000008753E+02 0.  0.
        -12    1    1    2    0    0 -0.11316251546E+02 -0.34189857377E+02  0.24220223177E+02  0.43400727036E+02  0.00000000000E+00 0.  1.
         11    1    3    3    0    0 -0.65071843843E+00  0.10563527379E+01 -0.17862159800E+01  0.21748295063E+01  0.51100000000E-03 0. -1.
        -11    1    3    3    0    0  0.89308299168E+01  0.77302321162E+01 -0.14755764143E+02  0.18901026091E+02  0.51100000000E-03 0.  1.
         12    1    3    3    0    0  0.30361400675E+01  0.25403272523E+02 -0.76782430539E+01  0.26711417367E+02  0.00000000000E+00 0. -1.
</event>
<event>
 7    1  0.1322363E-009  0.4778727E+02  0.7816164E-02  0.1312668E+00
        -11   -1    0    0    0    0  0.00000000000E+00  0.00000000000E+00  0.45593999997E+02  0.45594000000E+02  0.51100000000E-03 0.  1.
         11   -1    0    0    0    0 -0.00000000000E+00 -0.00000000000E+00 -0.45593999997E+02  0.45594000000E+02  0.51100000000E-03 0. -1.
    9900012    2    1    2    0    0  0.29816180989E+02  0.15460609947E+02 -0.27487968076E+02  0.47787268466E+02  0.19999988246E+02 0.  0.
        -12    1    1    2    0    0 -0.29816180989E+02 -0.15460609947E+02  0.27487968076E+02  0.43400731534E+02  0.00000000000E+00 0.  1.
         11    1    3    3    0    0  0.52263074602E+01  0.11873456160E+02 -0.71379779632E+01  0.14806889630E+02  0.51100000000E-03 0. -1.
        -11    1    3    3    0    0  0.12586768520E+02  0.21606463083E+01 -0.56937747225E+01  0.13982639418E+02  0.51100000000E-03 0.  1.
        -12    1    3    3    0    0  0.12003105009E+02  0.14265074783E+01 -0.14656215390E+02  0.18997739419E+02  0.00000000000E+00 0.  1.
</event>
<event>
 7    1  0.1322363E-009  0.4778727E+02  0.7816164E-02  0.1312668E+00
        -11   -1    0    0    0    0  0.00000000000E+00  0.00000000000E+00  0.45593999997E+02  0.45594000000E+02  0.51100000000E-03 0. -1.
         11   -1    0    0    0    0 -0.00000000000E+00 -0.00000000000E+00 -0.45593999997E+02  0.45594000000E+02  0.51100000000E-03 0.  1.
    9900012    2    1    2    0    0  0.37680853601E+02 -0.18706503332E+02  0.10669721594E+02  0.47787274730E+02  0.20000016805E+02 0.  0.
        -12    1    1    2    0    0 -0.37680853601E+02  0.18706503332E+02 -0.10669721594E+02  0.43400725270E+02  0.00000000000E+00 0.  1.
         11    1    3    3    0    0  0.31701921187E+01 -0.44337036808E+01 -0.32586723799E+01  0.63503379705E+01  0.51100000000E-03 0. -1.
        -11    1    3    3    0    0  0.14968764870E+02 -0.51067505135E+00  0.36292652771E+01  0.15410914231E+02  0.51100000000E-03 0.  1.
         12    1    3    3    0    0  0.19541896613E+02 -0.13762124600E+02  0.10299128697E+02  0.26026022528E+02  0.00000000000E+00 0. -1.
</event>
<event>
 7    1  0.1322363E-009  0.4778725E+02  0.7816164E-02  0.1312668E+00
        -11   -1    0    0    0    0  0.00000000000E+00  0.00000000000E+00  0.45593999997E+02  0.45594000000E+02  0.51100000000E-03 0.  1.
         11   -1    0    0    0    0 -0.00000000000E+00 -0.00000000000E+00 -0.45593999997E+02  0.45594000000E+02  0.51100000000E-03 0. -1.
    9900012    2    1    2    0    0  0.38998781970E+02 -0.11333212143E+02 -0.15306153878E+02  0.47787250708E+02  0.19999907276E+02 0.  0.
        -12    1    1    2    0    0 -0.38998781970E+02  0.11333212143E+02  0.15306153878E+02  0.43400749292E+02  0.00000000000E+00 0.  1.
         11    1    3    3    0    0  0.59768164587E+01 -0.54553908998E+01  0.62665900628E+00  0.81164232654E+01  0.51100000000E-03 0.  1.
        -11    1    3    3    0    0  0.18924591049E+02  0.24003181302E+01 -0.41592903973E+01  0.19524378872E+02  0.51100000000E-03 0. -1.
         12    1    3    3    0    0  0.14097374462E+02 -0.82781393734E+01 -0.11773522487E+02  0.20146448570E+02  0.00000000000E+00 0. -1.
</event>
<event>
 7    1  0.1322363E-009  0.4778727E+02  0.7816164E-02  0.1312668E+00
        -11   -1    0    0    0    0  0.00000000000E+00  0.00000000000E+00  0.45593999997E+02  0.45594000000E+02  0.51100000000E-03 0.  1.
         11   -1    0    0    0    0 -0.00000000000E+00 -0.00000000000E+00 -0.45593999997E+02  0.45594000000E+02  0.51100000000E-03 0. -1.
    9900012    2    1    2    0    0 -0.26398444840E+02 -0.84835951999E+01 -0.33388228001E+02  0.47787273663E+02  0.20000011939E+02 0.  0.
        -12    1    1    2    0    0  0.26398444840E+02  0.84835951999E+01  0.33388228001E+02  0.43400726337E+02  0.00000000000E+00 0.  1.
         11    1    3    3    0    0 -0.30488665467E+01  0.17697149124E+01 -0.13381233123E+02  0.13837806121E+02  0.51100000000E-03 0. -1.
        -11    1    3    3    0    0 -0.81833977566E+01  0.10241723786E-02 -0.23489540942E+01  0.85138466917E+01  0.51100000000E-03 0.  1.
        -12    1    3    3    0    0 -0.15166180537E+02 -0.10254334285E+02 -0.17658040784E+02  0.25435620850E+02  0.00000000000E+00 0.  1.
</event>
<event>
 7    1  0.1322363E-009  0.4778727E+02  0.7816164E-02  0.1312668E+00
        -11   -1    0    0    0    0  0.00000000000E+00  0.00000000000E+00  0.45593999997E+02  0.45594000000E+02  0.51100000000E-03 0.  1.
         11   -1    0    0    0    0 -0.00000000000E+00 -0.00000000000E+00 -0.45593999997E+02  0.45594000000E+02  0.51100000000E-03 0. -1.
    9900012    2    1    2    0    0  0.41117808057E+01  0.22718090176E+02 -0.36750577346E+02  0.47787270768E+02  0.19999998738E+02 0.  0.
        -12    1    1    2    0    0 -0.41117808057E+01 -0.22718090176E+02  0.36750577346E+02  0.43400729232E+02  0.00000000000E+00 0.  1.
         11    1    3    3    0    0  0.31198356871E+01  0.23894945334E+02 -0.31997679873E+02  0.40056875874E+02  0.51100000000E-03 0. -1.
        -11    1    3    3    0    0  0.12814328815E+01  0.11525629294E+01 -0.50762815587E+01  0.53608867047E+01  0.51100000000E-03 0.  1.
        -12    1    3    3    0    0 -0.28948776286E+00 -0.23294180877E+01  0.32338408600E+00  0.23695081893E+01  0.00000000000E+00 0.  1.
</event>
<event>
 7    1  0.1322363E-009  0.4778727E+02  0.7816164E-02  0.1312668E+00
        -11   -1    0    0    0    0  0.00000000000E+00  0.00000000000E+00  0.45593999997E+02  0.45594000000E+02  0.51100000000E-03 0. -1.
         11   -1    0    0    0    0 -0.00000000000E+00 -0.00000000000E+00 -0.45593999997E+02  0.45594000000E+02  0.51100000000E-03 0.  1.
    9900012    2    1    2    0    0  0.82676314438E+01 -0.31687307720E+02  0.28481295061E+02  0.47787269953E+02  0.19999995023E+02 0.  0.
        -12    1    1    2    0    0 -0.82676314438E+01  0.31687307720E+02 -0.28481295061E+02  0.43400730047E+02  0.00000000000E+00 0.  1.
         11    1    3    3    0    0  0.30463281900E+01  0.19291709216E-01  0.86232217125E+01  0.91455147791E+01  0.51100000000E-03 0. -1.
        -11    1    3    3    0    0 -0.13870691986E+01 -0.65242425102E+01  0.16491472041E+01  0.68709088230E+01  0.51100000000E-03 0.  1.
        -12    1    3    3    0    0  0.66083724524E+01 -0.25182356919E+02  0.18208926145E+02  0.31770846351E+02  0.00000000000E+00 0.  1.
</event>
<event>
 7    1  0.1322363E-009  0.4778731E+02  0.7816164E-02  0.1312668E+00
        -11   -1    0    0    0    0  0.00000000000E+00  0.00000000000E+00  0.45593999997E+02  0.45594000000E+02  0.51100000000E-03 0. -1.
         11   -1    0    0    0    0 -0.00000000000E+00 -0.00000000000E+00 -0.45593999997E+02  0.45594000000E+02  0.51100000000E-03 0.  1.
    9900012    2    1    2    0    0 -0.13594436286E+02  0.20686330680E+02  0.35649501528E+02  0.47787309520E+02  0.20000175426E+02 0.  0.
        -12    1    1    2    0    0  0.13594436286E+02 -0.20686330680E+02 -0.35649501528E+02  0.43400690480E+02  0.00000000000E+00 0.  1.
         11    1    3    3    0    0 -0.60871366750E+01  0.21213967648E+02  0.31150197204E+02  0.38176176372E+02  0.51100000000E-03 0. -1.
        -11    1    3    3    0    0 -0.23113254203E+00 -0.11632740828E+01  0.71908717298E+00  0.13869807018E+01  0.51100000000E-03 0.  1.
         12    1    3    3    0    0 -0.72761670688E+01  0.63563711494E+00  0.37802171509E+01  0.82241524465E+01  0.00000000000E+00 0. -1.
</event>
<event>
 7    1  0.1322363E-009  0.4778727E+02  0.7816164E-02  0.1312668E+00
        -11   -1    0    0    0    0  0.00000000000E+00  0.00000000000E+00  0.45593999997E+02  0.45594000000E+02  0.51100000000E-03 0.  1.
         11   -1    0    0    0    0 -0.00000000000E+00 -0.00000000000E+00 -0.45593999997E+02  0.45594000000E+02  0.51100000000E-03 0. -1.
    9900012    2    1    2    0    0 -0.11993792537E+02  0.17156445999E+02 -0.38018790622E+02  0.47787272597E+02  0.20000007081E+02 0.  0.
        -12    1    1    2    0    0  0.11993792537E+02 -0.17156445999E+02  0.38018790622E+02  0.43400727403E+02  0.00000000000E+00 0.  1.
         11    1    3    3    0    0 -0.87190305427E+01  0.10710786215E+02 -0.20992220023E+02  0.25127987120E+02  0.51100000000E-03 0. -1.
        -11    1    3    3    0    0 -0.27303950020E+01  0.10482953721E+02 -0.13131151043E+02  0.17022764275E+02  0.51100000000E-03 0.  1.
        -12    1    3    3    0    0 -0.54436699218E+00 -0.40372939366E+01 -0.38954195555E+01  0.56365212025E+01  0.00000000000E+00 0.  1.
</event>
<event>
 7    1  0.1322363E-009  0.4778727E+02  0.7816164E-02  0.1312668E+00
        -11   -1    0    0    0    0  0.00000000000E+00  0.00000000000E+00  0.45593999997E+02  0.45594000000E+02  0.51100000000E-03 0. -1.
         11   -1    0    0    0    0 -0.00000000000E+00 -0.00000000000E+00 -0.45593999997E+02  0.45594000000E+02  0.51100000000E-03 0.  1.
    9900012    2    1    2    0    0 -0.18697959862E+02  0.15652771852E+02  0.35902652213E+02  0.47787269527E+02  0.19999993081E+02 0.  0.
        -12    1    1    2    0    0  0.18697959862E+02 -0.15652771852E+02 -0.35902652213E+02  0.43400730473E+02  0.00000000000E+00 0.  1.
         11    1    3    3    0    0 -0.97281732766E+00 -0.30061802412E+01  0.10399790681E+02  0.10869183027E+02  0.51100000000E-03 0. -1.
        -11    1    3    3    0    0 -0.81308909250E+01  0.11633834855E+02  0.17731346074E+02  0.22712510529E+02  0.51100000000E-03 0.  1.
        -12    1    3    3    0    0 -0.95942516097E+01  0.70251172382E+01  0.77715154573E+01  0.14205575971E+02  0.00000000000E+00 0.  1.
</event>
<event>
 7    1  0.1322363E-009  0.4778727E+02  0.7816164E-02  0.1312668E+00
        -11   -1    0    0    0    0  0.00000000000E+00  0.00000000000E+00  0.45593999997E+02  0.45594000000E+02  0.51100000000E-03 0.  1.
         11   -1    0    0    0    0 -0.00000000000E+00 -0.00000000000E+00 -0.45593999997E+02  0.45594000000E+02  0.51100000000E-03 0. -1.
    9900012    2    1    2    0    0 -0.20887477297E+02  0.17289368187E+02 -0.33888263436E+02  0.47787270065E+02  0.19999995535E+02 0.  0.
        -12    1    1    2    0    0  0.20887477297E+02 -0.17289368187E+02  0.33888263436E+02  0.43400729935E+02  0.00000000000E+00 0.  1.
         11    1    3    3    0    0 -0.74024594127E+01  0.13778011048E+02 -0.21113789338E+02  0.26275884272E+02  0.51100000000E-03 0. -1.
        -11    1    3    3    0    0 -0.59456868105E+01  0.49622158758E+01 -0.15272277885E+01  0.78934911811E+01  0.51100000000E-03 0.  1.
        -12    1    3    3    0    0 -0.75393310739E+01 -0.14508587368E+01 -0.11247246310E+02  0.13617894612E+02  0.00000000000E+00 0.  1.
</event>
<event>
 7    1  0.1322363E-009  0.4778727E+02  0.7816164E-02  0.1312668E+00
        -11   -1    0    0    0    0  0.00000000000E+00  0.00000000000E+00  0.45593999997E+02  0.45594000000E+02  0.51100000000E-03 0.  1.
         11   -1    0    0    0    0 -0.00000000000E+00 -0.00000000000E+00 -0.45593999997E+02  0.45594000000E+02  0.51100000000E-03 0. -1.
    9900012    2    1    2    0    0 -0.17311541688E+02  0.13061115643E+02 -0.37594432456E+02  0.47787267643E+02  0.19999984492E+02 0.  0.
        -12    1    1    2    0    0  0.17311541688E+02 -0.13061115643E+02  0.37594432456E+02  0.43400732357E+02  0.00000000000E+00 0.  1.
         11    1    3    3    0    0 -0.12517662788E+02  0.11300222394E+01 -0.23911434012E+02  0.27013432005E+02  0.51100000000E-03 0. -1.
        -11    1    3    3    0    0  0.22954916187E+01  0.89065707096E+00 -0.15949083702E+01  0.29336470067E+01  0.51100000000E-03 0.  1.
        -12    1    3    3    0    0 -0.70893705191E+01  0.11040436333E+02 -0.12088090073E+02  0.17840188631E+02  0.00000000000E+00 0.  1.
</event>
<event>
 7    1  0.1322363E-009  0.4778727E+02  0.7816164E-02  0.1312668E+00
        -11   -1    0    0    0    0  0.00000000000E+00  0.00000000000E+00  0.45593999997E+02  0.45594000000E+02  0.51100000000E-03 0.  1.
         11   -1    0    0    0    0 -0.00000000000E+00 -0.00000000000E+00 -0.45593999997E+02  0.45594000000E+02  0.51100000000E-03 0. -1.
    9900012    2    1    2    0    0 -0.11909027235E+01  0.16131602314E+02 -0.40273770668E+02  0.47787269057E+02  0.19999990940E+02 0.  0.
        -12    1    1    2    0    0  0.11909027235E+01 -0.16131602314E+02  0.40273770668E+02  0.43400730943E+02  0.00000000000E+00 0.  1.
         11    1    3    3    0    0 -0.17914742293E+01  0.47990722770E+01 -0.19365009918E+02  0.20031077955E+02  0.51100000000E-03 0.  1.
        -11    1    3    3    0    0 -0.40196284740E+00  0.16765909529E+01 -0.17320989854E+02  0.17406585568E+02  0.51100000000E-03 0. -1.
         12    1    3    3    0    0  0.10025343531E+01  0.96559390840E+01 -0.35877708963E+01  0.10349605535E+02  0.00000000000E+00 0. -1.
</event>
<event>
 7    1  0.1322363E-009  0.4778727E+02  0.7816164E-02  0.1312668E+00
        -11   -1    0    0    0    0  0.00000000000E+00  0.00000000000E+00  0.45593999997E+02  0.45594000000E+02  0.51100000000E-03 0. -1.
         11   -1    0    0    0    0 -0.00000000000E+00 -0.00000000000E+00 -0.45593999997E+02  0.45594000000E+02  0.51100000000E-03 0.  1.
    9900012    2    1    2    0    0 -0.24068407630E+02  0.34099887564E+02  0.11896770117E+02  0.47787265940E+02  0.19999976727E+02 0.  0.
        -12    1    1    2    0    0  0.24068407630E+02 -0.34099887564E+02 -0.11896770117E+02  0.43400734060E+02  0.00000000000E+00 0.  1.
         11    1    3    3    0    0 -0.64273800994E+01  0.37020730097E+01 -0.11808481840E+01  0.75107231480E+01  0.51100000000E-03 0. -1.
        -11    1    3    3    0    0 -0.38403070669E+01  0.96035787362E+01  0.11205498685E+02  0.15249258472E+02  0.51100000000E-03 0.  1.
        -12    1    3    3    0    0 -0.13800720464E+02  0.20794235818E+02  0.18721196161E+01  0.25027284320E+02  0.00000000000E+00 0.  1.
</event>
<event>
 7    1  0.1322363E-009  0.4778726E+02  0.7816164E-02  0.1312668E+00
        -11   -1    0    0    0    0  0.00000000000E+00  0.00000000000E+00  0.45593999997E+02  0.45594000000E+02  0.51100000000E-03 0.  1.
         11   -1    0    0    0    0 -0.00000000000E+00 -0.00000000000E+00 -0.45593999997E+02  0.45594000000E+02  0.51100000000E-03 0. -1.
    9900012    2    1    2    0    0 -0.33409575784E+02  0.15937223947E+02 -0.22658972567E+02  0.47787263843E+02  0.19999967164E+02 0.  0.
        -12    1    1    2    0    0  0.33409575784E+02 -0.15937223947E+02  0.22658972567E+02  0.43400736157E+02  0.00000000000E+00 0.  1.
         11    1    3    3    0    0 -0.19720431927E+01  0.37526928446E+01 -0.48182770545E+00  0.42665930364E+01  0.51100000000E-03 0. -1.
        -11    1    3    3    0    0 -0.25731904678E+02  0.20848024782E+01 -0.16101941376E+02  0.30426137383E+02  0.51100000000E-03 0.  1.
        -12    1    3    3    0    0 -0.57056279139E+01  0.10099728624E+02 -0.60752034856E+01  0.13094533423E+02  0.00000000000E+00 0.  1.
</event>
<event>
 7    1  0.1322363E-009  0.4778727E+02  0.7816164E-02  0.1312668E+00
        -11   -1    0    0    0    0  0.00000000000E+00  0.00000000000E+00  0.45593999997E+02  0.45594000000E+02  0.51100000000E-03 0.  1.
         11   -1    0    0    0    0 -0.00000000000E+00 -0.00000000000E+00 -0.45593999997E+02  0.45594000000E+02  0.51100000000E-03 0. -1.
    9900012    2    1    2    0    0 -0.58858813782E+00  0.12905667394E+02 -0.41433323644E+02  0.47787274256E+02  0.20000014644E+02 0.  0.
        -12    1    1    2    0    0  0.58858813782E+00 -0.12905667394E+02  0.41433323644E+02  0.43400725744E+02  0.00000000000E+00 0.  1.
         11    1    3    3    0    0  0.71554330337E+01  0.40191312182E+01 -0.24628243488E+02  0.25959661308E+02  0.51100000000E-03 0. -1.
        -11    1    3    3    0    0 -0.49413913181E+00  0.45286937052E+01 -0.24678873062E+01  0.51810914077E+01  0.51100000000E-03 0.  1.
         12    1    3    3    0    0 -0.72498820398E+01  0.43578424706E+01 -0.14337192850E+02  0.16646521540E+02  0.00000000000E+00 0. -1.
</event>
<event>
 7    1  0.1322363E-009  0.4778727E+02  0.7816164E-02  0.1312668E+00
        -11   -1    0    0    0    0  0.00000000000E+00  0.00000000000E+00  0.45593999997E+02  0.45594000000E+02  0.51100000000E-03 0. -1.
         11   -1    0    0    0    0 -0.00000000000E+00 -0.00000000000E+00 -0.45593999997E+02  0.45594000000E+02  0.51100000000E-03 0.  1.
    9900012    2    1    2    0    0  0.30450328794E+02 -0.30811425480E+02  0.26564848620E+01  0.47787269872E+02  0.19999994656E+02 0.  0.
        -12    1    1    2    0    0 -0.30450328794E+02  0.30811425480E+02 -0.26564848620E+01  0.43400730128E+02  0.00000000000E+00 0.  1.
         11    1    3    3    0    0  0.41544833186E+01 -0.99206869186E+01  0.31071625558E+01  0.11195276682E+02  0.51100000000E-03 0. -1.
        -11    1    3    3    0    0  0.16666706300E+02 -0.15725640822E+02 -0.68658895006E+01  0.23921022492E+02  0.51100000000E-03 0.  1.
         12    1    3    3    0    0  0.96291391747E+01 -0.51650977395E+01  0.64152118068E+01  0.12670970698E+02  0.00000000000E+00 0. -1.
</event>
<event>
 7    1  0.1322363E-009  0.4778726E+02  0.7816164E-02  0.1312668E+00
        -11   -1    0    0    0    0  0.00000000000E+00  0.00000000000E+00  0.45593999997E+02  0.45594000000E+02  0.51100000000E-03 0.  1.
         11   -1    0    0    0    0 -0.00000000000E+00 -0.00000000000E+00 -0.45593999997E+02  0.45594000000E+02  0.51100000000E-03 0. -1.
    9900012    2    1    2    0    0  0.35216037760E+02 -0.16590575402E+01 -0.25312099030E+02  0.47787261011E+02  0.19999954256E+02 0.  0.
        -12    1    1    2    0    0 -0.35216037760E+02  0.16590575402E+01  0.25312099030E+02  0.43400738989E+02  0.00000000000E+00 0.  1.
         11    1    3    3    0    0  0.14909230850E+02 -0.92652068905E+01 -0.81129991156E+01  0.19337786279E+02  0.51100000000E-03 0. -1.
        -11    1    3    3    0    0  0.87611076905E+01  0.34424194820E+01 -0.34657719021E+01  0.10030894028E+02  0.51100000000E-03 0.  1.
        -12    1    3    3    0    0  0.11545699220E+02  0.41637298684E+01 -0.13733328012E+02  0.18418580705E+02  0.00000000000E+00 0.  1.
</event>
<event>
 7    1  0.1322363E-009  0.4778727E+02  0.7816164E-02  0.1312668E+00
        -11   -1    0    0    0    0  0.00000000000E+00  0.00000000000E+00  0.45593999997E+02  0.45594000000E+02  0.51100000000E-03 0.  1.
         11   -1    0    0    0    0 -0.00000000000E+00 -0.00000000000E+00 -0.45593999997E+02  0.45594000000E+02  0.51100000000E-03 0. -1.
    9900012    2    1    2    0    0  0.14749049667E+01 -0.21412493802E+02 -0.37722051192E+02  0.47787269803E+02  0.19999994340E+02 0.  0.
        -12    1    1    2    0    0 -0.14749049667E+01  0.21412493802E+02  0.37722051192E+02  0.43400730197E+02  0.00000000000E+00 0.  1.
         11    1    3    3    0    0  0.75564009136E+00 -0.13350870747E+01  0.10302599412E+01  0.18479408141E+01  0.51100000000E-03 0. -1.
        -11    1    3    3    0    0  0.47485263888E+01 -0.67078518293E+00 -0.63835985888E+01  0.79842837394E+01  0.51100000000E-03 0.  1.
         12    1    3    3    0    0 -0.40292615135E+01 -0.19406621545E+02 -0.32368712544E+02  0.37955045250E+02  0.00000000000E+00 0. -1.
</event>
<event>
 7    1  0.1322363E-009  0.4778727E+02  0.7816164E-02  0.1312668E+00
        -11   -1    0    0    0    0  0.00000000000E+00  0.00000000000E+00  0.45593999997E+02  0.45594000000E+02  0.51100000000E-03 0.  1.
         11   -1    0    0    0    0 -0.00000000000E+00 -0.00000000000E+00 -0.45593999997E+02  0.45594000000E+02  0.51100000000E-03 0. -1.
    9900012    2    1    2    0    0  0.10381298554E+02  0.68873208727E+00 -0.42135228521E+02  0.47787271964E+02  0.20000004192E+02 0.  0.
        -12    1    1    2    0    0 -0.10381298554E+02 -0.68873208727E+00  0.42135228521E+02  0.43400728036E+02  0.00000000000E+00 0.  1.
         11    1    3    3    0    0  0.84867754839E+01  0.12264102053E+01 -0.34520983209E+02  0.35570039669E+02  0.51100000000E-03 0. -1.
        -11    1    3    3    0    0  0.50633654112E+01 -0.26264106361E+01 -0.39222802054E+01  0.69224261923E+01  0.51100000000E-03 0.  1.
        -12    1    3    3    0    0 -0.31688423408E+01  0.20887325181E+01 -0.36919651064E+01  0.52948061022E+01  0.00000000000E+00 0.  1.
</event>
<event>
 7    1  0.1322363E-009  0.4778728E+02  0.7816164E-02  0.1312668E+00
        -11   -1    0    0    0    0  0.00000000000E+00  0.00000000000E+00  0.45593999997E+02  0.45594000000E+02  0.51100000000E-03 0.  1.
         11   -1    0    0    0    0 -0.00000000000E+00 -0.00000000000E+00 -0.45593999997E+02  0.45594000000E+02  0.51100000000E-03 0. -1.
    9900012    2    1    2    0    0  0.23896567890E+02  0.20473093562E+02 -0.29890285588E+02  0.47787277777E+02  0.20000030698E+02 0.  0.
        -12    1    1    2    0    0 -0.23896567890E+02 -0.20473093562E+02  0.29890285588E+02  0.43400722223E+02  0.00000000000E+00 0.  1.
         11    1    3    3    0    0  0.77044680419E+01  0.91210199270E+00 -0.12262535787E+02  0.14510704395E+02  0.51100000000E-03 0. -1.
        -11    1    3    3    0    0  0.66130323107E+00  0.96906101050E+01 -0.75004142630E+01  0.12271978673E+02  0.51100000000E-03 0.  1.
         12    1    3    3    0    0  0.15530796617E+02  0.98703814640E+01 -0.10127335538E+02  0.21004594710E+02  0.00000000000E+00 0. -1.
</event>
<event>
 7    1  0.1322363E-009  0.4778727E+02  0.7816164E-02  0.1312668E+00
        -11   -1    0    0    0    0  0.00000000000E+00  0.00000000000E+00  0.45593999997E+02  0.45594000000E+02  0.51100000000E-03 0.  1.
         11   -1    0    0    0    0 -0.00000000000E+00 -0.00000000000E+00 -0.45593999997E+02  0.45594000000E+02  0.51100000000E-03 0. -1.
    9900012    2    1    2    0    0 -0.59217210177E+01  0.60403442093E+01 -0.42568426292E+02  0.47787268958E+02  0.19999990487E+02 0.  0.
        -12    1    1    2    0    0  0.59217210177E+01 -0.60403442093E+01  0.42568426292E+02  0.43400731042E+02  0.00000000000E+00 0.  1.
         11    1    3    3    0    0 -0.28615286574E+01 -0.19182828885E+01 -0.80862209902E+01  0.87894894995E+01  0.51100000000E-03 0. -1.
        -11    1    3    3    0    0 -0.85970125509E+01  0.95780853224E+00 -0.22110642618E+02  0.23742504907E+02  0.51100000000E-03 0.  1.
         12    1    3    3    0    0  0.55368201906E+01  0.70008185655E+01 -0.12371562684E+02  0.15255274552E+02  0.00000000000E+00 0. -1.
</event>
<event>
 7    1  0.1322363E-009  0.4778726E+02  0.7816164E-02  0.1312668E+00
        -11   -1    0    0    0    0  0.00000000000E+00  0.00000000000E+00  0.45593999997E+02  0.45594000000E+02  0.51100000000E-03 0.  1.
         11   -1    0    0    0    0 -0.00000000000E+00 -0.00000000000E+00 -0.45593999997E+02  0.45594000000E+02  0.51100000000E-03 0. -1.
    9900012    2    1    2    0    0 -0.11061829424E+02  0.33285859697E+02 -0.25559958358E+02  0.47787262711E+02  0.19999962004E+02 0.  0.
        -12    1    1    2    0    0  0.11061829424E+02 -0.33285859697E+02  0.25559958358E+02  0.43400737289E+02  0.00000000000E+00 0.  1.
         11    1    3    3    0    0  0.21121498914E+01  0.18068055469E+01 -0.16046798924E+01  0.32094736743E+01  0.51100000000E-03 0. -1.
        -11    1    3    3    0    0  0.46072941633E+00 -0.16669580216E+01 -0.78226995120E+00  0.18981483552E+01  0.51100000000E-03 0.  1.
        -12    1    3    3    0    0 -0.13634708731E+02  0.33146012172E+02 -0.23173008515E+02  0.42679640681E+02  0.00000000000E+00 0.  1.
</event>
<event>
 7    1  0.1322363E-009  0.4778727E+02  0.7816164E-02  0.1312668E+00
        -11   -1    0    0    0    0  0.00000000000E+00  0.00000000000E+00  0.45593999997E+02  0.45594000000E+02  0.51100000000E-03 0.  1.
         11   -1    0    0    0    0 -0.00000000000E+00 -0.00000000000E+00 -0.45593999997E+02  0.45594000000E+02  0.51100000000E-03 0. -1.
    9900012    2    1    2    0    0 -0.17037749858E+02  0.27260416077E+02 -0.29158324835E+02  0.47787272908E+02  0.20000008498E+02 0.  0.
        -12    1    1    2    0    0  0.17037749858E+02 -0.27260416077E+02  0.29158324835E+02  0.43400727092E+02  0.00000000000E+00 0.  1.
         11    1    3    3    0    0  0.26812468921E+01  0.20927280681E+01 -0.12527880329E+01  0.36246480905E+01  0.51100000000E-03 0. -1.
        -11    1    3    3    0    0 -0.95545509892E+01  0.48180427973E+01 -0.47634232061E+01  0.11712949326E+02  0.51100000000E-03 0.  1.
         12    1    3    3    0    0 -0.10164445761E+02  0.20349645212E+02 -0.23142113596E+02  0.32449675492E+02  0.00000000000E+00 0. -1.
</event>
<event>
 7    1  0.1322363E-009  0.4778727E+02  0.7816164E-02  0.1312668E+00
        -11   -1    0    0    0    0  0.00000000000E+00  0.00000000000E+00  0.45593999997E+02  0.45594000000E+02  0.51100000000E-03 0. -1.
         11   -1    0    0    0    0 -0.00000000000E+00 -0.00000000000E+00 -0.45593999997E+02  0.45594000000E+02  0.51100000000E-03 0.  1.
    9900012    2    1    2    0    0  0.37115171865E+02  0.22078883341E+02  0.43139431380E+01  0.47787272154E+02  0.20000005059E+02 0.  0.
        -12    1    1    2    0    0 -0.37115171865E+02 -0.22078883341E+02 -0.43139431380E+01  0.43400727846E+02  0.00000000000E+00 0.  1.
         11    1    3    3    0    0  0.12272753174E+02  0.28485138349E+01 -0.18380194396E+01  0.12732353171E+02  0.51100000000E-03 0. -1.
        -11    1    3    3    0    0  0.21642704795E+02  0.20585314385E+02  0.24372430992E+01  0.29968349860E+02  0.51100000000E-03 0.  1.
        -12    1    3    3    0    0  0.31997138957E+01 -0.13549448787E+01  0.37147194784E+01  0.50865691229E+01  0.00000000000E+00 0.  1.
</event>
<event>
 7    1  0.1322363E-009  0.4778727E+02  0.7816164E-02  0.1312668E+00
        -11   -1    0    0    0    0  0.00000000000E+00  0.00000000000E+00  0.45593999997E+02  0.45594000000E+02  0.51100000000E-03 0.  1.
         11   -1    0    0    0    0 -0.00000000000E+00 -0.00000000000E+00 -0.45593999997E+02  0.45594000000E+02  0.51100000000E-03 0. -1.
    9900012    2    1    2    0    0 -0.33380590385E+02 -0.27733218386E+02 -0.47760534034E+00  0.47787270475E+02  0.19999997403E+02 0.  0.
        -12    1    1    2    0    0  0.33380590385E+02  0.27733218386E+02  0.47760534034E+00  0.43400729525E+02  0.00000000000E+00 0.  1.
         11    1    3    3    0    0 -0.14688938196E+02 -0.52849127505E+01  0.41816651850E+01  0.16161111722E+02  0.51100000000E-03 0.  1.
        -11    1    3    3    0    0 -0.11457162266E+02 -0.75075380964E+01  0.17960614768E+01  0.13815047324E+02  0.51100000000E-03 0. -1.
        -12    1    3    3    0    0 -0.72344899222E+01 -0.14940767539E+02 -0.64553320022E+01  0.17811111429E+02  0.00000000000E+00 0.  1.
</event>
<event>
 7    1  0.1322363E-009  0.4778726E+02  0.7816164E-02  0.1312668E+00
        -11   -1    0    0    0    0  0.00000000000E+00  0.00000000000E+00  0.45593999997E+02  0.45594000000E+02  0.51100000000E-03 0. -1.
         11   -1    0    0    0    0 -0.00000000000E+00 -0.00000000000E+00 -0.45593999997E+02  0.45594000000E+02  0.51100000000E-03 0.  1.
    9900012    2    1    2    0    0  0.89128995983E+00  0.12277408434E+02  0.41618447087E+02  0.47787259297E+02  0.19999946437E+02 0.  0.
        -12    1    1    2    0    0 -0.89128995983E+00 -0.12277408434E+02 -0.41618447087E+02  0.43400740703E+02  0.00000000000E+00 0.  1.
         11    1    3    3    0    0 -0.15150832943E+01 -0.99995517573E-01  0.11974576473E+02  0.12070458088E+02  0.51100000000E-03 0. -1.
        -11    1    3    3    0    0  0.38888038528E+01  0.15127206204E+02  0.18851001362E+02  0.24480919419E+02  0.51100000000E-03 0.  1.
        -12    1    3    3    0    0 -0.14824305987E+01 -0.27498022525E+01  0.10792869252E+02  0.11235881790E+02  0.00000000000E+00 0.  1.
</event>
<event>
 7    1  0.1322363E-009  0.4778726E+02  0.7816164E-02  0.1312668E+00
        -11   -1    0    0    0    0  0.00000000000E+00  0.00000000000E+00  0.45593999997E+02  0.45594000000E+02  0.51100000000E-03 0.  1.
         11   -1    0    0    0    0 -0.00000000000E+00 -0.00000000000E+00 -0.45593999997E+02  0.45594000000E+02  0.51100000000E-03 0. -1.
    9900012    2    1    2    0    0  0.16193007042E+02  0.24176831054E+01 -0.40194097110E+02  0.47787261398E+02  0.19999956019E+02 0.  0.
        -12    1    1    2    0    0 -0.16193007042E+02 -0.24176831054E+01  0.40194097110E+02  0.43400738602E+02  0.00000000000E+00 0.  1.
         11    1    3    3    0    0  0.17068997381E+02  0.50444776954E+01 -0.22529440279E+02  0.28711898341E+02  0.51100000000E-03 0. -1.
        -11    1    3    3    0    0  0.63207699843E+00  0.11733709496E+01 -0.12084255773E+02  0.12157530940E+02  0.51100000000E-03 0.  1.
         12    1    3    3    0    0 -0.15080673373E+01 -0.38001655396E+01 -0.55804010587E+01  0.69178321169E+01  0.00000000000E+00 0. -1.
</event>
<event>
 7    1  0.1322363E-009  0.4778727E+02  0.7816164E-02  0.1312668E+00
        -11   -1    0    0    0    0  0.00000000000E+00  0.00000000000E+00  0.45593999997E+02  0.45594000000E+02  0.51100000000E-03 0.  1.
         11   -1    0    0    0    0 -0.00000000000E+00 -0.00000000000E+00 -0.45593999997E+02  0.45594000000E+02  0.51100000000E-03 0. -1.
    9900012    2    1    2    0    0 -0.93246822669E+01  0.32784936654E+02 -0.26866735624E+02  0.47787271274E+02  0.20000001049E+02 0.  0.
        -12    1    1    2    0    0  0.93246822669E+01 -0.32784936654E+02  0.26866735624E+02  0.43400728726E+02  0.00000000000E+00 0.  1.
         11    1    3    3    0    0 -0.30867928290E+01  0.92249326813E+01 -0.98948554066E+00  0.97778706700E+01  0.51100000000E-03 0. -1.
        -11    1    3    3    0    0  0.11026330637E+01  0.69356327013E+01 -0.84101104919E+00  0.70729131542E+01  0.51100000000E-03 0.  1.
         12    1    3    3    0    0 -0.73405225016E+01  0.16624371272E+02 -0.25036239034E+02  0.30936487450E+02  0.00000000000E+00 0. -1.
</event>
<event>
 7    1  0.1322363E-009  0.4778727E+02  0.7816164E-02  0.1312668E+00
        -11   -1    0    0    0    0  0.00000000000E+00  0.00000000000E+00  0.45593999997E+02  0.45594000000E+02  0.51100000000E-03 0.  1.
         11   -1    0    0    0    0 -0.00000000000E+00 -0.00000000000E+00 -0.45593999997E+02  0.45594000000E+02  0.51100000000E-03 0. -1.
    9900012    2    1    2    0    0 -0.41516597794E+02 -0.49088232626E+01 -0.11657563818E+02  0.47787271522E+02  0.20000002179E+02 0.  0.
        -12    1    1    2    0    0  0.41516597794E+02  0.49088232626E+01  0.11657563818E+02  0.43400728478E+02  0.00000000000E+00 0.  1.
         11    1    3    3    0    0 -0.81394388643E+01  0.22746934359E+00  0.21444038466E+00  0.81454399677E+01  0.51100000000E-03 0.  1.
        -11    1    3    3    0    0 -0.18800956275E+02 -0.50563041485E+01  0.19342598597E+01  0.19564854458E+02  0.51100000000E-03 0. -1.
        -12    1    3    3    0    0 -0.14576202655E+02 -0.79988457694E-01 -0.13806264062E+02  0.20076977097E+02  0.00000000000E+00 0.  1.
</event>
<event>
 7    1  0.1322363E-009  0.4778727E+02  0.7816164E-02  0.1312668E+00
        -11   -1    0    0    0    0  0.00000000000E+00  0.00000000000E+00  0.45593999997E+02  0.45594000000E+02  0.51100000000E-03 0. -1.
         11   -1    0    0    0    0 -0.00000000000E+00 -0.00000000000E+00 -0.45593999997E+02  0.45594000000E+02  0.51100000000E-03 0.  1.
    9900012    2    1    2    0    0 -0.75682580843E+01 -0.39623180992E+02 -0.16010872180E+02  0.47787273851E+02  0.20000012795E+02 0.  0.
        -12    1    1    2    0    0  0.75682580843E+01  0.39623180992E+02  0.16010872180E+02  0.43400726149E+02  0.00000000000E+00 0.  1.
         11    1    3    3    0    0 -0.79315730276E+01 -0.99050098764E+01 -0.50164884495E+01  0.13644934150E+02  0.51100000000E-03 0. -1.
        -11    1    3    3    0    0 -0.26745960997E+01 -0.42902136945E+01  0.19859858709E+01  0.54317159334E+01  0.51100000000E-03 0.  1.
        -12    1    3    3    0    0  0.30379110430E+01 -0.25427957421E+02 -0.12980369602E+02  0.28710623767E+02  0.00000000000E+00 0.  1.
</event>
<event>
 7    1  0.1322363E-009  0.4778727E+02  0.7816164E-02  0.1312668E+00
        -11   -1    0    0    0    0  0.00000000000E+00  0.00000000000E+00  0.45593999997E+02  0.45594000000E+02  0.51100000000E-03 0.  1.
         11   -1    0    0    0    0 -0.00000000000E+00 -0.00000000000E+00 -0.45593999997E+02  0.45594000000E+02  0.51100000000E-03 0. -1.
    9900012    2    1    2    0    0 -0.11695105654E+02  0.26216592810E+02 -0.32550548258E+02  0.47787269284E+02  0.19999991972E+02 0.  0.
        -12    1    1    2    0    0  0.11695105654E+02 -0.26216592810E+02  0.32550548258E+02  0.43400730716E+02  0.00000000000E+00 0.  1.
         11    1    3    3    0    0 -0.84497287446E+01  0.22403461246E+02 -0.25766153246E+02  0.35173962600E+02  0.51100000000E-03 0. -1.
        -11    1    3    3    0    0 -0.61123904378E+01  0.41573767530E+01 -0.33207379326E+01  0.81038508752E+01  0.51100000000E-03 0.  1.
        -12    1    3    3    0    0  0.28670135287E+01 -0.34424518853E+00 -0.34636570793E+01  0.45094558082E+01  0.00000000000E+00 0.  1.
</event>
<event>
 7    1  0.1322363E-009  0.4778728E+02  0.7816164E-02  0.1312668E+00
        -11   -1    0    0    0    0  0.00000000000E+00  0.00000000000E+00  0.45593999997E+02  0.45594000000E+02  0.51100000000E-03 0.  1.
         11   -1    0    0    0    0 -0.00000000000E+00 -0.00000000000E+00 -0.45593999997E+02  0.45594000000E+02  0.51100000000E-03 0. -1.
    9900012    2    1    2    0    0  0.38015518755E+02  0.13537599475E+02 -0.15974249093E+02  0.47787275353E+02  0.20000019647E+02 0.  0.
        -12    1    1    2    0    0 -0.38015518755E+02 -0.13537599475E+02  0.15974249093E+02  0.43400724647E+02  0.00000000000E+00 0.  1.
         11    1    3    3    0    0  0.20852477249E+02  0.12410405865E+02 -0.17071195345E+02  0.29669339257E+02  0.51100000000E-03 0. -1.
        -11    1    3    3    0    0  0.89572623019E+01 -0.16311924492E+01 -0.11424880545E+01  0.91759803818E+01  0.51100000000E-03 0.  1.
        -12    1    3    3    0    0  0.82057792036E+01  0.27583860596E+01  0.22394343065E+01  0.89419557148E+01  0.00000000000E+00 0.  1.
</event>
<event>
 7    1  0.1322363E-009  0.4778727E+02  0.7816164E-02  0.1312668E+00
        -11   -1    0    0    0    0  0.00000000000E+00  0.00000000000E+00  0.45593999997E+02  0.45594000000E+02  0.51100000000E-03 0. -1.
         11   -1    0    0    0    0 -0.00000000000E+00 -0.00000000000E+00 -0.45593999997E+02  0.45594000000E+02  0.51100000000E-03 0.  1.
    9900012    2    1    2    0    0  0.13479015138E+02 -0.38205801191E+02 -0.15564582010E+02  0.47787270664E+02  0.19999998266E+02 0.  0.
        -12    1    1    2    0    0 -0.13479015138E+02  0.38205801191E+02  0.15564582010E+02  0.43400729336E+02  0.00000000000E+00 0.  1.
         11    1    3    3    0    0  0.64307647021E+00 -0.10894569788E+01  0.23907014117E+01  0.27047952522E+01  0.51100000000E-03 0. -1.
        -11    1    3    3    0    0  0.19647839716E+01 -0.14434268396E+02 -0.12832417876E+02  0.19413382729E+02  0.51100000000E-03 0.  1.
         12    1    3    3    0    0  0.10871154696E+02 -0.22682075817E+02 -0.51228655456E+01  0.25669092683E+02  0.00000000000E+00 0. -1.
</event>
<event>
 7    1  0.1322363E-009  0.4778728E+02  0.7816164E-02  0.1312668E+00
        -11   -1    0    0    0    0  0.00000000000E+00  0.00000000000E+00  0.45593999997E+02  0.45594000000E+02  0.51100000000E-03 0.  1.
         11   -1    0    0    0    0 -0.00000000000E+00 -0.00000000000E+00 -0.45593999997E+02  0.45594000000E+02  0.51100000000E-03 0. -1.
    9900012    2    1    2    0    0 -0.13477888973E+02 -0.10943678403E+02 -0.39776938311E+02  0.47787281002E+02  0.20000045399E+02 0.  0.
        -12    1    1    2    0    0  0.13477888973E+02  0.10943678403E+02  0.39776938311E+02  0.43400718998E+02  0.00000000000E+00 0.  1.
         11    1    3    3    0    0 -0.13050394583E+02 -0.74469403857E+01 -0.25235433537E+02  0.29369998739E+02  0.51100000000E-03 0. -1.
        -11    1    3    3    0    0 -0.12819264343E+01 -0.59874623757E+01 -0.34722641251E+01  0.70391519020E+01  0.51100000000E-03 0.  1.
         12    1    3    3    0    0  0.85443204472E+00  0.24907243581E+01 -0.11069240650E+02  0.11378130361E+02  0.00000000000E+00 0. -1.
</event>
<event>
 7    1  0.1322363E-009  0.4778727E+02  0.7816164E-02  0.1312668E+00
        -11   -1    0    0    0    0  0.00000000000E+00  0.00000000000E+00  0.45593999997E+02  0.45594000000E+02  0.51100000000E-03 0.  1.
         11   -1    0    0    0    0 -0.00000000000E+00 -0.00000000000E+00 -0.45593999997E+02  0.45594000000E+02  0.51100000000E-03 0. -1.
    9900012    2    1    2    0    0  0.33222738275E+02  0.27886219427E+02 -0.14939199512E+01  0.47787269945E+02  0.19999994989E+02 0.  0.
        -12    1    1    2    0    0 -0.33222738275E+02 -0.27886219427E+02  0.14939199512E+01  0.43400730055E+02  0.00000000000E+00 0.  1.
         11    1    3    3    0    0  0.26960370199E+02  0.25791379347E+02 -0.63296992548E+01  0.37843386514E+02  0.51100000000E-03 0. -1.
        -11    1    3    3    0    0  0.30564080816E+01  0.33931263644E+01  0.45923493254E+01  0.64764658166E+01  0.51100000000E-03 0.  1.
        -12    1    3    3    0    0  0.32059599945E+01 -0.12982862843E+01  0.24342997818E+00  0.34674176149E+01  0.00000000000E+00 0.  1.
</event>
<event>
 7    1  0.1322363E-009  0.4778727E+02  0.7816164E-02  0.1312668E+00
        -11   -1    0    0    0    0  0.00000000000E+00  0.00000000000E+00  0.45593999997E+02  0.45594000000E+02  0.51100000000E-03 0.  1.
         11   -1    0    0    0    0 -0.00000000000E+00 -0.00000000000E+00 -0.45593999997E+02  0.45594000000E+02  0.51100000000E-03 0. -1.
    9900012    2    1    2    0    0  0.27977823241E+02  0.64318813812E+01 -0.32549900938E+02  0.47787265646E+02  0.19999975388E+02 0.  0.
        -12    1    1    2    0    0 -0.27977823241E+02 -0.64318813812E+01  0.32549900938E+02  0.43400734354E+02  0.00000000000E+00 0.  1.
         11    1    3    3    0    0  0.16207932913E+02  0.76743869726E+01 -0.18023506249E+02  0.25425185987E+02  0.51100000000E-03 0. -1.
        -11    1    3    3    0    0 -0.18550128500E+01  0.14882523921E+01 -0.49329529398E+01  0.54763119728E+01  0.51100000000E-03 0.  1.
         12    1    3    3    0    0  0.13624903178E+02 -0.27307579835E+01 -0.95934417485E+01  0.16885767686E+02  0.00000000000E+00 0. -1.
</event>
<event>
 7    1  0.1322363E-009  0.4778727E+02  0.7816164E-02  0.1312668E+00
        -11   -1    0    0    0    0  0.00000000000E+00  0.00000000000E+00  0.45593999997E+02  0.45594000000E+02  0.51100000000E-03 0.  1.
         11   -1    0    0    0    0 -0.00000000000E+00 -0.00000000000E+00 -0.45593999997E+02  0.45594000000E+02  0.51100000000E-03 0. -1.
    9900012    2    1    2    0    0 -0.18782210556E+02 -0.34461960662E+02 -0.18526334146E+02  0.47787271631E+02  0.20000002676E+02 0.  0.
        -12    1    1    2    0    0  0.18782210556E+02  0.34461960662E+02  0.18526334146E+02  0.43400728369E+02  0.00000000000E+00 0.  1.
         11    1    3    3    0    0  0.15346409259E+01 -0.16773800988E+01 -0.72058343823E+01  0.75559761893E+01  0.51100000000E-03 0. -1.
        -11    1    3    3    0    0 -0.52540897419E+01 -0.96953638078E+01 -0.28184083269E+01  0.11381957834E+02  0.51100000000E-03 0.  1.
         12    1    3    3    0    0 -0.15062761740E+02 -0.23089216755E+02 -0.85020914369E+01  0.28849337608E+02  0.00000000000E+00 0. -1.
</event>
<event>
 7    1  0.1322363E-009  0.4778727E+02  0.7816164E-02  0.1312668E+00
        -11   -1    0    0    0    0  0.00000000000E+00  0.00000000000E+00  0.45593999997E+02  0.45594000000E+02  0.51100000000E-03 0.  1.
         11   -1    0    0    0    0 -0.00000000000E+00 -0.00000000000E+00 -0.45593999997E+02  0.45594000000E+02  0.51100000000E-03 0. -1.
    9900012    2    1    2    0    0  0.29808871281E+02 -0.19031606320E+02 -0.25156567968E+02  0.47787265466E+02  0.19999974565E+02 0.  0.
        -12    1    1    2    0    0 -0.29808871281E+02  0.19031606320E+02  0.25156567968E+02  0.43400734534E+02  0.00000000000E+00 0.  1.
         11    1    3    3    0    0  0.12139235591E+02 -0.10961028751E+02 -0.86244367193E+01  0.18490162276E+02  0.51100000000E-03 0. -1.
        -11    1    3    3    0    0  0.11123392806E+02 -0.11165656584E+02 -0.67961919895E+01  0.17163623752E+02  0.51100000000E-03 0.  1.
        -12    1    3    3    0    0  0.65462428839E+01  0.30950790153E+01 -0.97359392592E+01  0.12133479438E+02  0.00000000000E+00 0.  1.
</event>
<event>
 7    1  0.1322363E-009  0.4778726E+02  0.7816164E-02  0.1312668E+00
        -11   -1    0    0    0    0  0.00000000000E+00  0.00000000000E+00  0.45593999997E+02  0.45594000000E+02  0.51100000000E-03 0. -1.
         11   -1    0    0    0    0 -0.00000000000E+00 -0.00000000000E+00 -0.45593999997E+02  0.45594000000E+02  0.51100000000E-03 0.  1.
    9900012    2    1    2    0    0  0.20561634589E+02 -0.36535339880E+02 -0.11225532776E+02  0.47787257342E+02  0.19999937525E+02 0.  0.
        -12    1    1    2    0    0 -0.20561634589E+02  0.36535339880E+02  0.11225532776E+02  0.43400742658E+02  0.00000000000E+00 0.  1.
         11    1    3    3    0    0  0.30283874115E+00 -0.11836366449E+01 -0.20711143728E+01  0.24046251301E+01  0.51100000000E-03 0. -1.
        -11    1    3    3    0    0  0.13705955959E+02 -0.22779513573E+02 -0.14438168933E+02  0.30252606330E+02  0.51100000000E-03 0.  1.
         12    1    3    3    0    0  0.65528398897E+01 -0.12572189662E+02  0.52837505295E+01  0.15130025882E+02  0.00000000000E+00 0. -1.
</event>
<event>
 7    1  0.1322363E-009  0.4778727E+02  0.7816164E-02  0.1312668E+00
        -11   -1    0    0    0    0  0.00000000000E+00  0.00000000000E+00  0.45593999997E+02  0.45594000000E+02  0.51100000000E-03 0.  1.
         11   -1    0    0    0    0 -0.00000000000E+00 -0.00000000000E+00 -0.45593999997E+02  0.45594000000E+02  0.51100000000E-03 0. -1.
    9900012    2    1    2    0    0 -0.41037664433E+02 -0.27068558894E+01 -0.13863853340E+02  0.47787269587E+02  0.19999993356E+02 0.  0.
        -12    1    1    2    0    0  0.41037664433E+02  0.27068558894E+01  0.13863853340E+02  0.43400730413E+02  0.00000000000E+00 0.  1.
         11    1    3    3    0    0 -0.79172145867E+01 -0.21344182314E-01 -0.41309059567E+01  0.89301246727E+01  0.51100000000E-03 0. -1.
        -11    1    3    3    0    0 -0.25030720994E+02 -0.13674313137E+01  0.13129496823E+01  0.25102404248E+02  0.51100000000E-03 0.  1.
        -12    1    3    3    0    0 -0.80897288524E+01 -0.13180803934E+01 -0.11045897066E+02  0.13754740667E+02  0.00000000000E+00 0.  1.
</event>
<event>
 7    1  0.1322363E-009  0.4778727E+02  0.7816164E-02  0.1312668E+00
        -11   -1    0    0    0    0  0.00000000000E+00  0.00000000000E+00  0.45593999997E+02  0.45594000000E+02  0.51100000000E-03 0.  1.
         11   -1    0    0    0    0 -0.00000000000E+00 -0.00000000000E+00 -0.45593999997E+02  0.45594000000E+02  0.51100000000E-03 0. -1.
    9900012    2    1    2    0    0 -0.28901491656E+02 -0.16183275157E+02 -0.28043336003E+02  0.47787270640E+02  0.19999998158E+02 0.  0.
        -12    1    1    2    0    0  0.28901491656E+02  0.16183275157E+02  0.28043336003E+02  0.43400729360E+02  0.00000000000E+00 0.  1.
         11    1    3    3    0    0 -0.13618114632E+02 -0.75304647337E+01 -0.38304619586E+01  0.16026022099E+02  0.51100000000E-03 0. -1.
        -11    1    3    3    0    0  0.10791787459E+01 -0.17474639933E+01 -0.59160019187E+01  0.62623746405E+01  0.51100000000E-03 0.  1.
        -12    1    3    3    0    0 -0.16362555770E+02 -0.69053464300E+01 -0.18296872126E+02  0.25498873901E+02  0.00000000000E+00 0.  1.
</event>
<event>
 7    1  0.1322363E-009  0.4778727E+02  0.7816164E-02  0.1312668E+00
        -11   -1    0    0    0    0  0.00000000000E+00  0.00000000000E+00  0.45593999997E+02  0.45594000000E+02  0.51100000000E-03 0.  1.
         11   -1    0    0    0    0 -0.00000000000E+00 -0.00000000000E+00 -0.45593999997E+02  0.45594000000E+02  0.51100000000E-03 0. -1.
    9900012    2    1    2    0    0  0.45029959792E+01 -0.32068530457E+01 -0.43047214905E+02  0.47787267399E+02  0.19999983377E+02 0.  0.
        -12    1    1    2    0    0 -0.45029959792E+01  0.32068530457E+01  0.43047214905E+02  0.43400732601E+02  0.00000000000E+00 0.  1.
         11    1    3    3    0    0  0.21153440841E+01  0.21124861409E-01 -0.22562315584E+02  0.22661271183E+02  0.51100000000E-03 0. -1.
        -11    1    3    3    0    0  0.30831582322E+01 -0.39446154343E+01 -0.22407229761E+02  0.22959743061E+02  0.51100000000E-03 0.  1.
        -12    1    3    3    0    0 -0.69550633703E+00  0.71663752714E+00  0.19223304397E+01  0.21662531546E+01  0.00000000000E+00 0.  1.
</event>
<event>
 7    1  0.1322363E-009  0.4778726E+02  0.7816164E-02  0.1312668E+00
        -11   -1    0    0    0    0  0.00000000000E+00  0.00000000000E+00  0.45593999997E+02  0.45594000000E+02  0.51100000000E-03 0.  1.
         11   -1    0    0    0    0 -0.00000000000E+00 -0.00000000000E+00 -0.45593999997E+02  0.45594000000E+02  0.51100000000E-03 0. -1.
    9900012    2    1    2    0    0 -0.24770511660E+02 -0.20160378600E+02 -0.29387157946E+02  0.47787260774E+02  0.19999953175E+02 0.  0.
        -12    1    1    2    0    0  0.24770511660E+02  0.20160378600E+02  0.29387157946E+02  0.43400739226E+02  0.00000000000E+00 0.  1.
         11    1    3    3    0    0 -0.68931962601E+01 -0.57524394045E+01 -0.19012856294E+02  0.21026065217E+02  0.51100000000E-03 0. -1.
        -11    1    3    3    0    0 -0.49196028330E+01 -0.51157268095E+00 -0.49596036333E+01  0.70044176848E+01  0.51100000000E-03 0.  1.
        -12    1    3    3    0    0 -0.12957712567E+02 -0.13896366515E+02 -0.54146980182E+01  0.19756777872E+02  0.00000000000E+00 0.  1.
</event>
<event>
 7    1  0.1322363E-009  0.4778727E+02  0.7816164E-02  0.1312668E+00
        -11   -1    0    0    0    0  0.00000000000E+00  0.00000000000E+00  0.45593999997E+02  0.45594000000E+02  0.51100000000E-03 0.  1.
         11   -1    0    0    0    0 -0.00000000000E+00 -0.00000000000E+00 -0.45593999997E+02  0.45594000000E+02  0.51100000000E-03 0. -1.
    9900012    2    1    2    0    0 -0.14436129527E+01 -0.12172851193E+02 -0.41633649881E+02  0.47787272737E+02  0.20000007716E+02 0.  0.
        -12    1    1    2    0    0  0.14436129527E+01  0.12172851193E+02  0.41633649881E+02  0.43400727263E+02  0.00000000000E+00 0.  1.
         11    1    3    3    0    0  0.29238416863E+01 -0.79694526395E+01 -0.10104141934E+02  0.13196768925E+02  0.51100000000E-03 0. -1.
        -11    1    3    3    0    0 -0.30833119296E+01 -0.87390701744E+01 -0.17692234056E+02  0.19972313490E+02  0.51100000000E-03 0.  1.
        -12    1    3    3    0    0 -0.12841427094E+01  0.45356716206E+01 -0.13837273891E+02  0.14618190322E+02  0.00000000000E+00 0.  1.
</event>
<event>
 7    1  0.1322363E-009  0.4778727E+02  0.7816164E-02  0.1312668E+00
        -11   -1    0    0    0    0  0.00000000000E+00  0.00000000000E+00  0.45593999997E+02  0.45594000000E+02  0.51100000000E-03 0.  1.
         11   -1    0    0    0    0 -0.00000000000E+00 -0.00000000000E+00 -0.45593999997E+02  0.45594000000E+02  0.51100000000E-03 0. -1.
    9900012    2    1    2    0    0  0.26265972260E+02  0.29312304076E+01 -0.34425710594E+02  0.47787274656E+02  0.20000016468E+02 0.  0.
        -12    1    1    2    0    0 -0.26265972260E+02 -0.29312304076E+01  0.34425710594E+02  0.43400725344E+02  0.00000000000E+00 0.  1.
         11    1    3    3    0    0  0.15314925268E+02 -0.59105688622E+01 -0.12107030378E+02  0.20397596551E+02  0.51100000000E-03 0. -1.
        -11    1    3    3    0    0 -0.10036185167E+01  0.14979892690E+01 -0.32347472141E+01  0.37033514250E+01  0.51100000000E-03 0.  1.
         12    1    3    3    0    0  0.11954665508E+02  0.73438100008E+01 -0.19083933002E+02  0.23686326680E+02  0.00000000000E+00 0. -1.
</event>
<event>
 7    1  0.1322363E-009  0.4778727E+02  0.7816164E-02  0.1312668E+00
        -11   -1    0    0    0    0  0.00000000000E+00  0.00000000000E+00  0.45593999997E+02  0.45594000000E+02  0.51100000000E-03 0.  1.
         11   -1    0    0    0    0 -0.00000000000E+00 -0.00000000000E+00 -0.45593999997E+02  0.45594000000E+02  0.51100000000E-03 0. -1.
    9900012    2    1    2    0    0 -0.30211972258E+02 -0.15017595487E+02 -0.27300765668E+02  0.47787271343E+02  0.20000001360E+02 0.  0.
        -12    1    1    2    0    0  0.30211972258E+02  0.15017595487E+02  0.27300765668E+02  0.43400728657E+02  0.00000000000E+00 0.  1.
         11    1    3    3    0    0 -0.76119845191E+01  0.26148480941E+00 -0.12411041335E+02  0.14561752295E+02  0.51100000000E-03 0. -1.
        -11    1    3    3    0    0 -0.13702221753E+02 -0.13240336017E+02 -0.14750079687E+02  0.24096104039E+02  0.51100000000E-03 0.  1.
        -12    1    3    3    0    0 -0.88977659854E+01 -0.20387442800E+01 -0.13964464576E+00  0.91294150085E+01  0.00000000000E+00 0.  1.
</event>
<event>
 7    1  0.1322363E-009  0.4778729E+02  0.7816164E-02  0.1312668E+00
        -11   -1    0    0    0    0  0.00000000000E+00  0.00000000000E+00  0.45593999997E+02  0.45594000000E+02  0.51100000000E-03 0. -1.
         11   -1    0    0    0    0 -0.00000000000E+00 -0.00000000000E+00 -0.45593999997E+02  0.45594000000E+02  0.51100000000E-03 0.  1.
    9900012    2    1    2    0    0  0.14001294092E+02 -0.31250680362E+02  0.26664219884E+02  0.47787287086E+02  0.20000073142E+02 0.  0.
        -12    1    1    2    0    0 -0.14001294092E+02  0.31250680362E+02 -0.26664219884E+02  0.43400712914E+02  0.00000000000E+00 0.  1.
         11    1    3    3    0    0  0.92054739161E+01 -0.12206501482E+02  0.12141085052E+02  0.19522944833E+02  0.51100000000E-03 0. -1.
        -11    1    3    3    0    0  0.30924534724E+01  0.21071951311E+00 -0.12233926973E+01  0.33323206846E+01  0.51100000000E-03 0.  1.
         12    1    3    3    0    0  0.17033667035E+01 -0.19254898394E+02  0.15746527529E+02  0.24932021569E+02  0.00000000000E+00 0. -1.
</event>
<event>
 7    1  0.1322363E-009  0.4778726E+02  0.7816164E-02  0.1312668E+00
        -11   -1    0    0    0    0  0.00000000000E+00  0.00000000000E+00  0.45593999997E+02  0.45594000000E+02  0.51100000000E-03 0.  1.
         11   -1    0    0    0    0 -0.00000000000E+00 -0.00000000000E+00 -0.45593999997E+02  0.45594000000E+02  0.51100000000E-03 0. -1.
    9900012    2    1    2    0    0 -0.20393867379E+02 -0.15276257391E+02 -0.35133320218E+02  0.47787262032E+02  0.19999958911E+02 0.  0.
        -12    1    1    2    0    0  0.20393867379E+02  0.15276257391E+02  0.35133320218E+02  0.43400737968E+02  0.00000000000E+00 0.  1.
         11    1    3    3    0    0 -0.30914660000E+01 -0.12256784145E+02 -0.84554977221E+01  0.15207937454E+02  0.51100000000E-03 0. -1.
        -11    1    3    3    0    0 -0.44948019294E+01 -0.77891139147E+00 -0.26940745480E+01  0.52979227318E+01  0.51100000000E-03 0.  1.
         12    1    3    3    0    0 -0.12807599450E+02 -0.22405618549E+01 -0.23983747948E+02  0.27281401847E+02  0.00000000000E+00 0. -1.
</event>
<event>
 7    1  0.1322363E-009  0.4778725E+02  0.7816164E-02  0.1312668E+00
        -11   -1    0    0    0    0  0.00000000000E+00  0.00000000000E+00  0.45593999997E+02  0.45594000000E+02  0.51100000000E-03 0.  1.
         11   -1    0    0    0    0 -0.00000000000E+00 -0.00000000000E+00 -0.45593999997E+02  0.45594000000E+02  0.51100000000E-03 0. -1.
    9900012    2    1    2    0    0  0.33418519054E+02  0.26433590881E+02 -0.82518219218E+01  0.47787254526E+02  0.19999924686E+02 0.  0.
        -12    1    1    2    0    0 -0.33418519054E+02 -0.26433590881E+02  0.82518219218E+01  0.43400745474E+02  0.00000000000E+00 0.  1.
         11    1    3    3    0    0  0.90253543780E+01  0.12830941039E+02 -0.49786563265E+01  0.16458344044E+02  0.51100000000E-03 0. -1.
        -11    1    3    3    0    0  0.22000707191E+02  0.11067912884E+02  0.23218423835E+01  0.24737032256E+02  0.51100000000E-03 0.  1.
         12    1    3    3    0    0  0.23924574853E+01  0.25347369582E+01 -0.55950079788E+01  0.65918782262E+01  0.00000000000E+00 0. -1.
</event>
<event>
 7    1  0.1322363E-009  0.4778727E+02  0.7816164E-02  0.1312668E+00
        -11   -1    0    0    0    0  0.00000000000E+00  0.00000000000E+00  0.45593999997E+02  0.45594000000E+02  0.51100000000E-03 0. -1.
         11   -1    0    0    0    0 -0.00000000000E+00 -0.00000000000E+00 -0.45593999997E+02  0.45594000000E+02  0.51100000000E-03 0.  1.
    9900012    2    1    2    0    0  0.66556655746E+01 -0.34927349896E+01  0.42744897699E+02  0.47787270038E+02  0.19999995410E+02 0.  0.
        -12    1    1    2    0    0 -0.66556655746E+01  0.34927349896E+01 -0.42744897699E+02  0.43400729962E+02  0.00000000000E+00 0.  1.
         11    1    3    3    0    0 -0.11939345849E+01  0.33486537383E+01  0.33463125138E+02  0.33651444336E+02  0.51100000000E-03 0. -1.
        -11    1    3    3    0    0  0.40143785042E+01 -0.34502828820E+01  0.62327394183E+01  0.81772078155E+01  0.51100000000E-03 0.  1.
        -12    1    3    3    0    0  0.38352216553E+01 -0.33911058459E+01  0.30490331426E+01  0.59586178857E+01  0.00000000000E+00 0.  1.
</event>
<event>
 7    1  0.1322363E-009  0.4778727E+02  0.7816164E-02  0.1312668E+00
        -11   -1    0    0    0    0  0.00000000000E+00  0.00000000000E+00  0.45593999997E+02  0.45594000000E+02  0.51100000000E-03 0.  1.
         11   -1    0    0    0    0 -0.00000000000E+00 -0.00000000000E+00 -0.45593999997E+02  0.45594000000E+02  0.51100000000E-03 0. -1.
    9900012    2    1    2    0    0  0.81611191699E+01 -0.84870132700E+01 -0.41773079452E+02  0.47787269278E+02  0.19999991944E+02 0.  0.
        -12    1    1    2    0    0 -0.81611191699E+01  0.84870132700E+01  0.41773079452E+02  0.43400730722E+02  0.00000000000E+00 0.  1.
         11    1    3    3    0    0  0.42668779753E+01 -0.32918890654E+01 -0.23344089559E+02  0.23958073772E+02  0.51100000000E-03 0. -1.
        -11    1    3    3    0    0  0.40713222610E+01  0.61909400770E+00  0.38538852445E+00  0.41361173725E+01  0.51100000000E-03 0.  1.
        -12    1    3    3    0    0 -0.17708106638E+00 -0.58142182123E+01 -0.18814378417E+02  0.19693078133E+02  0.00000000000E+00 0.  1.
</event>
<event>
 7    1  0.1322363E-009  0.4778727E+02  0.7816164E-02  0.1312668E+00
        -11   -1    0    0    0    0  0.00000000000E+00  0.00000000000E+00  0.45593999997E+02  0.45594000000E+02  0.51100000000E-03 0.  1.
         11   -1    0    0    0    0 -0.00000000000E+00 -0.00000000000E+00 -0.45593999997E+02  0.45594000000E+02  0.51100000000E-03 0. -1.
    9900012    2    1    2    0    0 -0.27450082032E+01 -0.27841567688E+02 -0.33180342365E+02  0.47787273269E+02  0.20000010142E+02 0.  0.
        -12    1    1    2    0    0  0.27450082032E+01  0.27841567688E+02  0.33180342365E+02  0.43400726731E+02  0.00000000000E+00 0.  1.
         11    1    3    3    0    0  0.30079642998E+01 -0.10269000147E+02 -0.94709646672E+01  0.14289835032E+02  0.51100000000E-03 0. -1.
        -11    1    3    3    0    0 -0.98785699371E+01 -0.15687850446E+02 -0.15703495377E+02  0.24295978329E+02  0.51100000000E-03 0.  1.
         12    1    3    3    0    0  0.41255974341E+01 -0.18847170940E+01 -0.80058823203E+01  0.92014599081E+01  0.00000000000E+00 0. -1.
</event>
<event>
 7    1  0.1322363E-009  0.4778727E+02  0.7816164E-02  0.1312668E+00
        -11   -1    0    0    0    0  0.00000000000E+00  0.00000000000E+00  0.45593999997E+02  0.45594000000E+02  0.51100000000E-03 0.  1.
         11   -1    0    0    0    0 -0.00000000000E+00 -0.00000000000E+00 -0.45593999997E+02  0.45594000000E+02  0.51100000000E-03 0. -1.
    9900012    2    1    2    0    0  0.31044193651E+02  0.69782305907E+01 -0.29515852577E+02  0.47787271724E+02  0.20000003097E+02 0.  0.
        -12    1    1    2    0    0 -0.31044193651E+02 -0.69782305907E+01  0.29515852577E+02  0.43400728276E+02  0.00000000000E+00 0.  1.
         11    1    3    3    0    0  0.15146153619E+02 -0.54367260683E+01 -0.13540212240E+02  0.21030960690E+02  0.51100000000E-03 0. -1.
        -11    1    3    3    0    0  0.42255312993E+00  0.28350736758E+01 -0.59577902915E+00  0.29276520981E+01  0.51100000000E-03 0.  1.
         12    1    3    3    0    0  0.15475486902E+02  0.95798829831E+01 -0.15379861307E+02  0.23828658935E+02  0.00000000000E+00 0. -1.
</event>
<event>
 7    1  0.1322363E-009  0.4778727E+02  0.7816164E-02  0.1312668E+00
        -11   -1    0    0    0    0  0.00000000000E+00  0.00000000000E+00  0.45593999997E+02  0.45594000000E+02  0.51100000000E-03 0.  1.
         11   -1    0    0    0    0 -0.00000000000E+00 -0.00000000000E+00 -0.45593999997E+02  0.45594000000E+02  0.51100000000E-03 0. -1.
    9900012    2    1    2    0    0 -0.29731014192E+02 -0.22160097945E+02 -0.22552606493E+02  0.47787271833E+02  0.20000003595E+02 0.  0.
        -12    1    1    2    0    0  0.29731014192E+02  0.22160097945E+02  0.22552606493E+02  0.43400728167E+02  0.00000000000E+00 0.  1.
         11    1    3    3    0    0 -0.33340685992E+01 -0.65574721678E+01 -0.99866925999E+00  0.74238665942E+01  0.51100000000E-03 0. -1.
        -11    1    3    3    0    0 -0.15362515455E+02 -0.17060859123E+02 -0.15402499786E+02  0.27646279950E+02  0.51100000000E-03 0.  1.
        -12    1    3    3    0    0 -0.11034430138E+02  0.14582333462E+01 -0.61514374472E+01  0.12717125289E+02  0.00000000000E+00 0.  1.
</event>
<event>
 7    1  0.1322363E-009  0.4778725E+02  0.7816164E-02  0.1312668E+00
        -11   -1    0    0    0    0  0.00000000000E+00  0.00000000000E+00  0.45593999997E+02  0.45594000000E+02  0.51100000000E-03 0.  1.
         11   -1    0    0    0    0 -0.00000000000E+00 -0.00000000000E+00 -0.45593999997E+02  0.45594000000E+02  0.51100000000E-03 0. -1.
    9900012    2    1    2    0    0 -0.25739452851E+02  0.31523913874E+02 -0.15078066465E+02  0.47787254991E+02  0.19999926804E+02 0.  0.
        -12    1    1    2    0    0  0.25739452851E+02 -0.31523913874E+02  0.15078066465E+02  0.43400745009E+02  0.00000000000E+00 0.  1.
         11    1    3    3    0    0 -0.81792319553E+01  0.95426764565E+01 -0.69844789892E+01  0.14378645845E+02  0.51100000000E-03 0. -1.
        -11    1    3    3    0    0 -0.12101602869E+02  0.30082140815E+01 -0.49538809047E+01  0.13417864221E+02  0.51100000000E-03 0.  1.
         12    1    3    3    0    0 -0.54586180269E+01  0.18973023336E+02 -0.31397065713E+01  0.19990744925E+02  0.00000000000E+00 0. -1.
</event>
<event>
 7    1  0.1322363E-009  0.4778727E+02  0.7816164E-02  0.1312668E+00
        -11   -1    0    0    0    0  0.00000000000E+00  0.00000000000E+00  0.45593999997E+02  0.45594000000E+02  0.51100000000E-03 0. -1.
         11   -1    0    0    0    0 -0.00000000000E+00 -0.00000000000E+00 -0.45593999997E+02  0.45594000000E+02  0.51100000000E-03 0.  1.
    9900012    2    1    2    0    0  0.25299766286E+02 -0.63295091416E+01  0.34691243359E+02  0.47787271597E+02  0.20000002517E+02 0.  0.
        -12    1    1    2    0    0 -0.25299766286E+02  0.63295091416E+01 -0.34691243359E+02  0.43400728403E+02  0.00000000000E+00 0.  1.
         11    1    3    3    0    0  0.11384384126E+02  0.15357665910E+00  0.19394679101E+02  0.22489583487E+02  0.51100000000E-03 0. -1.
        -11    1    3    3    0    0  0.98229595169E+01  0.16084528725E+01  0.37974484002E+01  0.10653556633E+02  0.51100000000E-03 0.  1.
         12    1    3    3    0    0  0.40924226434E+01 -0.80915386732E+01  0.11499115858E+02  0.14644131477E+02  0.00000000000E+00 0. -1.
</event>
<event>
 7    1  0.1322363E-009  0.4778726E+02  0.7816164E-02  0.1312668E+00
        -11   -1    0    0    0    0  0.00000000000E+00  0.00000000000E+00  0.45593999997E+02  0.45594000000E+02  0.51100000000E-03 0.  1.
         11   -1    0    0    0    0 -0.00000000000E+00 -0.00000000000E+00 -0.45593999997E+02  0.45594000000E+02  0.51100000000E-03 0. -1.
    9900012    2    1    2    0    0 -0.18348397166E+02 -0.37900610873E+02 -0.10512085548E+02  0.47787263536E+02  0.19999965765E+02 0.  0.
        -12    1    1    2    0    0  0.18348397166E+02  0.37900610873E+02  0.10512085548E+02  0.43400736464E+02  0.00000000000E+00 0.  1.
         11    1    3    3    0    0 -0.18270771776E+01  0.33124814697E+00 -0.53270245767E+01  0.56413763790E+01  0.51100000000E-03 0. -1.
        -11    1    3    3    0    0 -0.72138110819E+01 -0.12228107644E+02 -0.13454917122E+01  0.14260996988E+02  0.51100000000E-03 0.  1.
         12    1    3    3    0    0 -0.93075089061E+01 -0.26003751375E+02 -0.38395692593E+01  0.27884890169E+02  0.00000000000E+00 0. -1.
</event>
<event>
 7    1  0.1322363E-009  0.4778730E+02  0.7816164E-02  0.1312668E+00
        -11   -1    0    0    0    0  0.00000000000E+00  0.00000000000E+00  0.45593999997E+02  0.45594000000E+02  0.51100000000E-03 0.  1.
         11   -1    0    0    0    0 -0.00000000000E+00 -0.00000000000E+00 -0.45593999997E+02  0.45594000000E+02  0.51100000000E-03 0. -1.
    9900012    2    1    2    0    0 -0.27501138595E+02  0.29734525222E+02 -0.15593779800E+02  0.47787302049E+02  0.20000141361E+02 0.  0.
        -12    1    1    2    0    0  0.27501138595E+02 -0.29734525222E+02  0.15593779800E+02  0.43400697951E+02  0.00000000000E+00 0.  1.
         11    1    3    3    0    0 -0.86120315608E+01  0.20221539814E+02 -0.92003035400E+01  0.23826945787E+02  0.51100000000E-03 0. -1.
        -11    1    3    3    0    0 -0.11221718375E+02  0.65714401667E+01  0.81968298610E+00  0.13030067905E+02  0.51100000000E-03 0.  1.
        -12    1    3    3    0    0 -0.76673886593E+01  0.29415452419E+01 -0.72131592462E+01  0.10930288357E+02  0.00000000000E+00 0.  1.
</event>
<event>
 7    1  0.1322363E-009  0.4778728E+02  0.7816164E-02  0.1312668E+00
        -11   -1    0    0    0    0  0.00000000000E+00  0.00000000000E+00  0.45593999997E+02  0.45594000000E+02  0.51100000000E-03 0.  1.
         11   -1    0    0    0    0 -0.00000000000E+00 -0.00000000000E+00 -0.45593999997E+02  0.45594000000E+02  0.51100000000E-03 0. -1.
    9900012    2    1    2    0    0  0.34433229368E+02  0.26095875594E+02 -0.41207203648E+01  0.47787281756E+02  0.20000048838E+02 0.  0.
        -12    1    1    2    0    0 -0.34433229368E+02 -0.26095875594E+02  0.41207203648E+01  0.43400718244E+02  0.00000000000E+00 0.  1.
         11    1    3    3    0    0  0.46951243936E+01  0.76674666407E+01 -0.72220549449E+01  0.11532229431E+02  0.51100000000E-03 0. -1.
        -11    1    3    3    0    0  0.63299793231E+01  0.52623465560E+01 -0.29151322384E+01  0.87326356694E+01  0.51100000000E-03 0.  1.
        -12    1    3    3    0    0  0.23408125652E+02  0.13166062398E+02  0.60164668185E+01  0.27522416656E+02  0.00000000000E+00 0.  1.
</event>
<event>
 7    1  0.1322363E-009  0.4778727E+02  0.7816164E-02  0.1312668E+00
        -11   -1    0    0    0    0  0.00000000000E+00  0.00000000000E+00  0.45593999997E+02  0.45594000000E+02  0.51100000000E-03 0. -1.
         11   -1    0    0    0    0 -0.00000000000E+00 -0.00000000000E+00 -0.45593999997E+02  0.45594000000E+02  0.51100000000E-03 0.  1.
    9900012    2    1    2    0    0  0.15605651948E+02  0.24114814010E+02  0.32535555901E+02  0.47787273909E+02  0.20000013061E+02 0.  0.
        -12    1    1    2    0    0 -0.15605651948E+02 -0.24114814010E+02 -0.32535555901E+02  0.43400726091E+02  0.00000000000E+00 0.  1.
         11    1    3    3    0    0  0.46667897611E+01  0.18775278847E+02  0.10386807693E+02  0.21958501697E+02  0.51100000000E-03 0. -1.
        -11    1    3    3    0    0  0.72842894180E+01  0.47392023020E+01  0.10635093086E+02  0.13734122323E+02  0.51100000000E-03 0.  1.
         12    1    3    3    0    0  0.36545727684E+01  0.60033286079E+00  0.11513655122E+02  0.12094649889E+02  0.00000000000E+00 0. -1.
</event>
<event>
 7    1  0.1322363E-009  0.4778727E+02  0.7816164E-02  0.1312668E+00
        -11   -1    0    0    0    0  0.00000000000E+00  0.00000000000E+00  0.45593999997E+02  0.45594000000E+02  0.51100000000E-03 0. -1.
         11   -1    0    0    0    0 -0.00000000000E+00 -0.00000000000E+00 -0.45593999997E+02  0.45594000000E+02  0.51100000000E-03 0.  1.
    9900012    2    1    2    0    0  0.32038459074E+02 -0.28965943492E+02 -0.42584625657E+01  0.47787271370E+02  0.20000001483E+02 0.  0.
        -12    1    1    2    0    0 -0.32038459074E+02  0.28965943492E+02  0.42584625657E+01  0.43400728630E+02  0.00000000000E+00 0.  1.
         11    1    3    3    0    0  0.10652020574E+02 -0.16868100358E+02 -0.65794424709E+01  0.21006842111E+02  0.51100000000E-03 0. -1.
        -11    1    3    3    0    0  0.15655809147E+00  0.11250437992E+01  0.13309958008E+01  0.17497954363E+01  0.51100000000E-03 0.  1.
        -12    1    3    3    0    0  0.21229880409E+02 -0.13222886933E+02  0.98998410446E+00  0.25030633822E+02  0.00000000000E+00 0.  1.
</event>
<event>
 7    1  0.1322363E-009  0.4778727E+02  0.7816164E-02  0.1312668E+00
        -11   -1    0    0    0    0  0.00000000000E+00  0.00000000000E+00  0.45593999997E+02  0.45594000000E+02  0.51100000000E-03 0. -1.
         11   -1    0    0    0    0 -0.00000000000E+00 -0.00000000000E+00 -0.45593999997E+02  0.45594000000E+02  0.51100000000E-03 0.  1.
    9900012    2    1    2    0    0  0.22035024048E+02  0.25493948111E+02  0.27352149349E+02  0.47787265570E+02  0.19999975039E+02 0.  0.
        -12    1    1    2    0    0 -0.22035024048E+02 -0.25493948111E+02 -0.27352149349E+02  0.43400734430E+02  0.00000000000E+00 0.  1.
         11    1    3    3    0    0  0.16214937726E+02  0.24124941631E+02  0.26177061094E+02  0.39117458275E+02  0.51100000000E-03 0. -1.
        -11    1    3    3    0    0 -0.10865211061E+01  0.96897368294E+00 -0.52187170778E+00  0.15465408022E+01  0.51100000000E-03 0.  1.
        -12    1    3    3    0    0  0.69066074282E+01  0.40003279736E+00  0.16969599630E+01  0.71232664924E+01  0.00000000000E+00 0.  1.
</event>
<event>
 7    1  0.1322363E-009  0.4778728E+02  0.7816164E-02  0.1312668E+00
        -11   -1    0    0    0    0  0.00000000000E+00  0.00000000000E+00  0.45593999997E+02  0.45594000000E+02  0.51100000000E-03 0.  1.
         11   -1    0    0    0    0 -0.00000000000E+00 -0.00000000000E+00 -0.45593999997E+02  0.45594000000E+02  0.51100000000E-03 0. -1.
    9900012    2    1    2    0    0 -0.17375624517E+02 -0.21322413715E+02 -0.33571789579E+02  0.47787277546E+02  0.20000029643E+02 0.  0.
        -12    1    1    2    0    0  0.17375624517E+02  0.21322413715E+02  0.33571789579E+02  0.43400722454E+02  0.00000000000E+00 0.  1.
         11    1    3    3    0    0 -0.76390190033E+01 -0.74488701813E+00 -0.55560578188E+01  0.94751911194E+01  0.51100000000E-03 0. -1.
        -11    1    3    3    0    0 -0.62485579640E+01 -0.11229750578E+01 -0.74582850100E+01  0.97944660478E+01  0.51100000000E-03 0.  1.
         12    1    3    3    0    0 -0.34880475501E+01 -0.19454551639E+02 -0.20557446750E+02  0.28517620379E+02  0.00000000000E+00 0. -1.
</event>
<event>
 7    1  0.1322363E-009  0.4778730E+02  0.7816164E-02  0.1312668E+00
        -11   -1    0    0    0    0  0.00000000000E+00  0.00000000000E+00  0.45593999997E+02  0.45594000000E+02  0.51100000000E-03 0. -1.
         11   -1    0    0    0    0 -0.00000000000E+00 -0.00000000000E+00 -0.45593999997E+02  0.45594000000E+02  0.51100000000E-03 0.  1.
    9900012    2    1    2    0    0 -0.31564463926E+02  0.16879085090E+02  0.24543883462E+02  0.47787295953E+02  0.20000113566E+02 0.  0.
        -12    1    1    2    0    0  0.31564463926E+02 -0.16879085090E+02 -0.24543883462E+02  0.43400704047E+02  0.00000000000E+00 0.  1.
         11    1    3    3    0    0 -0.88576457210E+01  0.75106794620E+01  0.11374902712E+02  0.16255971385E+02  0.51100000000E-03 0. -1.
        -11    1    3    3    0    0 -0.28152636005E+01 -0.32014233308E+01 -0.54244220914E+00  0.42975649262E+01  0.51100000000E-03 0.  1.
         12    1    3    3    0    0 -0.19891554604E+02  0.12569828959E+02  0.13711422959E+02  0.27233759641E+02  0.00000000000E+00 0. -1.
</event>
<event>
 7    1  0.1322363E-009  0.4778727E+02  0.7816164E-02  0.1312668E+00
        -11   -1    0    0    0    0  0.00000000000E+00  0.00000000000E+00  0.45593999997E+02  0.45594000000E+02  0.51100000000E-03 0. -1.
         11   -1    0    0    0    0 -0.00000000000E+00 -0.00000000000E+00 -0.45593999997E+02  0.45594000000E+02  0.51100000000E-03 0.  1.
    9900012    2    1    2    0    0  0.40970784478E+02  0.13531410092E+02  0.46817854231E+01  0.47787270115E+02  0.19999995763E+02 0.  0.
        -12    1    1    2    0    0 -0.40970784478E+02 -0.13531410092E+02 -0.46817854231E+01  0.43400729885E+02  0.00000000000E+00 0.  1.
         11    1    3    3    0    0  0.22895326753E+02 -0.30103681745E+00  0.30834763110E+01  0.23103991792E+02  0.51100000000E-03 0. -1.
        -11    1    3    3    0    0  0.10381792582E+02  0.66776402613E+01 -0.37405683233E+01  0.12898230433E+02  0.51100000000E-03 0.  1.
        -12    1    3    3    0    0  0.76936651434E+01  0.71548066477E+01  0.53388774354E+01  0.11785047890E+02  0.00000000000E+00 0.  1.
</event>
<event>
 7    1  0.1322363E-009  0.4778728E+02  0.7816164E-02  0.1312668E+00
        -11   -1    0    0    0    0  0.00000000000E+00  0.00000000000E+00  0.45593999997E+02  0.45594000000E+02  0.51100000000E-03 0.  1.
         11   -1    0    0    0    0 -0.00000000000E+00 -0.00000000000E+00 -0.45593999997E+02  0.45594000000E+02  0.51100000000E-03 0. -1.
    9900012    2    1    2    0    0  0.14421081931E+02 -0.24668277202E+02 -0.32666973721E+02  0.47787277929E+02  0.20000031392E+02 0.  0.
        -12    1    1    2    0    0 -0.14421081931E+02  0.24668277202E+02  0.32666973721E+02  0.43400722071E+02  0.00000000000E+00 0.  1.
         11    1    3    3    0    0  0.32468926351E+01 -0.32796013050E+00  0.87289742059E+00  0.33781385110E+01  0.51100000000E-03 0.  1.
        -11    1    3    3    0    0  0.62764075685E+01 -0.16526060374E+02 -0.13155622682E+02  0.22035752128E+02  0.51100000000E-03 0. -1.
        -12    1    3    3    0    0  0.48977817279E+01 -0.78142566973E+01 -0.20384248459E+02  0.22373387290E+02  0.00000000000E+00 0.  1.
</event>
<event>
 7    1  0.1322363E-009  0.4778726E+02  0.7816164E-02  0.1312668E+00
        -11   -1    0    0    0    0  0.00000000000E+00  0.00000000000E+00  0.45593999997E+02  0.45594000000E+02  0.51100000000E-03 0. -1.
         11   -1    0    0    0    0 -0.00000000000E+00 -0.00000000000E+00 -0.45593999997E+02  0.45594000000E+02  0.51100000000E-03 0.  1.
    9900012    2    1    2    0    0 -0.11527795047E+02  0.48526210490E+01  0.41559428380E+02  0.47787261792E+02  0.19999957814E+02 0.  0.
        -12    1    1    2    0    0  0.11527795047E+02 -0.48526210490E+01 -0.41559428380E+02  0.43400738208E+02  0.00000000000E+00 0.  1.
         11    1    3    3    0    0 -0.45468588646E+01  0.33180281016E+01  0.25056679896E+02  0.25681130110E+02  0.51100000000E-03 0. -1.
        -11    1    3    3    0    0 -0.74800367913E+01 -0.25139866868E+01  0.16195079287E+02  0.18015317728E+02  0.51100000000E-03 0.  1.
        -12    1    3    3    0    0  0.49910060863E+00  0.40485796341E+01  0.30766919646E+00  0.40908139540E+01  0.00000000000E+00 0.  1.
</event>
<event>
 7    1  0.1322363E-009  0.4778730E+02  0.7816164E-02  0.1312668E+00
        -11   -1    0    0    0    0  0.00000000000E+00  0.00000000000E+00  0.45593999997E+02  0.45594000000E+02  0.51100000000E-03 0.  1.
         11   -1    0    0    0    0 -0.00000000000E+00 -0.00000000000E+00 -0.45593999997E+02  0.45594000000E+02  0.51100000000E-03 0. -1.
    9900012    2    1    2    0    0 -0.24994076185E+02  0.34204128996E+02  0.94336814527E+01  0.47787301498E+02  0.20000138849E+02 0.  0.
        -12    1    1    2    0    0  0.24994076185E+02 -0.34204128996E+02 -0.94336814527E+01  0.43400698502E+02  0.00000000000E+00 0.  1.
         11    1    3    3    0    0 -0.23082647527E+02  0.25306572554E+02  0.37990383669E+01  0.34462500258E+02  0.51100000000E-03 0. -1.
        -11    1    3    3    0    0  0.19416046542E-03  0.49890992733E+01 -0.12841122855E+01  0.51517042053E+01  0.51100000000E-03 0.  1.
         12    1    3    3    0    0 -0.19116228184E+01  0.39084571691E+01  0.69187553713E+01  0.81730970342E+01  0.00000000000E+00 0. -1.
</event>
<event>
 7    1  0.1322363E-009  0.4778726E+02  0.7816164E-02  0.1312668E+00
        -11   -1    0    0    0    0  0.00000000000E+00  0.00000000000E+00  0.45593999997E+02  0.45594000000E+02  0.51100000000E-03 0.  1.
         11   -1    0    0    0    0 -0.00000000000E+00 -0.00000000000E+00 -0.45593999997E+02  0.45594000000E+02  0.51100000000E-03 0. -1.
    9900012    2    1    2    0    0  0.55504959158E+01  0.21433990102E+02 -0.37328275301E+02  0.47787261832E+02  0.19999957995E+02 0.  0.
        -12    1    1    2    0    0 -0.55504959158E+01 -0.21433990102E+02  0.37328275301E+02  0.43400738168E+02  0.00000000000E+00 0.  1.
         11    1    3    3    0    0  0.70490965482E+00  0.18983650769E+02 -0.17472813362E+02  0.25810368095E+02  0.51100000000E-03 0. -1.
        -11    1    3    3    0    0 -0.55887172311E+00  0.15397830795E+01 -0.13438705150E+02  0.13538170701E+02  0.51100000000E-03 0.  1.
        -12    1    3    3    0    0  0.54044579841E+01  0.91055625314E+00 -0.64167567891E+01  0.84387230362E+01  0.00000000000E+00 0.  1.
</event>
<event>
 7    1  0.1322363E-009  0.4778729E+02  0.7816164E-02  0.1312668E+00
        -11   -1    0    0    0    0  0.00000000000E+00  0.00000000000E+00  0.45593999997E+02  0.45594000000E+02  0.51100000000E-03 0.  1.
         11   -1    0    0    0    0 -0.00000000000E+00 -0.00000000000E+00 -0.45593999997E+02  0.45594000000E+02  0.51100000000E-03 0. -1.
    9900012    2    1    2    0    0  0.24695618557E+02 -0.17002180195E+02 -0.31379512832E+02  0.47787291102E+02  0.20000091449E+02 0.  0.
        -12    1    1    2    0    0 -0.24695618557E+02  0.17002180195E+02  0.31379512832E+02  0.43400708898E+02  0.00000000000E+00 0.  1.
         11    1    3    3    0    0  0.25247075479E+02 -0.10851632090E+02 -0.23830028590E+02  0.36373658080E+02  0.51100000000E-03 0. -1.
        -11    1    3    3    0    0  0.10390361388E+01 -0.34515587702E+01 -0.74535643621E+01  0.82794007031E+01  0.51100000000E-03 0.  1.
         12    1    3    3    0    0 -0.15904930609E+01 -0.26989893345E+01 -0.95919880058E-01  0.31342323187E+01  0.00000000000E+00 0. -1.
</event>
<event>
 7    1  0.1322363E-009  0.4778727E+02  0.7816164E-02  0.1312668E+00
        -11   -1    0    0    0    0  0.00000000000E+00  0.00000000000E+00  0.45593999997E+02  0.45594000000E+02  0.51100000000E-03 0.  1.
         11   -1    0    0    0    0 -0.00000000000E+00 -0.00000000000E+00 -0.45593999997E+02  0.45594000000E+02  0.51100000000E-03 0. -1.
    9900012    2    1    2    0    0  0.24758603308E+02 -0.31226435619E+02 -0.17191420623E+02  0.47787266570E+02  0.19999979599E+02 0.  0.
        -12    1    1    2    0    0 -0.24758603308E+02  0.31226435619E+02  0.17191420623E+02  0.43400733430E+02  0.00000000000E+00 0.  1.
         11    1    3    3    0    0  0.88713266439E+01 -0.62147082719E+01 -0.98236090639E+01  0.14622801737E+02  0.51100000000E-03 0. -1.
        -11    1    3    3    0    0  0.47909896599E+01  0.14498099863E+00 -0.46297200325E+00  0.48154900839E+01  0.51100000000E-03 0.  1.
         12    1    3    3    0    0  0.11096287004E+02 -0.25156708345E+02 -0.69048395561E+01  0.28348974749E+02  0.00000000000E+00 0. -1.
</event>
<event>
 7    1  0.1322363E-009  0.4778727E+02  0.7816164E-02  0.1312668E+00
        -11   -1    0    0    0    0  0.00000000000E+00  0.00000000000E+00  0.45593999997E+02  0.45594000000E+02  0.51100000000E-03 0.  1.
         11   -1    0    0    0    0 -0.00000000000E+00 -0.00000000000E+00 -0.45593999997E+02  0.45594000000E+02  0.51100000000E-03 0. -1.
    9900012    2    1    2    0    0  0.24531779856E+02  0.13917206643E+02 -0.32986768147E+02  0.47787265716E+02  0.19999975704E+02 0.  0.
        -12    1    1    2    0    0 -0.24531779856E+02 -0.13917206643E+02  0.32986768147E+02  0.43400734284E+02  0.00000000000E+00 0.  1.
         11    1    3    3    0    0  0.50814281779E+01  0.25506696144E+01 -0.41417701844E+01  0.70342795175E+01  0.51100000000E-03 0. -1.
        -11    1    3    3    0    0  0.13755245370E+02  0.59490648146E+01 -0.52441536209E+01  0.15877635051E+02  0.51100000000E-03 0.  1.
         12    1    3    3    0    0  0.56951063077E+01  0.54174722137E+01 -0.23600844342E+02  0.24875351147E+02  0.00000000000E+00 0. -1.
</event>
<event>
 7    1  0.1322363E-009  0.4778727E+02  0.7816164E-02  0.1312668E+00
        -11   -1    0    0    0    0  0.00000000000E+00  0.00000000000E+00  0.45593999997E+02  0.45594000000E+02  0.51100000000E-03 0.  1.
         11   -1    0    0    0    0 -0.00000000000E+00 -0.00000000000E+00 -0.45593999997E+02  0.45594000000E+02  0.51100000000E-03 0. -1.
    9900012    2    1    2    0    0 -0.35109837090E+02 -0.36930052275E+01 -0.25244494190E+02  0.47787269188E+02  0.19999991537E+02 0.  0.
        -12    1    1    2    0    0  0.35109837090E+02  0.36930052275E+01  0.25244494190E+02  0.43400730812E+02  0.00000000000E+00 0.  1.
         11    1    3    3    0    0 -0.14008389647E+01 -0.26097085012E+01 -0.23560757143E+01  0.37847088790E+01  0.51100000000E-03 0. -1.
        -11    1    3    3    0    0 -0.32806836185E+02  0.29719889879E+01 -0.17830784521E+02  0.37457417101E+02  0.51100000000E-03 0.  1.
        -12    1    3    3    0    0 -0.90216194018E+00 -0.40552857142E+01 -0.50576339549E+01  0.65451432078E+01  0.00000000000E+00 0.  1.
</event>
<event>
 7    1  0.1322363E-009  0.4778727E+02  0.7816164E-02  0.1312668E+00
        -11   -1    0    0    0    0  0.00000000000E+00  0.00000000000E+00  0.45593999997E+02  0.45594000000E+02  0.51100000000E-03 0. -1.
         11   -1    0    0    0    0 -0.00000000000E+00 -0.00000000000E+00 -0.45593999997E+02  0.45594000000E+02  0.51100000000E-03 0.  1.
    9900012    2    1    2    0    0  0.22457405755E+01  0.42985741388E+02  0.55502864682E+01  0.47787274277E+02  0.20000014738E+02 0.  0.
        -12    1    1    2    0    0 -0.22457405755E+01 -0.42985741388E+02 -0.55502864682E+01  0.43400725723E+02  0.00000000000E+00 0.  1.
         11    1    3    3    0    0 -0.48278907095E+01  0.29110361028E+02  0.55121284365E+01  0.30018414483E+02  0.51100000000E-03 0. -1.
        -11    1    3    3    0    0  0.78582834631E+00  0.64683276865E+01 -0.35393952756E+01  0.74151270001E+01  0.51100000000E-03 0.  1.
        -12    1    3    3    0    0  0.62878029387E+01  0.74070526734E+01  0.35775533072E+01  0.10353732794E+02  0.00000000000E+00 0.  1.
</event>
<event>
 7    1  0.1322363E-009  0.4778726E+02  0.7816164E-02  0.1312668E+00
        -11   -1    0    0    0    0  0.00000000000E+00  0.00000000000E+00  0.45593999997E+02  0.45594000000E+02  0.51100000000E-03 0. -1.
         11   -1    0    0    0    0 -0.00000000000E+00 -0.00000000000E+00 -0.45593999997E+02  0.45594000000E+02  0.51100000000E-03 0.  1.
    9900012    2    1    2    0    0 -0.19162777917E+02  0.38519655769E+02 -0.57138441359E+01  0.47787263222E+02  0.19999964334E+02 0.  0.
        -12    1    1    2    0    0  0.19162777917E+02 -0.38519655769E+02  0.57138441359E+01  0.43400736778E+02  0.00000000000E+00 0.  1.
         11    1    3    3    0    0 -0.58654187497E+01  0.58417897356E+01  0.58278868745E+01  0.10123927603E+02  0.51100000000E-03 0. -1.
        -11    1    3    3    0    0 -0.31726410304E+01  0.15675768018E+02 -0.39976335940E+01  0.16485643108E+02  0.51100000000E-03 0.  1.
         12    1    3    3    0    0 -0.10124718137E+02  0.17002098016E+02 -0.75440974164E+01  0.21177692512E+02  0.00000000000E+00 0. -1.
</event>
<event>
 7    1  0.1322363E-009  0.4778727E+02  0.7816164E-02  0.1312668E+00
        -11   -1    0    0    0    0  0.00000000000E+00  0.00000000000E+00  0.45593999997E+02  0.45594000000E+02  0.51100000000E-03 0.  1.
         11   -1    0    0    0    0 -0.00000000000E+00 -0.00000000000E+00 -0.45593999997E+02  0.45594000000E+02  0.51100000000E-03 0. -1.
    9900012    2    1    2    0    0 -0.42556577975E+02 -0.27583514547E+01 -0.80593141401E+01  0.47787269867E+02  0.19999994630E+02 0.  0.
        -12    1    1    2    0    0  0.42556577975E+02  0.27583514547E+01  0.80593141401E+01  0.43400730133E+02  0.00000000000E+00 0.  1.
         11    1    3    3    0    0 -0.15304637132E+02 -0.74751192696E+01 -0.24366816362E+01  0.17206008936E+02  0.51100000000E-03 0. -1.
        -11    1    3    3    0    0 -0.60808124316E+01  0.20370284451E+01 -0.66214072762E+01  0.92178522061E+01  0.51100000000E-03 0.  1.
         12    1    3    3    0    0 -0.21171128412E+02  0.26797393698E+01  0.99877477231E+00  0.21363408725E+02  0.00000000000E+00 0. -1.
</event>
<event>
 7    1  0.1322363E-009  0.4778727E+02  0.7816164E-02  0.1312668E+00
        -11   -1    0    0    0    0  0.00000000000E+00  0.00000000000E+00  0.45593999997E+02  0.45594000000E+02  0.51100000000E-03 0.  1.
         11   -1    0    0    0    0 -0.00000000000E+00 -0.00000000000E+00 -0.45593999997E+02  0.45594000000E+02  0.51100000000E-03 0. -1.
    9900012    2    1    2    0    0 -0.29265489626E+02 -0.86809076632E+01 -0.30851197182E+02  0.47787269494E+02  0.19999992932E+02 0.  0.
        -12    1    1    2    0    0  0.29265489626E+02  0.86809076632E+01  0.30851197182E+02  0.43400730506E+02  0.00000000000E+00 0.  1.
         11    1    3    3    0    0 -0.54802205243E+01 -0.69260954285E+01 -0.10650137749E+02  0.13835788710E+02  0.51100000000E-03 0. -1.
        -11    1    3    3    0    0  0.84964664615E+00  0.19607778411E+01 -0.29732040512E+01  0.36614876425E+01  0.51100000000E-03 0.  1.
         12    1    3    3    0    0 -0.24634915748E+02 -0.37155900758E+01 -0.17227855381E+02  0.30289993142E+02  0.00000000000E+00 0. -1.
</event>
<event>
 7    1  0.1322363E-009  0.4778726E+02  0.7816164E-02  0.1312668E+00
        -11   -1    0    0    0    0  0.00000000000E+00  0.00000000000E+00  0.45593999997E+02  0.45594000000E+02  0.51100000000E-03 0.  1.
         11   -1    0    0    0    0 -0.00000000000E+00 -0.00000000000E+00 -0.45593999997E+02  0.45594000000E+02  0.51100000000E-03 0. -1.
    9900012    2    1    2    0    0  0.41228742555E+01  0.28596482887E+02 -0.32386218438E+02  0.47787261869E+02  0.19999958165E+02 0.  0.
        -12    1    1    2    0    0 -0.41228742555E+01 -0.28596482887E+02  0.32386218438E+02  0.43400738131E+02  0.00000000000E+00 0.  1.
         11    1    3    3    0    0  0.68108129410E+01  0.20480329541E+02 -0.19179070870E+02  0.28873306543E+02  0.51100000000E-03 0. -1.
        -11    1    3    3    0    0 -0.18486522116E+01  0.52628434492E+01 -0.21126371265E+00  0.55820846274E+01  0.51100000000E-03 0.  1.
         12    1    3    3    0    0 -0.83928647383E+00  0.28533098967E+01 -0.12995883855E+02  0.13331870698E+02  0.00000000000E+00 0. -1.
</event>
<event>
 7    1  0.1322363E-009  0.4778721E+02  0.7816164E-02  0.1312668E+00
        -11   -1    0    0    0    0  0.00000000000E+00  0.00000000000E+00  0.45593999997E+02  0.45594000000E+02  0.51100000000E-03 0.  1.
         11   -1    0    0    0    0 -0.00000000000E+00 -0.00000000000E+00 -0.45593999997E+02  0.45594000000E+02  0.51100000000E-03 0. -1.
    9900012    2    1    2    0    0  0.39120136261E+02 -0.10434284490E+02 -0.15632305429E+02  0.47787212831E+02  0.19999734578E+02 0.  0.
        -12    1    1    2    0    0 -0.39120136261E+02  0.10434284490E+02  0.15632305429E+02  0.43400787169E+02  0.00000000000E+00 0.  1.
         11    1    3    3    0    0  0.18291820075E+02 -0.32988339377E+01 -0.62471438744E+01  0.19608666295E+02  0.51100000000E-03 0. -1.
        -11    1    3    3    0    0 -0.17502257867E+01  0.61142970554E+00  0.10456129584E+01  0.21284838052E+01  0.51100000000E-03 0.  1.
        -12    1    3    3    0    0  0.22578541973E+02 -0.77468802576E+01 -0.10430774513E+02  0.26050062731E+02  0.00000000000E+00 0.  1.
</event>
<event>
 7    1  0.1322363E-009  0.4778727E+02  0.7816164E-02  0.1312668E+00
        -11   -1    0    0    0    0  0.00000000000E+00  0.00000000000E+00  0.45593999997E+02  0.45594000000E+02  0.51100000000E-03 0. -1.
         11   -1    0    0    0    0 -0.00000000000E+00 -0.00000000000E+00 -0.45593999997E+02  0.45594000000E+02  0.51100000000E-03 0.  1.
    9900012    2    1    2    0    0 -0.23003703756E+02 -0.34914379897E+02  0.11637842232E+02  0.47787266344E+02  0.19999978569E+02 0.  0.
        -12    1    1    2    0    0  0.23003703756E+02  0.34914379897E+02 -0.11637842232E+02  0.43400733656E+02  0.00000000000E+00 0.  1.
         11    1    3    3    0    0 -0.14672787095E+02 -0.14575518980E+02  0.50169462732E+01  0.21281592629E+02  0.51100000000E-03 0. -1.
        -11    1    3    3    0    0 -0.18930461956E+01 -0.92250036154E+01 -0.36096377137E+01  0.10085325988E+02  0.51100000000E-03 0.  1.
         12    1    3    3    0    0 -0.64378704656E+01 -0.11113857302E+02  0.10230533672E+02  0.16420347727E+02  0.00000000000E+00 0. -1.
</event>
<event>
 7    1  0.1322363E-009  0.4778727E+02  0.7816164E-02  0.1312668E+00
        -11   -1    0    0    0    0  0.00000000000E+00  0.00000000000E+00  0.45593999997E+02  0.45594000000E+02  0.51100000000E-03 0. -1.
         11   -1    0    0    0    0 -0.00000000000E+00 -0.00000000000E+00 -0.45593999997E+02  0.45594000000E+02  0.51100000000E-03 0.  1.
    9900012    2    1    2    0    0 -0.11041250943E+02  0.32832136490E+02  0.26148898406E+02  0.47787270781E+02  0.19999998800E+02 0.  0.
        -12    1    1    2    0    0  0.11041250943E+02 -0.32832136490E+02 -0.26148898406E+02  0.43400729219E+02  0.00000000000E+00 0.  1.
         11    1    3    3    0    0 -0.86531580660E+01  0.15504759764E+02  0.66333886675E+01  0.18954592197E+02  0.51100000000E-03 0. -1.
        -11    1    3    3    0    0 -0.42956952112E+01  0.16699542709E+01  0.14091809362E+01  0.48194953871E+01  0.51100000000E-03 0.  1.
        -12    1    3    3    0    0  0.19076023342E+01  0.15657422455E+02  0.18106328802E+02  0.24013183198E+02  0.00000000000E+00 0.  1.
</event>
<event>
 7    1  0.1322363E-009  0.4778727E+02  0.7816164E-02  0.1312668E+00
        -11   -1    0    0    0    0  0.00000000000E+00  0.00000000000E+00  0.45593999997E+02  0.45594000000E+02  0.51100000000E-03 0.  1.
         11   -1    0    0    0    0 -0.00000000000E+00 -0.00000000000E+00 -0.45593999997E+02  0.45594000000E+02  0.51100000000E-03 0. -1.
    9900012    2    1    2    0    0  0.33016527631E+01  0.30119360863E+02 -0.31073249448E+02  0.47787266815E+02  0.19999980716E+02 0.  0.
        -12    1    1    2    0    0 -0.33016527631E+01 -0.30119360863E+02  0.31073249448E+02  0.43400733185E+02  0.00000000000E+00 0.  1.
         11    1    3    3    0    0  0.76203985315E+01  0.15822441982E+02 -0.83752391625E+01  0.19456741129E+02  0.51100000000E-03 0. -1.
        -11    1    3    3    0    0 -0.38849352277E+01  0.87093367085E+01 -0.75009347440E+01  0.12132983554E+02  0.51100000000E-03 0.  1.
        -12    1    3    3    0    0 -0.43381054063E+00  0.55875821721E+01 -0.15197075541E+02  0.16197542132E+02  0.00000000000E+00 0.  1.
</event>
<event>
 7    1  0.1322363E-009  0.4778727E+02  0.7816164E-02  0.1312668E+00
        -11   -1    0    0    0    0  0.00000000000E+00  0.00000000000E+00  0.45593999997E+02  0.45594000000E+02  0.51100000000E-03 0.  1.
         11   -1    0    0    0    0 -0.00000000000E+00 -0.00000000000E+00 -0.45593999997E+02  0.45594000000E+02  0.51100000000E-03 0. -1.
    9900012    2    1    2    0    0 -0.35655368250E+02  0.22276881222E+02 -0.10773052767E+02  0.47787269730E+02  0.19999994008E+02 0.  0.
        -12    1    1    2    0    0  0.35655368250E+02 -0.22276881222E+02  0.10773052767E+02  0.43400730270E+02  0.00000000000E+00 0.  1.
         11    1    3    3    0    0 -0.64732831865E+01 -0.11335479932E+01 -0.28044004560E+01  0.71451373986E+01  0.51100000000E-03 0. -1.
        -11    1    3    3    0    0 -0.12544933564E+02  0.17190564484E+02 -0.83898891401E+01  0.22875338368E+02  0.51100000000E-03 0.  1.
        -12    1    3    3    0    0 -0.16637151499E+02  0.62198647313E+01  0.42123682925E+00  0.17766793964E+02  0.00000000000E+00 0.  1.
</event>
<event>
 7    1  0.1322363E-009  0.4778727E+02  0.7816164E-02  0.1312668E+00
        -11   -1    0    0    0    0  0.00000000000E+00  0.00000000000E+00  0.45593999997E+02  0.45594000000E+02  0.51100000000E-03 0. -1.
         11   -1    0    0    0    0 -0.00000000000E+00 -0.00000000000E+00 -0.45593999997E+02  0.45594000000E+02  0.51100000000E-03 0.  1.
    9900012    2    1    2    0    0  0.32029881783E+01 -0.38389959816E+02  0.19989371358E+02  0.47787272872E+02  0.20000008331E+02 0.  0.
        -12    1    1    2    0    0 -0.32029881783E+01  0.38389959816E+02 -0.19989371358E+02  0.43400727128E+02  0.00000000000E+00 0.  1.
         11    1    3    3    0    0 -0.12459683360E+01 -0.18691381181E+02  0.18015769817E+02  0.25990154480E+02  0.51100000000E-03 0. -1.
        -11    1    3    3    0    0 -0.94636157128E+00 -0.13151544416E+02  0.56808470335E+00  0.13197781678E+02  0.51100000000E-03 0.  1.
        -12    1    3    3    0    0  0.53953180856E+01 -0.65470342200E+01  0.14055168379E+01  0.85993367131E+01  0.00000000000E+00 0.  1.
</event>
<event>
 7    1  0.1322363E-009  0.4778727E+02  0.7816164E-02  0.1312668E+00
        -11   -1    0    0    0    0  0.00000000000E+00  0.00000000000E+00  0.45593999997E+02  0.45594000000E+02  0.51100000000E-03 0.  1.
         11   -1    0    0    0    0 -0.00000000000E+00 -0.00000000000E+00 -0.45593999997E+02  0.45594000000E+02  0.51100000000E-03 0. -1.
    9900012    2    1    2    0    0  0.15535330477E+02 -0.83235737093E+01 -0.39660998280E+02  0.47787272392E+02  0.20000006145E+02 0.  0.
        -12    1    1    2    0    0 -0.15535330477E+02  0.83235737093E+01  0.39660998280E+02  0.43400727608E+02  0.00000000000E+00 0.  1.
         11    1    3    3    0    0  0.69645823504E+01 -0.10591424094E+02 -0.12504063643E+02  0.17805484534E+02  0.51100000000E-03 0. -1.
        -11    1    3    3    0    0  0.77761029896E+01 -0.21447779315E+01 -0.19597979118E+02  0.21193127090E+02  0.51100000000E-03 0.  1.
        -12    1    3    3    0    0  0.79464513705E+00  0.44126283162E+01 -0.75589555194E+01  0.87886607680E+01  0.00000000000E+00 0.  1.
</event>
<event>
 7    1  0.1322363E-009  0.4778727E+02  0.7816164E-02  0.1312668E+00
        -11   -1    0    0    0    0  0.00000000000E+00  0.00000000000E+00  0.45593999997E+02  0.45594000000E+02  0.51100000000E-03 0.  1.
         11   -1    0    0    0    0 -0.00000000000E+00 -0.00000000000E+00 -0.45593999997E+02  0.45594000000E+02  0.51100000000E-03 0. -1.
    9900012    2    1    2    0    0  0.61320395727E+01 -0.43180686383E+01 -0.42747818731E+02  0.47787266915E+02  0.19999981172E+02 0.  0.
        -12    1    1    2    0    0 -0.61320395727E+01  0.43180686383E+01  0.42747818731E+02  0.43400733085E+02  0.00000000000E+00 0.  1.
         11    1    3    3    0    0  0.39528503251E+01 -0.30155883551E+00 -0.20976997494E+02  0.21348311117E+02  0.51100000000E-03 0. -1.
        -11    1    3    3    0    0  0.69320689590E+01 -0.49914284883E+01 -0.75052137798E+01  0.11370847486E+02  0.51100000000E-03 0.  1.
         12    1    3    3    0    0 -0.47528797114E+01  0.97491868551E+00 -0.14265607457E+02  0.15068108312E+02  0.00000000000E+00 0. -1.
</event>
<event>
 7    1  0.1322363E-009  0.4778727E+02  0.7816164E-02  0.1312668E+00
        -11   -1    0    0    0    0  0.00000000000E+00  0.00000000000E+00  0.45593999997E+02  0.45594000000E+02  0.51100000000E-03 0.  1.
         11   -1    0    0    0    0 -0.00000000000E+00 -0.00000000000E+00 -0.45593999997E+02  0.45594000000E+02  0.51100000000E-03 0. -1.
    9900012    2    1    2    0    0  0.35709494589E+02 -0.18112133484E+02 -0.16745320939E+02  0.47787272397E+02  0.20000006167E+02 0.  0.
        -12    1    1    2    0    0 -0.35709494589E+02  0.18112133484E+02  0.16745320939E+02  0.43400727603E+02  0.00000000000E+00 0.  1.
         11    1    3    3    0    0  0.17961165300E+02 -0.98418526090E+01 -0.10729262050E+02  0.23121042063E+02  0.51100000000E-03 0. -1.
        -11    1    3    3    0    0 -0.11044951381E+01  0.19057823589E+01 -0.17698238142E+01  0.28256313461E+01  0.51100000000E-03 0.  1.
         12    1    3    3    0    0  0.18852824427E+02 -0.10176063234E+02 -0.42462350751E+01  0.21840598988E+02  0.00000000000E+00 0. -1.
</event>
<event>
 7    1  0.1322363E-009  0.4778727E+02  0.7816164E-02  0.1312668E+00
        -11   -1    0    0    0    0  0.00000000000E+00  0.00000000000E+00  0.45593999997E+02  0.45594000000E+02  0.51100000000E-03 0.  1.
         11   -1    0    0    0    0 -0.00000000000E+00 -0.00000000000E+00 -0.45593999997E+02  0.45594000000E+02  0.51100000000E-03 0. -1.
    9900012    2    1    2    0    0  0.27403000942E+02 -0.30944228345E+02 -0.13234547927E+02  0.47787274345E+02  0.20000015051E+02 0.  0.
        -12    1    1    2    0    0 -0.27403000942E+02  0.30944228345E+02  0.13234547927E+02  0.43400725655E+02  0.00000000000E+00 0.  1.
         11    1    3    3    0    0  0.57744732712E+01 -0.17301243749E+02 -0.33327776591E+01  0.18541439642E+02  0.51100000000E-03 0. -1.
        -11    1    3    3    0    0  0.10208333645E+02 -0.11512248461E+02 -0.28272796359E+01  0.15644022847E+02  0.51100000000E-03 0.  1.
         12    1    3    3    0    0  0.11420194026E+02 -0.21307361351E+01 -0.70744906323E+01  0.13601811857E+02  0.00000000000E+00 0. -1.
</event>
<event>
 7    1  0.1322363E-009  0.4778727E+02  0.7816164E-02  0.1312668E+00
        -11   -1    0    0    0    0  0.00000000000E+00  0.00000000000E+00  0.45593999997E+02  0.45594000000E+02  0.51100000000E-03 0.  1.
         11   -1    0    0    0    0 -0.00000000000E+00 -0.00000000000E+00 -0.45593999997E+02  0.45594000000E+02  0.51100000000E-03 0. -1.
    9900012    2    1    2    0    0 -0.23500836561E+02  0.14545762989E+02 -0.33462733177E+02  0.47787273604E+02  0.20000011671E+02 0.  0.
        -12    1    1    2    0    0  0.23500836561E+02 -0.14545762989E+02  0.33462733177E+02  0.43400726396E+02  0.00000000000E+00 0.  1.
         11    1    3    3    0    0 -0.54220397570E+00  0.57413506372E+01 -0.21556133228E+01  0.61566030689E+01  0.51100000000E-03 0. -1.
        -11    1    3    3    0    0 -0.18816039733E+02  0.10285400112E+02 -0.19326100572E+02  0.28867472530E+02  0.51100000000E-03 0.  1.
        -12    1    3    3    0    0 -0.41425928530E+01 -0.14809877594E+01 -0.11981019282E+02  0.12763198005E+02  0.00000000000E+00 0.  1.
</event>
<event>
 7    1  0.1322363E-009  0.4778727E+02  0.7816164E-02  0.1312668E+00
        -11   -1    0    0    0    0  0.00000000000E+00  0.00000000000E+00  0.45593999997E+02  0.45594000000E+02  0.51100000000E-03 0.  1.
         11   -1    0    0    0    0 -0.00000000000E+00 -0.00000000000E+00 -0.45593999997E+02  0.45594000000E+02  0.51100000000E-03 0. -1.
    9900012    2    1    2    0    0  0.59882779131E+01  0.24015552306E+02 -0.35651323846E+02  0.47787272853E+02  0.20000008246E+02 0.  0.
        -12    1    1    2    0    0 -0.59882779131E+01 -0.24015552306E+02  0.35651323846E+02  0.43400727147E+02  0.00000000000E+00 0.  1.
         11    1    3    3    0    0  0.18495063301E+01  0.12732322612E+02 -0.18813158691E+02  0.22791833032E+02  0.51100000000E-03 0. -1.
        -11    1    3    3    0    0  0.51963893799E+01  0.94574784599E+01 -0.32863565385E+01  0.11280359080E+02  0.51100000000E-03 0.  1.
         12    1    3    3    0    0 -0.10576177968E+01  0.18257512347E+01 -0.13551808616E+02  0.13715080742E+02  0.00000000000E+00 0. -1.
</event>
<event>
 7    1  0.1322363E-009  0.4778727E+02  0.7816164E-02  0.1312668E+00
        -11   -1    0    0    0    0  0.00000000000E+00  0.00000000000E+00  0.45593999997E+02  0.45594000000E+02  0.51100000000E-03 0.  1.
         11   -1    0    0    0    0 -0.00000000000E+00 -0.00000000000E+00 -0.45593999997E+02  0.45594000000E+02  0.51100000000E-03 0. -1.
    9900012    2    1    2    0    0  0.93611783007E+01 -0.26417980471E+02 -0.33137316332E+02  0.47787273220E+02  0.20000009920E+02 0.  0.
        -12    1    1    2    0    0 -0.93611783007E+01  0.26417980471E+02  0.33137316332E+02  0.43400726780E+02  0.00000000000E+00 0.  1.
         11    1    3    3    0    0  0.39590153648E+01 -0.61722061510E+01 -0.63355342322E+01  0.96906617781E+01  0.51100000000E-03 0. -1.
        -11    1    3    3    0    0  0.26246636653E+01 -0.64949109592E+01 -0.22283056091E+02  0.23358238733E+02  0.51100000000E-03 0.  1.
        -12    1    3    3    0    0  0.27774992706E+01 -0.13750863360E+02 -0.45187260091E+01  0.14738372709E+02  0.00000000000E+00 0.  1.
</event>
<event>
 7    1  0.1322363E-009  0.4778727E+02  0.7816164E-02  0.1312668E+00
        -11   -1    0    0    0    0  0.00000000000E+00  0.00000000000E+00  0.45593999997E+02  0.45594000000E+02  0.51100000000E-03 0. -1.
         11   -1    0    0    0    0 -0.00000000000E+00 -0.00000000000E+00 -0.45593999997E+02  0.45594000000E+02  0.51100000000E-03 0.  1.
    9900012    2    1    2    0    0  0.40034319542E+02 -0.13121721581E+02 -0.10425771395E+02  0.47787273882E+02  0.20000012938E+02 0.  0.
        -12    1    1    2    0    0 -0.40034319542E+02  0.13121721581E+02  0.10425771395E+02  0.43400726118E+02  0.00000000000E+00 0.  1.
         11    1    3    3    0    0  0.23770375283E+02 -0.52999162477E+01 -0.42480484598E+01  0.24721767116E+02  0.51100000000E-03 0. -1.
        -11    1    3    3    0    0  0.11164279179E+02 -0.79134776773E+01 -0.97810278193E+01  0.16820605340E+02  0.51100000000E-03 0.  1.
         12    1    3    3    0    0  0.50996650795E+01  0.91672344449E-01  0.36033048840E+01  0.62449014267E+01  0.00000000000E+00 0. -1.
</event>
<event>
 7    1  0.1322363E-009  0.4778726E+02  0.7816164E-02  0.1312668E+00
        -11   -1    0    0    0    0  0.00000000000E+00  0.00000000000E+00  0.45593999997E+02  0.45594000000E+02  0.51100000000E-03 0.  1.
         11   -1    0    0    0    0 -0.00000000000E+00 -0.00000000000E+00 -0.45593999997E+02  0.45594000000E+02  0.51100000000E-03 0. -1.
    9900012    2    1    2    0    0  0.37505983026E+02 -0.11334898334E+02 -0.18666693084E+02  0.47787261370E+02  0.19999955889E+02 0.  0.
        -12    1    1    2    0    0 -0.37505983026E+02  0.11334898334E+02  0.18666693084E+02  0.43400738630E+02  0.00000000000E+00 0.  1.
         11    1    3    3    0    0  0.14047948655E+02 -0.79219095317E+00 -0.65123294766E+01  0.15504285324E+02  0.51100000000E-03 0. -1.
        -11    1    3    3    0    0  0.14327004789E+00 -0.27327766047E+01 -0.65008193547E+01  0.70533145982E+01  0.51100000000E-03 0.  1.
         12    1    3    3    0    0  0.23314764322E+02 -0.78099307764E+01 -0.56535442528E+01  0.25229661448E+02  0.00000000000E+00 0. -1.
</event>
<event>
 7    1  0.1322363E-009  0.4778727E+02  0.7816164E-02  0.1312668E+00
        -11   -1    0    0    0    0  0.00000000000E+00  0.00000000000E+00  0.45593999997E+02  0.45594000000E+02  0.51100000000E-03 0.  1.
         11   -1    0    0    0    0 -0.00000000000E+00 -0.00000000000E+00 -0.45593999997E+02  0.45594000000E+02  0.51100000000E-03 0. -1.
    9900012    2    1    2    0    0  0.70358898778E+01  0.16302800653E+02 -0.39602248320E+02  0.47787272730E+02  0.20000007686E+02 0.  0.
        -12    1    1    2    0    0 -0.70358898778E+01 -0.16302800653E+02  0.39602248320E+02  0.43400727270E+02  0.00000000000E+00 0.  1.
         11    1    3    3    0    0  0.63883246223E+01  0.78814342768E+01 -0.81087590717E+01  0.12987673837E+02  0.51100000000E-03 0. -1.
        -11    1    3    3    0    0 -0.44031266921E+01  0.18673474189E+01 -0.45019146229E+01  0.65682377076E+01  0.51100000000E-03 0.  1.
        -12    1    3    3    0    0  0.50506919476E+01  0.65540189576E+01 -0.26991574626E+02  0.28231361186E+02  0.00000000000E+00 0.  1.
</event>
<event>
 7    1  0.1322363E-009  0.4778728E+02  0.7816164E-02  0.1312668E+00
        -11   -1    0    0    0    0  0.00000000000E+00  0.00000000000E+00  0.45593999997E+02  0.45594000000E+02  0.51100000000E-03 0.  1.
         11   -1    0    0    0    0 -0.00000000000E+00 -0.00000000000E+00 -0.45593999997E+02  0.45594000000E+02  0.51100000000E-03 0. -1.
    9900012    2    1    2    0    0  0.38351262923E+02  0.19745963188E+02 -0.47853745417E+01  0.47787282961E+02  0.20000054330E+02 0.  0.
        -12    1    1    2    0    0 -0.38351262923E+02 -0.19745963188E+02  0.47853745417E+01  0.43400717039E+02  0.00000000000E+00 0.  1.
         11    1    3    3    0    0  0.26825797743E+02  0.14753315244E+02 -0.74796319525E+01  0.31515529976E+02  0.51100000000E-03 0. -1.
        -11    1    3    3    0    0  0.10796233848E+02  0.52013190247E+01 -0.14385914743E+01  0.12069876992E+02  0.51100000000E-03 0.  1.
        -12    1    3    3    0    0  0.72923133169E+00 -0.20867108053E+00  0.41328488851E+01  0.42018759932E+01  0.00000000000E+00 0.  1.
</event>
<event>
 7    1  0.1322363E-009  0.4778727E+02  0.7816164E-02  0.1312668E+00
        -11   -1    0    0    0    0  0.00000000000E+00  0.00000000000E+00  0.45593999997E+02  0.45594000000E+02  0.51100000000E-03 0.  1.
         11   -1    0    0    0    0 -0.00000000000E+00 -0.00000000000E+00 -0.45593999997E+02  0.45594000000E+02  0.51100000000E-03 0. -1.
    9900012    2    1    2    0    0 -0.95423564910E+01  0.39874045981E+02 -0.14234727423E+02  0.47787267574E+02  0.19999984176E+02 0.  0.
        -12    1    1    2    0    0  0.95423564910E+01 -0.39874045981E+02  0.14234727423E+02  0.43400732426E+02  0.00000000000E+00 0.  1.
         11    1    3    3    0    0 -0.68970557423E+01  0.57807774683E+01 -0.30507327160E+01  0.95023016378E+01  0.51100000000E-03 0. -1.
        -11    1    3    3    0    0  0.42568930003E+00  0.56953198660E+01 -0.75862841009E+01  0.94957667662E+01  0.51100000000E-03 0.  1.
         12    1    3    3    0    0 -0.30709900487E+01  0.28397948647E+02 -0.35977106060E+01  0.28789199170E+02  0.00000000000E+00 0. -1.
</event>
<event>
 7    1  0.1322363E-009  0.4778727E+02  0.7816164E-02  0.1312668E+00
        -11   -1    0    0    0    0  0.00000000000E+00  0.00000000000E+00  0.45593999997E+02  0.45594000000E+02  0.51100000000E-03 0.  1.
         11   -1    0    0    0    0 -0.00000000000E+00 -0.00000000000E+00 -0.45593999997E+02  0.45594000000E+02  0.51100000000E-03 0. -1.
    9900012    2    1    2    0    0  0.19942211045E+02  0.38358594356E+02 -0.38143923014E+01  0.47787272691E+02  0.20000007506E+02 0.  0.
        -12    1    1    2    0    0 -0.19942211045E+02 -0.38358594356E+02  0.38143923014E+01  0.43400727309E+02  0.00000000000E+00 0.  1.
         11    1    3    3    0    0  0.13593986862E+02  0.30770416266E+02 -0.49508538438E+01  0.34001852156E+02  0.51100000000E-03 0. -1.
        -11    1    3    3    0    0 -0.92866423116E+00  0.56281951435E+01  0.23177317624E+01  0.61571810605E+01  0.51100000000E-03 0.  1.
        -12    1    3    3    0    0  0.72768884142E+01  0.19599829467E+01 -0.11812702200E+01  0.76282394743E+01  0.00000000000E+00 0.  1.
</event>
<event>
 7    1  0.1322363E-009  0.4778728E+02  0.7816164E-02  0.1312668E+00
        -11   -1    0    0    0    0  0.00000000000E+00  0.00000000000E+00  0.45593999997E+02  0.45594000000E+02  0.51100000000E-03 0.  1.
         11   -1    0    0    0    0 -0.00000000000E+00 -0.00000000000E+00 -0.45593999997E+02  0.45594000000E+02  0.51100000000E-03 0. -1.
    9900012    2    1    2    0    0 -0.70797151589E+01  0.37430802136E+02 -0.20795077357E+02  0.47787279297E+02  0.20000037626E+02 0.  0.
        -12    1    1    2    0    0  0.70797151589E+01 -0.37430802136E+02  0.20795077357E+02  0.43400720703E+02  0.00000000000E+00 0.  1.
         11    1    3    3    0    0 -0.44568465814E+01  0.10669241769E+02 -0.15514385856E+02  0.19349221434E+02  0.51100000000E-03 0. -1.
        -11    1    3    3    0    0  0.96223925779E+00  0.14836007214E+02 -0.58391745378E+01  0.15972757244E+02  0.51100000000E-03 0.  1.
         12    1    3    3    0    0 -0.35851078353E+01  0.11925553153E+02  0.55848303655E+00  0.12465300618E+02  0.00000000000E+00 0. -1.
</event>
<event>
 7    1  0.1322363E-009  0.4778727E+02  0.7816164E-02  0.1312668E+00
        -11   -1    0    0    0    0  0.00000000000E+00  0.00000000000E+00  0.45593999997E+02  0.45594000000E+02  0.51100000000E-03 0.  1.
         11   -1    0    0    0    0 -0.00000000000E+00 -0.00000000000E+00 -0.45593999997E+02  0.45594000000E+02  0.51100000000E-03 0. -1.
    9900012    2    1    2    0    0 -0.59533748450E+01 -0.42723636769E+02  0.47824091484E+01  0.47787271341E+02  0.20000001354E+02 0.  0.
        -12    1    1    2    0    0  0.59533748450E+01  0.42723636769E+02 -0.47824091484E+01  0.43400728659E+02  0.00000000000E+00 0.  1.
         11    1    3    3    0    0 -0.11011772867E+01 -0.13846468548E+02 -0.22211580585E+01  0.14066656534E+02  0.51100000000E-03 0. -1.
        -11    1    3    3    0    0  0.44774879162E+01 -0.11397184078E+02  0.65823193338E+01  0.13902180801E+02  0.51100000000E-03 0.  1.
         12    1    3    3    0    0 -0.93296854745E+01 -0.17479984143E+02  0.42124787310E+00  0.19818434006E+02  0.00000000000E+00 0. -1.
</event>
<event>
 7    1  0.1322363E-009  0.4778726E+02  0.7816164E-02  0.1312668E+00
        -11   -1    0    0    0    0  0.00000000000E+00  0.00000000000E+00  0.45593999997E+02  0.45594000000E+02  0.51100000000E-03 0. -1.
         11   -1    0    0    0    0 -0.00000000000E+00 -0.00000000000E+00 -0.45593999997E+02  0.45594000000E+02  0.51100000000E-03 0.  1.
    9900012    2    1    2    0    0 -0.26912825539E+02 -0.19352006263E+02  0.28014702300E+02  0.47787264178E+02  0.19999968695E+02 0.  0.
        -12    1    1    2    0    0  0.26912825539E+02  0.19352006263E+02 -0.28014702300E+02  0.43400735822E+02  0.00000000000E+00 0.  1.
         11    1    3    3    0    0 -0.79475559097E+01 -0.68568266551E+01  0.39429323208E+01  0.11212779863E+02  0.51100000000E-03 0. -1.
        -11    1    3    3    0    0 -0.26326679764E+01 -0.64630326584E+00  0.13549028625E+02  0.13817554977E+02  0.51100000000E-03 0.  1.
        -12    1    3    3    0    0 -0.16332601653E+02 -0.11848876342E+02  0.10522741354E+02  0.22756929339E+02  0.00000000000E+00 0.  1.
</event>
<event>
 7    1  0.1322363E-009  0.4778727E+02  0.7816164E-02  0.1312668E+00
        -11   -1    0    0    0    0  0.00000000000E+00  0.00000000000E+00  0.45593999997E+02  0.45594000000E+02  0.51100000000E-03 0.  1.
         11   -1    0    0    0    0 -0.00000000000E+00 -0.00000000000E+00 -0.45593999997E+02  0.45594000000E+02  0.51100000000E-03 0. -1.
    9900012    2    1    2    0    0  0.34545670598E+02  0.19695178549E+02 -0.17387349929E+02  0.47787270136E+02  0.19999995859E+02 0.  0.
        -12    1    1    2    0    0 -0.34545670598E+02 -0.19695178549E+02  0.17387349929E+02  0.43400729864E+02  0.00000000000E+00 0.  1.
         11    1    3    3    0    0  0.14376633100E+02  0.18794581814E+02 -0.64039370721E+01  0.24513961229E+02  0.51100000000E-03 0. -1.
        -11    1    3    3    0    0  0.99176914322E+01  0.20029079983E+01 -0.43504813484E+01  0.11013579437E+02  0.51100000000E-03 0.  1.
         12    1    3    3    0    0  0.10251346066E+02 -0.11023112628E+01 -0.66329315087E+01  0.12259729470E+02  0.00000000000E+00 0. -1.
</event>
<event>
 7    1  0.1322363E-009  0.4778727E+02  0.7816164E-02  0.1312668E+00
        -11   -1    0    0    0    0  0.00000000000E+00  0.00000000000E+00  0.45593999997E+02  0.45594000000E+02  0.51100000000E-03 0. -1.
         11   -1    0    0    0    0 -0.00000000000E+00 -0.00000000000E+00 -0.45593999997E+02  0.45594000000E+02  0.51100000000E-03 0.  1.
    9900012    2    1    2    0    0 -0.25628385224E+02  0.29449698166E+02 -0.18961136182E+02  0.47787268018E+02  0.19999986201E+02 0.  0.
        -12    1    1    2    0    0  0.25628385224E+02 -0.29449698166E+02  0.18961136182E+02  0.43400731982E+02  0.00000000000E+00 0.  1.
         11    1    3    3    0    0 -0.88149448757E+01  0.11938921821E+02 -0.67629231576E+01  0.16308839238E+02  0.51100000000E-03 0. -1.
        -11    1    3    3    0    0 -0.22758093090E+01 -0.53363505413E+00 -0.74722803846E+01  0.78293709063E+01  0.51100000000E-03 0.  1.
        -12    1    3    3    0    0 -0.14537631039E+02  0.18044411399E+02 -0.47259326400E+01  0.23649057873E+02  0.00000000000E+00 0.  1.
</event>
<event>
 7    1  0.1322363E-009  0.4778727E+02  0.7816164E-02  0.1312668E+00
        -11   -1    0    0    0    0  0.00000000000E+00  0.00000000000E+00  0.45593999997E+02  0.45594000000E+02  0.51100000000E-03 0.  1.
         11   -1    0    0    0    0 -0.00000000000E+00 -0.00000000000E+00 -0.45593999997E+02  0.45594000000E+02  0.51100000000E-03 0. -1.
    9900012    2    1    2    0    0  0.32690703480E+01 -0.77371927390E+01 -0.42580187184E+02  0.47787270593E+02  0.19999997942E+02 0.  0.
        -12    1    1    2    0    0 -0.32690703480E+01  0.77371927390E+01  0.42580187184E+02  0.43400729407E+02  0.00000000000E+00 0.  1.
         11    1    3    3    0    0 -0.49371246925E+01 -0.45259289425E+01 -0.12080532071E+02  0.13812982603E+02  0.51100000000E-03 0.  1.
        -11    1    3    3    0    0  0.24407771771E+01  0.40255703054E+01 -0.16767077051E+02  0.17415438054E+02  0.51100000000E-03 0. -1.
        -12    1    3    3    0    0  0.57654178635E+01 -0.72368341020E+01 -0.13732578062E+02  0.16558849935E+02  0.00000000000E+00 0.  1.
</event>
<event>
 7    1  0.1322363E-009  0.4778727E+02  0.7816164E-02  0.1312668E+00
        -11   -1    0    0    0    0  0.00000000000E+00  0.00000000000E+00  0.45593999997E+02  0.45594000000E+02  0.51100000000E-03 0. -1.
         11   -1    0    0    0    0 -0.00000000000E+00 -0.00000000000E+00 -0.45593999997E+02  0.45594000000E+02  0.51100000000E-03 0.  1.
    9900012    2    1    2    0    0 -0.21952932480E+00 -0.55866955239E+01  0.43039097920E+02  0.47787270631E+02  0.19999998115E+02 0.  0.
        -12    1    1    2    0    0  0.21952932480E+00  0.55866955239E+01 -0.43039097920E+02  0.43400729369E+02  0.00000000000E+00 0.  1.
         11    1    3    3    0    0 -0.52180583639E+01  0.36238648018E+01  0.15688153803E+02  0.16925681647E+02  0.51100000000E-03 0. -1.
        -11    1    3    3    0    0 -0.14271479776E+01 -0.69970838114E+01  0.17428783458E+02  0.18835031890E+02  0.51100000000E-03 0.  1.
         12    1    3    3    0    0  0.64256770168E+01 -0.22134765143E+01  0.99221606589E+01  0.12026557094E+02  0.00000000000E+00 0. -1.
</event>
<event>
 7    1  0.1322363E-009  0.4778727E+02  0.7816164E-02  0.1312668E+00
        -11   -1    0    0    0    0  0.00000000000E+00  0.00000000000E+00  0.45593999997E+02  0.45594000000E+02  0.51100000000E-03 0. -1.
         11   -1    0    0    0    0 -0.00000000000E+00 -0.00000000000E+00 -0.45593999997E+02  0.45594000000E+02  0.51100000000E-03 0.  1.
    9900012    2    1    2    0    0  0.40081444030E+02 -0.11766471206E+02  0.11775024944E+02  0.47787271750E+02  0.20000003219E+02 0.  0.
        -12    1    1    2    0    0 -0.40081444030E+02  0.11766471206E+02 -0.11775024944E+02  0.43400728250E+02  0.00000000000E+00 0.  1.
         11    1    3    3    0    0  0.11057132449E+02 -0.88298496491E+00  0.51079005101E+01  0.12211899456E+02  0.51100000000E-03 0. -1.
        -11    1    3    3    0    0  0.19793139147E+02 -0.14554129897E+02  0.21486797990E+01  0.24661870965E+02  0.51100000000E-03 0.  1.
        -12    1    3    3    0    0  0.92311724338E+01  0.36706436556E+01  0.45184446350E+01  0.10913501329E+02  0.00000000000E+00 0.  1.
</event>
<event>
 7    1  0.1322363E-009  0.4778727E+02  0.7816164E-02  0.1312668E+00
        -11   -1    0    0    0    0  0.00000000000E+00  0.00000000000E+00  0.45593999997E+02  0.45594000000E+02  0.51100000000E-03 0.  1.
         11   -1    0    0    0    0 -0.00000000000E+00 -0.00000000000E+00 -0.45593999997E+02  0.45594000000E+02  0.51100000000E-03 0. -1.
    9900012    2    1    2    0    0  0.18635373463E+02 -0.34293628153E+02 -0.18981385643E+02  0.47787273314E+02  0.20000010347E+02 0.  0.
        -12    1    1    2    0    0 -0.18635373463E+02  0.34293628153E+02  0.18981385643E+02  0.43400726686E+02  0.00000000000E+00 0.  1.
         11    1    3    3    0    0  0.26769660606E+01 -0.10910708308E+02  0.86442708996E+00  0.11267516920E+02  0.51100000000E-03 0. -1.
        -11    1    3    3    0    0  0.16814626067E+00 -0.10514294091E+01  0.14904052633E+01  0.18316891323E+01  0.51100000000E-03 0.  1.
         12    1    3    3    0    0  0.15790261142E+02 -0.22331490435E+02 -0.21336217996E+02  0.34688067262E+02  0.00000000000E+00 0. -1.
</event>
<event>
 7    1  0.1322363E-009  0.4778727E+02  0.7816164E-02  0.1312668E+00
        -11   -1    0    0    0    0  0.00000000000E+00  0.00000000000E+00  0.45593999997E+02  0.45594000000E+02  0.51100000000E-03 0. -1.
         11   -1    0    0    0    0 -0.00000000000E+00 -0.00000000000E+00 -0.45593999997E+02  0.45594000000E+02  0.51100000000E-03 0.  1.
    9900012    2    1    2    0    0  0.95287666880E+01  0.41701197468E+02  0.73373095107E+01  0.47787269871E+02  0.19999994649E+02 0.  0.
        -12    1    1    2    0    0 -0.95287666880E+01 -0.41701197468E+02 -0.73373095107E+01  0.43400730129E+02  0.00000000000E+00 0.  1.
         11    1    3    3    0    0  0.71018931789E+01  0.78846706513E+01  0.56299570127E+01  0.12012549031E+02  0.51100000000E-03 0. -1.
        -11    1    3    3    0    0  0.48110959604E+01  0.17072165431E+02 -0.34976094978E+01  0.18078682178E+02  0.51100000000E-03 0.  1.
        -12    1    3    3    0    0 -0.23842224514E+01  0.16744361386E+02  0.52049619958E+01  0.17696038661E+02  0.00000000000E+00 0.  1.
</event>
<event>
 7    1  0.1322363E-009  0.4778727E+02  0.7816164E-02  0.1312668E+00
        -11   -1    0    0    0    0  0.00000000000E+00  0.00000000000E+00  0.45593999997E+02  0.45594000000E+02  0.51100000000E-03 0. -1.
         11   -1    0    0    0    0 -0.00000000000E+00 -0.00000000000E+00 -0.45593999997E+02  0.45594000000E+02  0.51100000000E-03 0.  1.
    9900012    2    1    2    0    0 -0.27422892818E+02 -0.33541424061E+02 -0.25652999706E+01  0.47787274862E+02  0.20000017406E+02 0.  0.
        -12    1    1    2    0    0  0.27422892818E+02  0.33541424061E+02  0.25652999706E+01  0.43400725138E+02  0.00000000000E+00 0.  1.
         11    1    3    3    0    0 -0.64408924727E+01 -0.26857431953E+01 -0.13578255197E+01  0.71092898913E+01  0.51100000000E-03 0. -1.
        -11    1    3    3    0    0 -0.19605131270E+02 -0.32404132858E+02  0.67376143767E+00  0.37879320917E+02  0.51100000000E-03 0.  1.
        -12    1    3    3    0    0 -0.13768690749E+01  0.15484519915E+01 -0.18812358886E+01  0.27986640541E+01  0.00000000000E+00 0.  1.
</event>
<event>
 7    1  0.1322363E-009  0.4778727E+02  0.7816164E-02  0.1312668E+00
        -11   -1    0    0    0    0  0.00000000000E+00  0.00000000000E+00  0.45593999997E+02  0.45594000000E+02  0.51100000000E-03 0. -1.
         11   -1    0    0    0    0 -0.00000000000E+00 -0.00000000000E+00 -0.45593999997E+02  0.45594000000E+02  0.51100000000E-03 0.  1.
    9900012    2    1    2    0    0 -0.29362729029E+02  0.29788513390E+02  0.11580070898E+02  0.47787269269E+02  0.19999991904E+02 0.  0.
        -12    1    1    2    0    0  0.29362729029E+02 -0.29788513390E+02 -0.11580070898E+02  0.43400730731E+02  0.00000000000E+00 0.  1.
         11    1    3    3    0    0 -0.13317909863E+02  0.11800364501E+02  0.69432195728E+01  0.19100356640E+02  0.51100000000E-03 0. -1.
        -11    1    3    3    0    0 -0.27282877754E+01 -0.26134245858E+01  0.69946695279E+00  0.38422384791E+01  0.51100000000E-03 0.  1.
        -12    1    3    3    0    0 -0.13316531391E+02  0.20601573474E+02  0.39373843721E+01  0.24844674150E+02  0.00000000000E+00 0.  1.
</event>
<event>
 7    1  0.1322363E-009  0.4778727E+02  0.7816164E-02  0.1312668E+00
        -11   -1    0    0    0    0  0.00000000000E+00  0.00000000000E+00  0.45593999997E+02  0.45594000000E+02  0.51100000000E-03 0.  1.
         11   -1    0    0    0    0 -0.00000000000E+00 -0.00000000000E+00 -0.45593999997E+02  0.45594000000E+02  0.51100000000E-03 0. -1.
    9900012    2    1    2    0    0 -0.36400063379E+02 -0.98239367781E+01 -0.21497654902E+02  0.47787268277E+02  0.19999987383E+02 0.  0.
        -12    1    1    2    0    0  0.36400063379E+02  0.98239367781E+01  0.21497654902E+02  0.43400731723E+02  0.00000000000E+00 0.  1.
         11    1    3    3    0    0 -0.12427024787E+01  0.28617246350E+01 -0.16498304215E+01  0.35292659319E+01  0.51100000000E-03 0.  1.
        -11    1    3    3    0    0 -0.21250857923E+02 -0.12501770743E+02 -0.78064446675E+01  0.25861821529E+02  0.51100000000E-03 0. -1.
         12    1    3    3    0    0 -0.13906502976E+02 -0.18389066978E+00 -0.12041379813E+02  0.18396180816E+02  0.00000000000E+00 0. -1.
</event>
<event>
 7    1  0.1322363E-009  0.4778727E+02  0.7816164E-02  0.1312668E+00
        -11   -1    0    0    0    0  0.00000000000E+00  0.00000000000E+00  0.45593999997E+02  0.45594000000E+02  0.51100000000E-03 0.  1.
         11   -1    0    0    0    0 -0.00000000000E+00 -0.00000000000E+00 -0.45593999997E+02  0.45594000000E+02  0.51100000000E-03 0. -1.
    9900012    2    1    2    0    0 -0.20038627154E+02 -0.16403464174E+02 -0.34828198217E+02  0.47787267216E+02  0.19999982545E+02 0.  0.
        -12    1    1    2    0    0  0.20038627154E+02  0.16403464174E+02  0.34828198217E+02  0.43400732784E+02  0.00000000000E+00 0.  1.
         11    1    3    3    0    0 -0.99284081630E+01 -0.38254938141E+01 -0.75341867536E+01  0.13037318048E+02  0.51100000000E-03 0. -1.
        -11    1    3    3    0    0  0.27364236211E+01 -0.43262046318E+00 -0.77232847566E+00  0.28760504576E+01  0.51100000000E-03 0.  1.
         12    1    3    3    0    0 -0.12846642612E+02 -0.12145349897E+02 -0.26521682988E+02  0.31873898711E+02  0.00000000000E+00 0. -1.
</event>
<event>
 7    1  0.1322363E-009  0.4778727E+02  0.7816164E-02  0.1312668E+00
        -11   -1    0    0    0    0  0.00000000000E+00  0.00000000000E+00  0.45593999997E+02  0.45594000000E+02  0.51100000000E-03 0.  1.
         11   -1    0    0    0    0 -0.00000000000E+00 -0.00000000000E+00 -0.45593999997E+02  0.45594000000E+02  0.51100000000E-03 0. -1.
    9900012    2    1    2    0    0 -0.36596749914E+02  0.22865169484E+02 -0.46352123701E+01  0.47787271049E+02  0.20000000019E+02 0.  0.
        -12    1    1    2    0    0  0.36596749914E+02 -0.22865169484E+02  0.46352123701E+01  0.43400728951E+02  0.00000000000E+00 0.  1.
         11    1    3    3    0    0 -0.60575927667E+00  0.36354152091E+01 -0.23688570951E+01  0.43811724735E+01  0.51100000000E-03 0. -1.
        -11    1    3    3    0    0 -0.23813337531E+02  0.18532966797E+02  0.25704477462E+01  0.30284535733E+02  0.51100000000E-03 0.  1.
         12    1    3    3    0    0 -0.12177653106E+02  0.69678747826E+00 -0.48368030212E+01  0.13121562842E+02  0.00000000000E+00 0. -1.
</event>
<event>
 7    1  0.3716157E-009  0.4778727E+02  0.7816164E-02  0.1312668E+00
        -11   -1    0    0    0    0  0.00000000000E+00  0.00000000000E+00  0.45593999997E+02  0.45594000000E+02  0.51100000000E-03 0.  1.
         11   -1    0    0    0    0 -0.00000000000E+00 -0.00000000000E+00 -0.45593999997E+02  0.45594000000E+02  0.51100000000E-03 0. -1.
    9900012    2    1    2    0    0  0.22517929308E+02  0.14897339155E+02 -0.33979928480E+02  0.47787269663E+02  0.19999993704E+02 0.  0.
        -12    1    1    2    0    0 -0.22517929308E+02 -0.14897339155E+02  0.33979928480E+02  0.43400730337E+02  0.00000000000E+00 0.  1.
         11    1    3    3    0    0  0.65282191300E+01  0.12605273070E+01 -0.14362909410E+02  0.15827183612E+02  0.51100000000E-03 0. -1.
        -11    1    3    3    0    0  0.12371260874E+02  0.15738475796E+02 -0.19228498339E+02  0.27757573104E+02  0.51100000000E-03 0.  1.
        -12    1    3    3    0    0  0.36184493036E+01 -0.21016639481E+01 -0.38852073139E+00  0.42025129473E+01  0.00000000000E+00 0.  1.
</event>
<event>
 7    1  0.1322363E-009  0.4778728E+02  0.7816164E-02  0.1312668E+00
        -11   -1    0    0    0    0  0.00000000000E+00  0.00000000000E+00  0.45593999997E+02  0.45594000000E+02  0.51100000000E-03 0.  1.
         11   -1    0    0    0    0 -0.00000000000E+00 -0.00000000000E+00 -0.45593999997E+02  0.45594000000E+02  0.51100000000E-03 0. -1.
    9900012    2    1    2    0    0  0.29354625745E+02 -0.30903660257E+02  0.81787784576E+01  0.47787277806E+02  0.20000030831E+02 0.  0.
        -12    1    1    2    0    0 -0.29354625745E+02  0.30903660257E+02 -0.81787784576E+01  0.43400722194E+02  0.00000000000E+00 0.  1.
         11    1    3    3    0    0  0.55240186648E+01 -0.79934592484E+01 -0.35454041097E+01  0.10343116722E+02  0.51100000000E-03 0. -1.
        -11    1    3    3    0    0  0.58646119469E+00  0.96384712001E+00 -0.12526317811E+01  0.16858305502E+01  0.51100000000E-03 0.  1.
         12    1    3    3    0    0  0.23244145885E+02 -0.23874048128E+02  0.12976814348E+02  0.35758330534E+02  0.00000000000E+00 0. -1.
</event>
<event>
 7    1  0.1322363E-009  0.4778727E+02  0.7816164E-02  0.1312668E+00
        -11   -1    0    0    0    0  0.00000000000E+00  0.00000000000E+00  0.45593999997E+02  0.45594000000E+02  0.51100000000E-03 0. -1.
         11   -1    0    0    0    0 -0.00000000000E+00 -0.00000000000E+00 -0.45593999997E+02  0.45594000000E+02  0.51100000000E-03 0.  1.
    9900012    2    1    2    0    0 -0.28920627431E+02 -0.27104054692E+02  0.17680237897E+02  0.47787270930E+02  0.19999999476E+02 0.  0.
        -12    1    1    2    0    0  0.28920627431E+02  0.27104054692E+02 -0.17680237897E+02  0.43400729070E+02  0.00000000000E+00 0.  1.
         11    1    3    3    0    0 -0.63162494857E+01 -0.76419527722E+01  0.12427353494E+02  0.15897596198E+02  0.51100000000E-03 0. -1.
        -11    1    3    3    0    0 -0.52105914611E+01 -0.13789708080E+00  0.23864227661E+01  0.57327386875E+01  0.51100000000E-03 0.  1.
        -12    1    3    3    0    0 -0.17393786484E+02 -0.19324204839E+02  0.28664616372E+01  0.26156936044E+02  0.00000000000E+00 0.  1.
</event>
<event>
 7    1  0.1322363E-009  0.4778727E+02  0.7816164E-02  0.1312668E+00
        -11   -1    0    0    0    0  0.00000000000E+00  0.00000000000E+00  0.45593999997E+02  0.45594000000E+02  0.51100000000E-03 0.  1.
         11   -1    0    0    0    0 -0.00000000000E+00 -0.00000000000E+00 -0.45593999997E+02  0.45594000000E+02  0.51100000000E-03 0. -1.
    9900012    2    1    2    0    0  0.43775593765E+01  0.50878627848E+00 -0.43176402722E+02  0.47787266808E+02  0.19999980685E+02 0.  0.
        -12    1    1    2    0    0 -0.43775593765E+01 -0.50878627848E+00  0.43176402722E+02  0.43400733192E+02  0.00000000000E+00 0.  1.
         11    1    3    3    0    0  0.30431065287E+00  0.55505427749E+01 -0.10697014140E+02  0.12055174899E+02  0.51100000000E-03 0. -1.
        -11    1    3    3    0    0  0.75096384398E+01 -0.25649364472E+01 -0.29511670082E+02  0.30559977744E+02  0.51100000000E-03 0.  1.
         12    1    3    3    0    0 -0.34363897162E+01 -0.24768200492E+01 -0.29677185003E+01  0.51721141649E+01  0.00000000000E+00 0. -1.
</event>
<event>
 7    1  0.1322363E-009  0.4778727E+02  0.7816164E-02  0.1312668E+00
        -11   -1    0    0    0    0  0.00000000000E+00  0.00000000000E+00  0.45593999997E+02  0.45594000000E+02  0.51100000000E-03 0.  1.
         11   -1    0    0    0    0 -0.00000000000E+00 -0.00000000000E+00 -0.45593999997E+02  0.45594000000E+02  0.51100000000E-03 0. -1.
    9900012    2    1    2    0    0 -0.17639676045E+02 -0.39593759773E+02  0.21907530084E+01  0.47787269791E+02  0.19999994284E+02 0.  0.
        -12    1    1    2    0    0  0.17639676045E+02  0.39593759773E+02 -0.21907530084E+01  0.43400730209E+02  0.00000000000E+00 0.  1.
         11    1    3    3    0    0 -0.13160020184E+02 -0.17715774285E+02 -0.68685430636E+01  0.23113019574E+02  0.51100000000E-03 0. -1.
        -11    1    3    3    0    0  0.27459820946E+00 -0.26489140643E+01  0.28848786872E+01  0.39261527222E+01  0.51100000000E-03 0.  1.
         12    1    3    3    0    0 -0.47542540707E+01 -0.19229071424E+02  0.61744173848E+01  0.20748097494E+02  0.00000000000E+00 0. -1.
</event>
<event>
 7    1  0.1322363E-009  0.4778727E+02  0.7816164E-02  0.1312668E+00
        -11   -1    0    0    0    0  0.00000000000E+00  0.00000000000E+00  0.45593999997E+02  0.45594000000E+02  0.51100000000E-03 0.  1.
         11   -1    0    0    0    0 -0.00000000000E+00 -0.00000000000E+00 -0.45593999997E+02  0.45594000000E+02  0.51100000000E-03 0. -1.
    9900012    2    1    2    0    0  0.76685480241E+01 -0.30390981542E+02 -0.30020079396E+02  0.47787267808E+02  0.19999985243E+02 0.  0.
        -12    1    1    2    0    0 -0.76685480241E+01  0.30390981542E+02  0.30020079396E+02  0.43400732192E+02  0.00000000000E+00 0.  1.
         11    1    3    3    0    0  0.51167377549E+01 -0.24190464817E+01 -0.14716450081E+02  0.15767266547E+02  0.51100000000E-03 0. -1.
        -11    1    3    3    0    0  0.31038919866E+00 -0.10377104708E+02 -0.52977174684E+01  0.11655318709E+02  0.51100000000E-03 0.  1.
         12    1    3    3    0    0  0.22414210705E+01 -0.17594830352E+02 -0.10005911847E+02  0.20364682551E+02  0.00000000000E+00 0. -1.
</event>
<event>
 7    1  0.1322363E-009  0.4778727E+02  0.7816164E-02  0.1312668E+00
        -11   -1    0    0    0    0  0.00000000000E+00  0.00000000000E+00  0.45593999997E+02  0.45594000000E+02  0.51100000000E-03 0.  1.
         11   -1    0    0    0    0 -0.00000000000E+00 -0.00000000000E+00 -0.45593999997E+02  0.45594000000E+02  0.51100000000E-03 0. -1.
    9900012    2    1    2    0    0 -0.43030534771E+02 -0.34174635522E+01 -0.45074564513E+01  0.47787272547E+02  0.20000006849E+02 0.  0.
        -12    1    1    2    0    0  0.43030534771E+02  0.34174635522E+01  0.45074564513E+01  0.43400727453E+02  0.00000000000E+00 0.  1.
         11    1    3    3    0    0 -0.18647609861E+01  0.26861872231E+01 -0.99144853881E+00  0.34170024582E+01  0.51100000000E-03 0. -1.
        -11    1    3    3    0    0 -0.15412737584E+02  0.32564470950E+01 -0.59992665212E+01  0.16856693821E+02  0.51100000000E-03 0.  1.
         12    1    3    3    0    0 -0.25753036201E+02 -0.93600978703E+01  0.24832586088E+01  0.27513576267E+02  0.00000000000E+00 0. -1.
</event>
<event>
 7    1  0.1322363E-009  0.4778727E+02  0.7816164E-02  0.1312668E+00
        -11   -1    0    0    0    0  0.00000000000E+00  0.00000000000E+00  0.45593999997E+02  0.45594000000E+02  0.51100000000E-03 0. -1.
         11   -1    0    0    0    0 -0.00000000000E+00 -0.00000000000E+00 -0.45593999997E+02  0.45594000000E+02  0.51100000000E-03 0.  1.
    9900012    2    1    2    0    0  0.33338302795E+02  0.17633365274E+02 -0.21476624593E+02  0.47787269499E+02  0.19999992952E+02 0.  0.
        -12    1    1    2    0    0 -0.33338302795E+02 -0.17633365274E+02  0.21476624593E+02  0.43400730501E+02  0.00000000000E+00 0.  1.
         11    1    3    3    0    0  0.20510556680E+02  0.12347635134E+02 -0.32771581245E+01  0.24163749593E+02  0.51100000000E-03 0. -1.
        -11    1    3    3    0    0  0.18688947375E+00  0.17824960655E+01 -0.34298866977E+01  0.38699280250E+01  0.51100000000E-03 0.  1.
         12    1    3    3    0    0  0.12640856641E+02  0.35032340745E+01 -0.14769579770E+02  0.19753591881E+02  0.00000000000E+00 0. -1.
</event>
<event>
 7    1  0.1322363E-009  0.4778728E+02  0.7816164E-02  0.1312668E+00
        -11   -1    0    0    0    0  0.00000000000E+00  0.00000000000E+00  0.45593999997E+02  0.45594000000E+02  0.51100000000E-03 0.  1.
         11   -1    0    0    0    0 -0.00000000000E+00 -0.00000000000E+00 -0.45593999997E+02  0.45594000000E+02  0.51100000000E-03 0. -1.
    9900012    2    1    2    0    0 -0.29573132343E+02  0.23942823729E+02 -0.20875677954E+02  0.47787275412E+02  0.20000019915E+02 0.  0.
        -12    1    1    2    0    0  0.29573132343E+02 -0.23942823729E+02  0.20875677954E+02  0.43400724588E+02  0.00000000000E+00 0.  1.
         11    1    3    3    0    0 -0.12717365520E+02  0.26286115569E+01 -0.11931056196E+02  0.17634939373E+02  0.51100000000E-03 0. -1.
        -11    1    3    3    0    0 -0.10488352487E+01  0.71630987909E+01 -0.43460095533E+01  0.84438047683E+01  0.51100000000E-03 0.  1.
         12    1    3    3    0    0 -0.15806931574E+02  0.14151113381E+02 -0.45986122046E+01  0.21708531271E+02  0.00000000000E+00 0. -1.
</event>
<event>
 7    1  0.1322363E-009  0.4778727E+02  0.7816164E-02  0.1312668E+00
        -11   -1    0    0    0    0  0.00000000000E+00  0.00000000000E+00  0.45593999997E+02  0.45594000000E+02  0.51100000000E-03 0.  1.
         11   -1    0    0    0    0 -0.00000000000E+00 -0.00000000000E+00 -0.45593999997E+02  0.45594000000E+02  0.51100000000E-03 0. -1.
    9900012    2    1    2    0    0 -0.30388973789E+02 -0.81324342934E+01 -0.29899779059E+02  0.47787274162E+02  0.20000014214E+02 0.  0.
        -12    1    1    2    0    0  0.30388973789E+02  0.81324342934E+01  0.29899779059E+02  0.43400725838E+02  0.00000000000E+00 0.  1.
         11    1    3    3    0    0 -0.10678994908E+02  0.28537193984E+01 -0.52353340311E+01  0.12230836820E+02  0.51100000000E-03 0.  1.
        -11    1    3    3    0    0 -0.73467661690E+01 -0.84617640437E+01 -0.51857899481E+01  0.12347827401E+02  0.51100000000E-03 0. -1.
         12    1    3    3    0    0 -0.12363212712E+02 -0.25243896480E+01 -0.19478655080E+02  0.23208609941E+02  0.00000000000E+00 0. -1.
</event>
<event>
 7    1  0.1322363E-009  0.4778727E+02  0.7816164E-02  0.1312668E+00
        -11   -1    0    0    0    0  0.00000000000E+00  0.00000000000E+00  0.45593999997E+02  0.45594000000E+02  0.51100000000E-03 0.  1.
         11   -1    0    0    0    0 -0.00000000000E+00 -0.00000000000E+00 -0.45593999997E+02  0.45594000000E+02  0.51100000000E-03 0. -1.
    9900012    2    1    2    0    0 -0.32209077607E+02  0.20013243839E+02 -0.21110865867E+02  0.47787271125E+02  0.20000000367E+02 0.  0.
        -12    1    1    2    0    0  0.32209077607E+02 -0.20013243839E+02  0.21110865867E+02  0.43400728875E+02  0.00000000000E+00 0.  1.
         11    1    3    3    0    0 -0.25909637624E+02  0.20700082399E+02 -0.11484624381E+02  0.35095574230E+02  0.51100000000E-03 0. -1.
        -11    1    3    3    0    0 -0.12654636271E+01  0.15976328858E+01 -0.52798659009E+01  0.56595771239E+01  0.51100000000E-03 0.  1.
         12    1    3    3    0    0 -0.50339763561E+01 -0.22844714462E+01 -0.43463755851E+01  0.70321197707E+01  0.00000000000E+00 0. -1.
</event>
<event>
 7    1  0.1322363E-009  0.4778728E+02  0.7816164E-02  0.1312668E+00
        -11   -1    0    0    0    0  0.00000000000E+00  0.00000000000E+00  0.45593999997E+02  0.45594000000E+02  0.51100000000E-03 0.  1.
         11   -1    0    0    0    0 -0.00000000000E+00 -0.00000000000E+00 -0.45593999997E+02  0.45594000000E+02  0.51100000000E-03 0. -1.
    9900012    2    1    2    0    0 -0.24259448285E+02 -0.28308848587E+02 -0.22219606309E+02  0.47787278301E+02  0.20000033087E+02 0.  0.
        -12    1    1    2    0    0  0.24259448285E+02  0.28308848587E+02  0.22219606309E+02  0.43400721699E+02  0.00000000000E+00 0.  1.
         11    1    3    3    0    0 -0.14377983353E+02 -0.16698646652E+02 -0.90779781158E+01  0.23832349701E+02  0.51100000000E-03 0. -1.
        -11    1    3    3    0    0  0.20772800775E+01 -0.29812087108E+01  0.73334588860E+00  0.37068172805E+01  0.51100000000E-03 0.  1.
         12    1    3    3    0    0 -0.11958745009E+02 -0.86289932239E+01 -0.13874974082E+02  0.20248111320E+02  0.00000000000E+00 0. -1.
</event>
<event>
 7    1  0.1322363E-009  0.4778727E+02  0.7816164E-02  0.1312668E+00
        -11   -1    0    0    0    0  0.00000000000E+00  0.00000000000E+00  0.45593999997E+02  0.45594000000E+02  0.51100000000E-03 0.  1.
         11   -1    0    0    0    0 -0.00000000000E+00 -0.00000000000E+00 -0.45593999997E+02  0.45594000000E+02  0.51100000000E-03 0. -1.
    9900012    2    1    2    0    0 -0.18649001266E+02  0.26588463599E+02 -0.28790474448E+02  0.47787273466E+02  0.20000011039E+02 0.  0.
        -12    1    1    2    0    0  0.18649001266E+02 -0.26588463599E+02  0.28790474448E+02  0.43400726534E+02  0.00000000000E+00 0.  1.
         11    1    3    3    0    0 -0.16253595505E+02  0.22020107979E+02 -0.25579447572E+02  0.37461615830E+02  0.51100000000E-03 0. -1.
        -11    1    3    3    0    0  0.71308630849E+00  0.62086522491E+01 -0.25480184770E+01  0.67489446030E+01  0.51100000000E-03 0.  1.
         12    1    3    3    0    0 -0.31084920697E+01 -0.16402966294E+01 -0.66300839934E+00  0.35767130326E+01  0.00000000000E+00 0. -1.
</event>
<event>
 7    1  0.1322363E-009  0.4778727E+02  0.7816164E-02  0.1312668E+00
        -11   -1    0    0    0    0  0.00000000000E+00  0.00000000000E+00  0.45593999997E+02  0.45594000000E+02  0.51100000000E-03 0.  1.
         11   -1    0    0    0    0 -0.00000000000E+00 -0.00000000000E+00 -0.45593999997E+02  0.45594000000E+02  0.51100000000E-03 0. -1.
    9900012    2    1    2    0    0 -0.21089692596E+02  0.97992981650E+01 -0.36644535443E+02  0.47787270097E+02  0.19999995679E+02 0.  0.
        -12    1    1    2    0    0  0.21089692596E+02 -0.97992981650E+01  0.36644535443E+02  0.43400729903E+02  0.00000000000E+00 0.  1.
         11    1    3    3    0    0 -0.18288288509E+02  0.43386602109E+01 -0.17273039239E+02  0.25527306043E+02  0.51100000000E-03 0. -1.
        -11    1    3    3    0    0 -0.46553360768E+01 -0.53379362529E+00 -0.86317700673E+01  0.98216365428E+01  0.51100000000E-03 0.  1.
        -12    1    3    3    0    0  0.18539319892E+01  0.59944315794E+01 -0.10739726137E+02  0.12438327511E+02  0.00000000000E+00 0.  1.
</event>
<event>
 7    1  0.1322363E-009  0.4778727E+02  0.7816164E-02  0.1312668E+00
        -11   -1    0    0    0    0  0.00000000000E+00  0.00000000000E+00  0.45593999997E+02  0.45594000000E+02  0.51100000000E-03 0.  1.
         11   -1    0    0    0    0 -0.00000000000E+00 -0.00000000000E+00 -0.45593999997E+02  0.45594000000E+02  0.51100000000E-03 0. -1.
    9900012    2    1    2    0    0 -0.24104717770E+02 -0.53604458990E+01 -0.35691054014E+02  0.47787272637E+02  0.20000007262E+02 0.  0.
        -12    1    1    2    0    0  0.24104717770E+02  0.53604458990E+01  0.35691054014E+02  0.43400727363E+02  0.00000000000E+00 0.  1.
         11    1    3    3    0    0 -0.10829439935E+02 -0.19172882188E+01 -0.68013279172E+01  0.12931002479E+02  0.51100000000E-03 0. -1.
        -11    1    3    3    0    0 -0.47210854299E+01  0.37358360000E+01 -0.19028173695E+02  0.19957868440E+02  0.51100000000E-03 0.  1.
         12    1    3    3    0    0 -0.85541924049E+01 -0.71789936802E+01 -0.98615524016E+01  0.14898401717E+02  0.00000000000E+00 0. -1.
</event>
<event>
 7    1  0.1322363E-009  0.4778727E+02  0.7816164E-02  0.1312668E+00
        -11   -1    0    0    0    0  0.00000000000E+00  0.00000000000E+00  0.45593999997E+02  0.45594000000E+02  0.51100000000E-03 0. -1.
         11   -1    0    0    0    0 -0.00000000000E+00 -0.00000000000E+00 -0.45593999997E+02  0.45594000000E+02  0.51100000000E-03 0.  1.
    9900012    2    1    2    0    0  0.28241857075E+02  0.12175854261E+02  0.30623021665E+02  0.47787269892E+02  0.19999994744E+02 0.  0.
        -12    1    1    2    0    0 -0.28241857075E+02 -0.12175854261E+02 -0.30623021665E+02  0.43400730108E+02  0.00000000000E+00 0.  1.
         11    1    3    3    0    0  0.12679336696E+02  0.67089383209E+01  0.63766011858E+01  0.15698295302E+02  0.51100000000E-03 0. -1.
        -11    1    3    3    0    0  0.12976928318E+02  0.55297660857E+01  0.92435887857E+01  0.16864842585E+02  0.51100000000E-03 0.  1.
        -12    1    3    3    0    0  0.25855920610E+01 -0.62850146006E-01  0.15002831694E+02  0.15224132004E+02  0.00000000000E+00 0.  1.
</event>
<event>
 7    1  0.1322363E-009  0.4778727E+02  0.7816164E-02  0.1312668E+00
        -11   -1    0    0    0    0  0.00000000000E+00  0.00000000000E+00  0.45593999997E+02  0.45594000000E+02  0.51100000000E-03 0.  1.
         11   -1    0    0    0    0 -0.00000000000E+00 -0.00000000000E+00 -0.45593999997E+02  0.45594000000E+02  0.51100000000E-03 0. -1.
    9900012    2    1    2    0    0 -0.26107663169E+02  0.14205066317E+01 -0.34640954960E+02  0.47787266414E+02  0.19999978890E+02 0.  0.
        -12    1    1    2    0    0  0.26107663169E+02 -0.14205066317E+01  0.34640954960E+02  0.43400733586E+02  0.00000000000E+00 0.  1.
         11    1    3    3    0    0 -0.14378103531E+02 -0.47176435129E+01 -0.61787276441E+01  0.16345112328E+02  0.51100000000E-03 0. -1.
        -11    1    3    3    0    0 -0.49377318815E+01  0.35198396479E+01 -0.12128842096E+02  0.13560209369E+02  0.51100000000E-03 0.  1.
         12    1    3    3    0    0 -0.67918277567E+01  0.26183104968E+01 -0.16333385220E+02  0.17881944717E+02  0.00000000000E+00 0. -1.
</event>
<event>
 7    1  0.1322363E-009  0.4778727E+02  0.7816164E-02  0.1312668E+00
        -11   -1    0    0    0    0  0.00000000000E+00  0.00000000000E+00  0.45593999997E+02  0.45594000000E+02  0.51100000000E-03 0.  1.
         11   -1    0    0    0    0 -0.00000000000E+00 -0.00000000000E+00 -0.45593999997E+02  0.45594000000E+02  0.51100000000E-03 0. -1.
    9900012    2    1    2    0    0 -0.27061397402E+02  0.64685421352E+01 -0.33308590006E+02  0.47787269190E+02  0.19999991543E+02 0.  0.
        -12    1    1    2    0    0  0.27061397402E+02 -0.64685421352E+01  0.33308590006E+02  0.43400730810E+02  0.00000000000E+00 0.  1.
         11    1    3    3    0    0 -0.86919348291E+01  0.52930892606E+01 -0.79715635440E+01  0.12927194227E+02  0.51100000000E-03 0. -1.
        -11    1    3    3    0    0  0.19486336515E+01 -0.26260046907E+01 -0.36233050519E+01  0.48807185438E+01  0.51100000000E-03 0.  1.
        -12    1    3    3    0    0 -0.20318096224E+02  0.38014575653E+01 -0.21713721410E+02  0.29979356419E+02  0.00000000000E+00 0.  1.
</event>
<event>
 7    1  0.1322363E-009  0.4778729E+02  0.7816164E-02  0.1312668E+00
        -11   -1    0    0    0    0  0.00000000000E+00  0.00000000000E+00  0.45593999997E+02  0.45594000000E+02  0.51100000000E-03 0.  1.
         11   -1    0    0    0    0 -0.00000000000E+00 -0.00000000000E+00 -0.45593999997E+02  0.45594000000E+02  0.51100000000E-03 0. -1.
    9900012    2    1    2    0    0  0.80417393125E+01  0.27335886169E+02 -0.32736855003E+02  0.47787286650E+02  0.20000071151E+02 0.  0.
        -12    1    1    2    0    0 -0.80417393125E+01 -0.27335886169E+02  0.32736855003E+02  0.43400713350E+02  0.00000000000E+00 0.  1.
         11    1    3    3    0    0 -0.24390326946E+01  0.35790787703E+01  0.84150779844E+00  0.44121220478E+01  0.51100000000E-03 0. -1.
        -11    1    3    3    0    0  0.94142174383E+01  0.14189337175E+02 -0.16171616190E+02  0.23483737989E+02  0.51100000000E-03 0.  1.
        -12    1    3    3    0    0  0.10665545687E+01  0.95674702236E+01 -0.17406746611E+02  0.19891426613E+02  0.00000000000E+00 0.  1.
</event>
<event>
 7    1  0.1322363E-009  0.4778728E+02  0.7816164E-02  0.1312668E+00
        -11   -1    0    0    0    0  0.00000000000E+00  0.00000000000E+00  0.45593999997E+02  0.45594000000E+02  0.51100000000E-03 0. -1.
         11   -1    0    0    0    0 -0.00000000000E+00 -0.00000000000E+00 -0.45593999997E+02  0.45594000000E+02  0.51100000000E-03 0.  1.
    9900012    2    1    2    0    0 -0.17348119190E+02  0.34077065958E+02  0.20528498639E+02  0.47787275120E+02  0.20000018584E+02 0.  0.
        -12    1    1    2    0    0  0.17348119190E+02 -0.34077065958E+02 -0.20528498639E+02  0.43400724880E+02  0.00000000000E+00 0.  1.
         11    1    3    3    0    0 -0.42205833887E+01  0.65753759358E+01  0.46026194280E-01  0.78135146707E+01  0.51100000000E-03 0. -1.
        -11    1    3    3    0    0 -0.70366260297E+01  0.65408753867E+01  0.14406540104E+02  0.17316049051E+02  0.51100000000E-03 0.  1.
        -12    1    3    3    0    0 -0.60909097721E+01  0.20960814635E+02  0.60759323399E+01  0.22657711398E+02  0.00000000000E+00 0.  1.
</event>
<event>
 7    1  0.1322363E-009  0.4778727E+02  0.7816164E-02  0.1312668E+00
        -11   -1    0    0    0    0  0.00000000000E+00  0.00000000000E+00  0.45593999997E+02  0.45594000000E+02  0.51100000000E-03 0.  1.
         11   -1    0    0    0    0 -0.00000000000E+00 -0.00000000000E+00 -0.45593999997E+02  0.45594000000E+02  0.51100000000E-03 0. -1.
    9900012    2    1    2    0    0 -0.39804880317E+02  0.16641784689E+02  0.47165541384E+01  0.47787269849E+02  0.19999994548E+02 0.  0.
        -12    1    1    2    0    0  0.39804880317E+02 -0.16641784689E+02 -0.47165541384E+01  0.43400730151E+02  0.00000000000E+00 0.  1.
         11    1    3    3    0    0 -0.20157502718E+02  0.28257041870E+01  0.17977680941E+01  0.20433832003E+02  0.51100000000E-03 0. -1.
        -11    1    3    3    0    0 -0.14570902377E+02  0.40473475543E+01 -0.20758595561E+01  0.15264383756E+02  0.51100000000E-03 0.  1.
        -12    1    3    3    0    0 -0.50764752228E+01  0.97687329477E+01  0.49946456003E+01  0.12089054089E+02  0.00000000000E+00 0.  1.
</event>
<event>
 7    1  0.1322363E-009  0.4778727E+02  0.7816164E-02  0.1312668E+00
        -11   -1    0    0    0    0  0.00000000000E+00  0.00000000000E+00  0.45593999997E+02  0.45594000000E+02  0.51100000000E-03 0. -1.
         11   -1    0    0    0    0 -0.00000000000E+00 -0.00000000000E+00 -0.45593999997E+02  0.45594000000E+02  0.51100000000E-03 0.  1.
    9900012    2    1    2    0    0  0.21703366893E+02  0.18050457477E+02  0.32966166015E+02  0.47787271304E+02  0.20000001184E+02 0.  0.
        -12    1    1    2    0    0 -0.21703366893E+02 -0.18050457477E+02 -0.32966166015E+02  0.43400728696E+02  0.00000000000E+00 0.  1.
         11    1    3    3    0    0  0.10168175189E+02  0.92107090166E+00  0.92335552869E+01  0.13765852744E+02  0.51100000000E-03 0. -1.
        -11    1    3    3    0    0  0.14021330908E+02  0.16171442493E+02  0.19146825866E+02  0.28717837901E+02  0.51100000000E-03 0.  1.
        -12    1    3    3    0    0 -0.24861392036E+01  0.95794408226E+00  0.45857848619E+01  0.53035806588E+01  0.00000000000E+00 0.  1.
</event>
<event>
 7    1  0.1322363E-009  0.4778726E+02  0.7816164E-02  0.1312668E+00
        -11   -1    0    0    0    0  0.00000000000E+00  0.00000000000E+00  0.45593999997E+02  0.45594000000E+02  0.51100000000E-03 0.  1.
         11   -1    0    0    0    0 -0.00000000000E+00 -0.00000000000E+00 -0.45593999997E+02  0.45594000000E+02  0.51100000000E-03 0. -1.
    9900012    2    1    2    0    0 -0.20203661296E+02  0.33403401188E+02 -0.18964423147E+02  0.47787257080E+02  0.19999936331E+02 0.  0.
        -12    1    1    2    0    0  0.20203661296E+02 -0.33403401188E+02  0.18964423147E+02  0.43400742920E+02  0.00000000000E+00 0.  1.
         11    1    3    3    0    0  0.17192706754E+01  0.22524455934E+01  0.17374411209E+01  0.33238689380E+01  0.51100000000E-03 0. -1.
        -11    1    3    3    0    0 -0.13006692598E+02  0.19092785021E+02 -0.69727750358E+01  0.24131474968E+02  0.51100000000E-03 0.  1.
         12    1    3    3    0    0 -0.89162393733E+01  0.12058170574E+02 -0.13729089233E+02  0.20331913174E+02  0.00000000000E+00 0. -1.
</event>
<event>
 7    1  0.1322363E-009  0.4778727E+02  0.7816164E-02  0.1312668E+00
        -11   -1    0    0    0    0  0.00000000000E+00  0.00000000000E+00  0.45593999997E+02  0.45594000000E+02  0.51100000000E-03 0.  1.
         11   -1    0    0    0    0 -0.00000000000E+00 -0.00000000000E+00 -0.45593999997E+02  0.45594000000E+02  0.51100000000E-03 0. -1.
    9900012    2    1    2    0    0 -0.13342544027E+02  0.16308018530E+02 -0.37942695543E+02  0.47787273110E+02  0.20000009419E+02 0.  0.
        -12    1    1    2    0    0  0.13342544027E+02 -0.16308018530E+02  0.37942695543E+02  0.43400726890E+02  0.00000000000E+00 0.  1.
         11    1    3    3    0    0 -0.64977517155E+01  0.94534985652E+01 -0.22002869603E+02  0.24813618912E+02  0.51100000000E-03 0. -1.
        -11    1    3    3    0    0  0.21104133381E+01  0.63886304554E+01 -0.33481428763E+01  0.75152181961E+01  0.51100000000E-03 0.  1.
         12    1    3    3    0    0 -0.89552056498E+01  0.46588950985E+00 -0.12591683063E+02  0.15458436002E+02  0.00000000000E+00 0. -1.
</event>
<event>
 7    1  0.1322363E-009  0.4778727E+02  0.7816164E-02  0.1312668E+00
        -11   -1    0    0    0    0  0.00000000000E+00  0.00000000000E+00  0.45593999997E+02  0.45594000000E+02  0.51100000000E-03 0.  1.
         11   -1    0    0    0    0 -0.00000000000E+00 -0.00000000000E+00 -0.45593999997E+02  0.45594000000E+02  0.51100000000E-03 0. -1.
    9900012    2    1    2    0    0  0.37193166341E+02 -0.22366115729E+02 -0.21995371810E+00  0.47787272645E+02  0.20000007298E+02 0.  0.
        -12    1    1    2    0    0 -0.37193166341E+02  0.22366115729E+02  0.21995371810E+00  0.43400727355E+02  0.00000000000E+00 0.  1.
         11    1    3    3    0    0  0.35103178898E+01 -0.58450847158E+01 -0.51772566984E+01  0.85610358138E+01  0.51100000000E-03 0. -1.
        -11    1    3    3    0    0  0.23917016126E+02 -0.85970689130E+01 -0.72578811508E+00  0.25425578123E+02  0.51100000000E-03 0.  1.
        -12    1    3    3    0    0  0.97658323255E+01 -0.79239621002E+01  0.56830910953E+01  0.13800658708E+02  0.00000000000E+00 0.  1.
</event>
<event>
 7    1  0.1322363E-009  0.4778727E+02  0.7816164E-02  0.1312668E+00
        -11   -1    0    0    0    0  0.00000000000E+00  0.00000000000E+00  0.45593999997E+02  0.45594000000E+02  0.51100000000E-03 0.  1.
         11   -1    0    0    0    0 -0.00000000000E+00 -0.00000000000E+00 -0.45593999997E+02  0.45594000000E+02  0.51100000000E-03 0. -1.
    9900012    2    1    2    0    0 -0.22125150815E+02  0.21075564087E+02 -0.30820798362E+02  0.47787270608E+02  0.19999998008E+02 0.  0.
        -12    1    1    2    0    0  0.22125150815E+02 -0.21075564087E+02  0.30820798362E+02  0.43400729392E+02  0.00000000000E+00 0.  1.
         11    1    3    3    0    0 -0.93892313866E+01  0.89862242841E+01 -0.23383330349E+01  0.13205214673E+02  0.51100000000E-03 0. -1.
        -11    1    3    3    0    0  0.41337036565E+00  0.57459370286E+00 -0.63067220317E+01  0.63463198807E+01  0.51100000000E-03 0.  1.
        -12    1    3    3    0    0 -0.13149289794E+02  0.11514746100E+02 -0.22175743295E+02  0.28235736054E+02  0.00000000000E+00 0.  1.
</event>
<event>
 7    1  0.1322363E-009  0.4778727E+02  0.7816164E-02  0.1312668E+00
        -11   -1    0    0    0    0  0.00000000000E+00  0.00000000000E+00  0.45593999997E+02  0.45594000000E+02  0.51100000000E-03 0.  1.
         11   -1    0    0    0    0 -0.00000000000E+00 -0.00000000000E+00 -0.45593999997E+02  0.45594000000E+02  0.51100000000E-03 0. -1.
    9900012    2    1    2    0    0  0.25928916347E+02 -0.18039403994E+02 -0.29763978791E+02  0.47787271517E+02  0.20000002156E+02 0.  0.
        -12    1    1    2    0    0 -0.25928916347E+02  0.18039403994E+02  0.29763978791E+02  0.43400728483E+02  0.00000000000E+00 0.  1.
         11    1    3    3    0    0  0.56750661458E+01 -0.71059764364E+01 -0.10725969977E+02  0.14062279654E+02  0.51100000000E-03 0. -1.
        -11    1    3    3    0    0  0.82027913194E+01 -0.78001889526E+01 -0.17956354754E+02  0.21226384748E+02  0.51100000000E-03 0.  1.
        -12    1    3    3    0    0  0.12051058882E+02 -0.31332386048E+01 -0.10816540599E+01  0.12498607115E+02  0.00000000000E+00 0.  1.
</event>
<event>
 7    1  0.1322363E-009  0.4778727E+02  0.7816164E-02  0.1312668E+00
        -11   -1    0    0    0    0  0.00000000000E+00  0.00000000000E+00  0.45593999997E+02  0.45594000000E+02  0.51100000000E-03 0.  1.
         11   -1    0    0    0    0 -0.00000000000E+00 -0.00000000000E+00 -0.45593999997E+02  0.45594000000E+02  0.51100000000E-03 0. -1.
    9900012    2    1    2    0    0 -0.12390686828E+00  0.39348061651E+01 -0.43221812569E+02  0.47787272653E+02  0.20000007335E+02 0.  0.
        -12    1    1    2    0    0  0.12390686828E+00 -0.39348061651E+01  0.43221812569E+02  0.43400727347E+02  0.00000000000E+00 0.  1.
         11    1    3    3    0    0 -0.28793713557E+01 -0.40272622147E+01 -0.15765109813E+02  0.16524173445E+02  0.51100000000E-03 0. -1.
        -11    1    3    3    0    0  0.23397766262E+01 -0.30748093092E+01 -0.81769358372E+01  0.90438535424E+01  0.51100000000E-03 0.  1.
         12    1    3    3    0    0  0.41568786120E+00  0.11036877689E+02 -0.19279766919E+02  0.22219245666E+02  0.00000000000E+00 0. -1.
</event>
<event>
 7    1  0.1745166E-009  0.4778727E+02  0.7816164E-02  0.1312668E+00
        -11   -1    0    0    0    0  0.00000000000E+00  0.00000000000E+00  0.45593999997E+02  0.45594000000E+02  0.51100000000E-03 0. -1.
         11   -1    0    0    0    0 -0.00000000000E+00 -0.00000000000E+00 -0.45593999997E+02  0.45594000000E+02  0.51100000000E-03 0.  1.
    9900012    2    1    2    0    0  0.31236836329E+00  0.13053118009E+02  0.41390120879E+02  0.47787267631E+02  0.19999984438E+02 0.  0.
        -12    1    1    2    0    0 -0.31236836329E+00 -0.13053118009E+02 -0.41390120879E+02  0.43400732369E+02  0.00000000000E+00 0.  1.
         11    1    3    3    0    0 -0.31803307836E+01 -0.23504090641E+01  0.14900400733E+02  0.15416253401E+02  0.51100000000E-03 0. -1.
        -11    1    3    3    0    0 -0.22754023889E+01  0.64012936869E+01  0.52278364582E+01  0.85722978945E+01  0.51100000000E-03 0.  1.
         12    1    3    3    0    0  0.57681015358E+01  0.90022333861E+01  0.21261883688E+02  0.23798716336E+02  0.00000000000E+00 0. -1.
</event>
<event>
 7    1  0.1322363E-009  0.4778727E+02  0.7816164E-02  0.1312668E+00
        -11   -1    0    0    0    0  0.00000000000E+00  0.00000000000E+00  0.45593999997E+02  0.45594000000E+02  0.51100000000E-03 0.  1.
         11   -1    0    0    0    0 -0.00000000000E+00 -0.00000000000E+00 -0.45593999997E+02  0.45594000000E+02  0.51100000000E-03 0. -1.
    9900012    2    1    2    0    0 -0.82508178928E+00  0.26989482651E+02 -0.33978085778E+02  0.47787271355E+02  0.20000001417E+02 0.  0.
        -12    1    1    2    0    0  0.82508178928E+00 -0.26989482651E+02  0.33978085778E+02  0.43400728645E+02  0.00000000000E+00 0.  1.
         11    1    3    3    0    0  0.32151977940E+01  0.91576841767E+01 -0.10770231344E+02  0.14498226092E+02  0.51100000000E-03 0. -1.
        -11    1    3    3    0    0 -0.87656597930E+01  0.15907486313E+02 -0.14689219408E+02  0.23359325322E+02  0.51100000000E-03 0.  1.
        -12    1    3    3    0    0  0.47253802097E+01  0.19243121616E+01 -0.85186350259E+01  0.99297199419E+01  0.00000000000E+00 0.  1.
</event>
<event>
 7    1  0.1322363E-009  0.4778728E+02  0.7816164E-02  0.1312668E+00
        -11   -1    0    0    0    0  0.00000000000E+00  0.00000000000E+00  0.45593999997E+02  0.45594000000E+02  0.51100000000E-03 0. -1.
         11   -1    0    0    0    0 -0.00000000000E+00 -0.00000000000E+00 -0.45593999997E+02  0.45594000000E+02  0.51100000000E-03 0.  1.
    9900012    2    1    2    0    0 -0.23038932757E+01 -0.22058675802E+02  0.37305894768E+02  0.47787275503E+02  0.20000020330E+02 0.  0.
        -12    1    1    2    0    0  0.23038932757E+01  0.22058675802E+02 -0.37305894768E+02  0.43400724497E+02  0.00000000000E+00 0.  1.
         11    1    3    3    0    0 -0.15430230871E+01  0.20920645533E+00  0.55318086333E+01  0.57467899391E+01  0.51100000000E-03 0. -1.
        -11    1    3    3    0    0  0.55361185186E+01 -0.17595529630E+02  0.15971916487E+02  0.24399864503E+02  0.51100000000E-03 0.  1.
         12    1    3    3    0    0 -0.62969887073E+01 -0.46723526272E+01  0.15802169648E+02  0.17640621061E+02  0.00000000000E+00 0. -1.
</event>
<event>
 7    1  0.1322363E-009  0.4778728E+02  0.7816164E-02  0.1312668E+00
        -11   -1    0    0    0    0  0.00000000000E+00  0.00000000000E+00  0.45593999997E+02  0.45594000000E+02  0.51100000000E-03 0.  1.
         11   -1    0    0    0    0 -0.00000000000E+00 -0.00000000000E+00 -0.45593999997E+02  0.45594000000E+02  0.51100000000E-03 0. -1.
    9900012    2    1    2    0    0 -0.13557313094E+02  0.31803877464E+02 -0.26236149228E+02  0.47787275508E+02  0.20000020352E+02 0.  0.
        -12    1    1    2    0    0  0.13557313094E+02 -0.31803877464E+02  0.26236149228E+02  0.43400724492E+02  0.00000000000E+00 0.  1.
         11    1    3    3    0    0 -0.86134575414E+01  0.85655364843E+01 -0.79936288779E+01  0.14541601321E+02  0.51100000000E-03 0. -1.
        -11    1    3    3    0    0  0.20731748296E+01  0.13166077868E+02 -0.15902129959E+02  0.20749009562E+02  0.51100000000E-03 0.  1.
         12    1    3    3    0    0 -0.70170303820E+01  0.10072263112E+02 -0.23403903916E+01  0.12496664626E+02  0.00000000000E+00 0. -1.
</event>
<event>
 7    1  0.1322363E-009  0.4778727E+02  0.7816164E-02  0.1312668E+00
        -11   -1    0    0    0    0  0.00000000000E+00  0.00000000000E+00  0.45593999997E+02  0.45594000000E+02  0.51100000000E-03 0.  1.
         11   -1    0    0    0    0 -0.00000000000E+00 -0.00000000000E+00 -0.45593999997E+02  0.45594000000E+02  0.51100000000E-03 0. -1.
    9900012    2    1    2    0    0  0.22159076562E+02 -0.18527340852E+02 -0.32393465770E+02  0.47787266623E+02  0.19999979840E+02 0.  0.
        -12    1    1    2    0    0 -0.22159076562E+02  0.18527340852E+02  0.32393465770E+02  0.43400733377E+02  0.00000000000E+00 0.  1.
         11    1    3    3    0    0 -0.17385785415E+01 -0.12467828345E+01 -0.12779724189E+01  0.24920546836E+01  0.51100000000E-03 0. -1.
        -11    1    3    3    0    0  0.10310141053E+02 -0.22220808080E+01 -0.36672196250E+01  0.11166250566E+02  0.51100000000E-03 0.  1.
         12    1    3    3    0    0  0.13587514050E+02 -0.15058477209E+02 -0.27448273726E+02  0.34128961374E+02  0.00000000000E+00 0. -1.
</event>
<event>
 7    1  0.1322363E-009  0.4778727E+02  0.7816164E-02  0.1312668E+00
        -11   -1    0    0    0    0  0.00000000000E+00  0.00000000000E+00  0.45593999997E+02  0.45594000000E+02  0.51100000000E-03 0.  1.
         11   -1    0    0    0    0 -0.00000000000E+00 -0.00000000000E+00 -0.45593999997E+02  0.45594000000E+02  0.51100000000E-03 0. -1.
    9900012    2    1    2    0    0 -0.24568638470E+02 -0.23368454438E+02 -0.27090967277E+02  0.47787272275E+02  0.20000005610E+02 0.  0.
        -12    1    1    2    0    0  0.24568638470E+02  0.23368454438E+02  0.27090967277E+02  0.43400727725E+02  0.00000000000E+00 0.  1.
         11    1    3    3    0    0 -0.81504582325E+01 -0.19067824152E+02 -0.15530076250E+02  0.25907434375E+02  0.51100000000E-03 0. -1.
        -11    1    3    3    0    0 -0.28339262732E+01 -0.25294163882E+01  0.22948325544E+00  0.38054892212E+01  0.51100000000E-03 0.  1.
        -12    1    3    3    0    0 -0.13584253964E+02 -0.17712138969E+01 -0.11790374282E+02  0.18074348678E+02  0.00000000000E+00 0.  1.
</event>
<event>
 7    1  0.1322363E-009  0.4778727E+02  0.7816164E-02  0.1312668E+00
        -11   -1    0    0    0    0  0.00000000000E+00  0.00000000000E+00  0.45593999997E+02  0.45594000000E+02  0.51100000000E-03 0.  1.
         11   -1    0    0    0    0 -0.00000000000E+00 -0.00000000000E+00 -0.45593999997E+02  0.45594000000E+02  0.51100000000E-03 0. -1.
    9900012    2    1    2    0    0  0.13907834564E+02  0.40706032122E+02  0.57631949696E+01  0.47787270402E+02  0.19999997072E+02 0.  0.
        -12    1    1    2    0    0 -0.13907834564E+02 -0.40706032122E+02 -0.57631949696E+01  0.43400729598E+02  0.00000000000E+00 0.  1.
         11    1    3    3    0    0  0.46990449870E+01  0.30581360891E+02 -0.23205685468E+01  0.31027176739E+02  0.51100000000E-03 0. -1.
        -11    1    3    3    0    0 -0.33166065600E-01  0.70496287077E+00  0.22018755935E+01  0.23122130152E+01  0.51100000000E-03 0.  1.
         12    1    3    3    0    0  0.92419556428E+01  0.94197083597E+01  0.58818879228E+01  0.14447880648E+02  0.00000000000E+00 0. -1.
</event>
<event>
 7    1  0.1322363E-009  0.4778727E+02  0.7816164E-02  0.1312668E+00
        -11   -1    0    0    0    0  0.00000000000E+00  0.00000000000E+00  0.45593999997E+02  0.45594000000E+02  0.51100000000E-03 0.  1.
         11   -1    0    0    0    0 -0.00000000000E+00 -0.00000000000E+00 -0.45593999997E+02  0.45594000000E+02  0.51100000000E-03 0. -1.
    9900012    2    1    2    0    0 -0.94497152124E+01 -0.27530323539E+02 -0.32193286059E+02  0.47787268451E+02  0.19999988174E+02 0.  0.
        -12    1    1    2    0    0  0.94497152124E+01  0.27530323539E+02  0.32193286059E+02  0.43400731549E+02  0.00000000000E+00 0.  1.
         11    1    3    3    0    0 -0.16376439535E+01 -0.20738153593E+02 -0.18613307351E+02  0.27914299257E+02  0.51100000000E-03 0. -1.
        -11    1    3    3    0    0  0.15223726131E+01 -0.44449447729E+00  0.64602125852E+00  0.17124653109E+01  0.51100000000E-03 0.  1.
        -12    1    3    3    0    0 -0.93344438720E+01 -0.63476754687E+01 -0.14225999966E+02  0.18160503883E+02  0.00000000000E+00 0.  1.
</event>
<event>
 7    1  0.1322363E-009  0.4778727E+02  0.7816164E-02  0.1312668E+00
        -11   -1    0    0    0    0  0.00000000000E+00  0.00000000000E+00  0.45593999997E+02  0.45594000000E+02  0.51100000000E-03 0.  1.
         11   -1    0    0    0    0 -0.00000000000E+00 -0.00000000000E+00 -0.45593999997E+02  0.45594000000E+02  0.51100000000E-03 0. -1.
    9900012    2    1    2    0    0 -0.99782766010E+01 -0.16495560375E+02 -0.38883851566E+02  0.47787269261E+02  0.19999991870E+02 0.  0.
        -12    1    1    2    0    0  0.99782766010E+01  0.16495560375E+02  0.38883851566E+02  0.43400730739E+02  0.00000000000E+00 0.  1.
         11    1    3    3    0    0 -0.11342810746E+02 -0.77033852293E+01 -0.92507194731E+01  0.16540172630E+02  0.51100000000E-03 0. -1.
        -11    1    3    3    0    0  0.19292004747E+01 -0.11426400479E+01 -0.66979991893E+01  0.70633302451E+01  0.51100000000E-03 0.  1.
         12    1    3    3    0    0 -0.56466632995E+00 -0.76495350982E+01 -0.22935132904E+02  0.24183766386E+02  0.00000000000E+00 0. -1.
</event>
<event>
 7    1  0.1322363E-009  0.4778727E+02  0.7816164E-02  0.1312668E+00
        -11   -1    0    0    0    0  0.00000000000E+00  0.00000000000E+00  0.45593999997E+02  0.45594000000E+02  0.51100000000E-03 0.  1.
         11   -1    0    0    0    0 -0.00000000000E+00 -0.00000000000E+00 -0.45593999997E+02  0.45594000000E+02  0.51100000000E-03 0. -1.
    9900012    2    1    2    0    0 -0.19687258901E+02  0.16194217538E+02 -0.35125239892E+02  0.47787270488E+02  0.19999997461E+02 0.  0.
        -12    1    1    2    0    0  0.19687258901E+02 -0.16194217538E+02  0.35125239892E+02  0.43400729512E+02  0.00000000000E+00 0.  1.
         11    1    3    3    0    0 -0.13218207007E+02  0.54403578055E+01 -0.24680980074E+02  0.28521382632E+02  0.51100000000E-03 0. -1.
        -11    1    3    3    0    0  0.67112260573E+00  0.64106589361E+01 -0.85310662433E+01  0.10692335809E+02  0.51100000000E-03 0.  1.
        -12    1    3    3    0    0 -0.71401744996E+01  0.43432007966E+01 -0.19131935750E+01  0.85735520469E+01  0.00000000000E+00 0.  1.
</event>
<event>
 7    1  0.1322363E-009  0.4778727E+02  0.7816164E-02  0.1312668E+00
        -11   -1    0    0    0    0  0.00000000000E+00  0.00000000000E+00  0.45593999997E+02  0.45594000000E+02  0.51100000000E-03 0. -1.
         11   -1    0    0    0    0 -0.00000000000E+00 -0.00000000000E+00 -0.45593999997E+02  0.45594000000E+02  0.51100000000E-03 0.  1.
    9900012    2    1    2    0    0  0.22398611078E+02 -0.36974553378E+02  0.38480870127E+01  0.47787272479E+02  0.20000006539E+02 0.  0.
        -12    1    1    2    0    0 -0.22398611078E+02  0.36974553378E+02 -0.38480870127E+01  0.43400727521E+02  0.00000000000E+00 0.  1.
         11    1    3    3    0    0  0.17918653607E+02 -0.24672824513E+02 -0.27640004689E+01  0.30618068446E+02  0.51100000000E-03 0. -1.
        -11    1    3    3    0    0  0.55116068696E+01 -0.13283151921E+02  0.63527689951E+01  0.15721883138E+02  0.51100000000E-03 0.  1.
        -12    1    3    3    0    0 -0.10316493987E+01  0.98142305508E+00  0.25931848644E+00  0.14473208947E+01  0.00000000000E+00 0.  1.
</event>
<event>
 7    1  0.1322363E-009  0.4778727E+02  0.7816164E-02  0.1312668E+00
        -11   -1    0    0    0    0  0.00000000000E+00  0.00000000000E+00  0.45593999997E+02  0.45594000000E+02  0.51100000000E-03 0. -1.
         11   -1    0    0    0    0 -0.00000000000E+00 -0.00000000000E+00 -0.45593999997E+02  0.45594000000E+02  0.51100000000E-03 0.  1.
    9900012    2    1    2    0    0  0.50249692966E+01 -0.32447629412E+02  0.28381767670E+02  0.47787266055E+02  0.19999977252E+02 0.  0.
        -12    1    1    2    0    0 -0.50249692966E+01  0.32447629412E+02 -0.28381767670E+02  0.43400733945E+02  0.00000000000E+00 0.  1.
         11    1    3    3    0    0  0.21858989613E+01 -0.24014259560E+02  0.27492076550E+02  0.36568799402E+02  0.51100000000E-03 0. -1.
        -11    1    3    3    0    0 -0.11416436936E+01 -0.51235587220E+00  0.19220937733E+01  0.22935351747E+01  0.51100000000E-03 0.  1.
        -12    1    3    3    0    0  0.39807140289E+01 -0.79210139800E+01 -0.10324026531E+01  0.89249314781E+01  0.00000000000E+00 0.  1.
</event>
<event>
 7    1  0.1322363E-009  0.4778726E+02  0.7816164E-02  0.1312668E+00
        -11   -1    0    0    0    0  0.00000000000E+00  0.00000000000E+00  0.45593999997E+02  0.45594000000E+02  0.51100000000E-03 0. -1.
         11   -1    0    0    0    0 -0.00000000000E+00 -0.00000000000E+00 -0.45593999997E+02  0.45594000000E+02  0.51100000000E-03 0.  1.
    9900012    2    1    2    0    0 -0.24555438542E+02 -0.33890008595E+02  0.11494447656E+02  0.47787256095E+02  0.19999931839E+02 0.  0.
        -12    1    1    2    0    0  0.24555438542E+02  0.33890008595E+02 -0.11494447656E+02  0.43400743905E+02  0.00000000000E+00 0.  1.
         11    1    3    3    0    0 -0.59262118376E+01 -0.14477444598E+02  0.84142655247E+01  0.17762777188E+02  0.51100000000E-03 0. -1.
        -11    1    3    3    0    0 -0.61027316293E+01 -0.12989238061E+02 -0.30472525229E+01  0.14671379858E+02  0.51100000000E-03 0.  1.
        -12    1    3    3    0    0 -0.12526495075E+02 -0.64233259358E+01  0.61274346545E+01  0.15353099049E+02  0.00000000000E+00 0.  1.
</event>
<event>
 7    1  0.1322363E-009  0.4778726E+02  0.7816164E-02  0.1312668E+00
        -11   -1    0    0    0    0  0.00000000000E+00  0.00000000000E+00  0.45593999997E+02  0.45594000000E+02  0.51100000000E-03 0.  1.
         11   -1    0    0    0    0 -0.00000000000E+00 -0.00000000000E+00 -0.45593999997E+02  0.45594000000E+02  0.51100000000E-03 0. -1.
    9900012    2    1    2    0    0 -0.44035883582E+01 -0.42687505717E+02  0.64814538793E+01  0.47787262919E+02  0.19999962955E+02 0.  0.
        -12    1    1    2    0    0  0.44035883582E+01  0.42687505717E+02 -0.64814538793E+01  0.43400737081E+02  0.00000000000E+00 0.  1.
         11    1    3    3    0    0 -0.35575870585E+01 -0.26569762209E+02  0.85087231141E+01  0.28124847712E+02  0.51100000000E-03 0. -1.
        -11    1    3    3    0    0 -0.50053183883E+01 -0.71964533477E+01 -0.39802863778E+01  0.96272962385E+01  0.51100000000E-03 0.  1.
         12    1    3    3    0    0  0.41593170886E+01 -0.89212901603E+01  0.19530171430E+01  0.10035118969E+02  0.00000000000E+00 0. -1.
</event>
<event>
 7    1  0.1322363E-009  0.4778727E+02  0.7816164E-02  0.1312668E+00
        -11   -1    0    0    0    0  0.00000000000E+00  0.00000000000E+00  0.45593999997E+02  0.45594000000E+02  0.51100000000E-03 0.  1.
         11   -1    0    0    0    0 -0.00000000000E+00 -0.00000000000E+00 -0.45593999997E+02  0.45594000000E+02  0.51100000000E-03 0. -1.
    9900012    2    1    2    0    0 -0.12407454462E+02 -0.45713590130E+01 -0.41337406354E+02  0.47787269435E+02  0.19999992663E+02 0.  0.
        -12    1    1    2    0    0  0.12407454462E+02  0.45713590130E+01  0.41337406354E+02  0.43400730565E+02  0.00000000000E+00 0.  1.
         11    1    3    3    0    0 -0.75378472525E+01 -0.49500326842E+01 -0.54109133987E+01  0.10516651028E+02  0.51100000000E-03 0. -1.
        -11    1    3    3    0    0  0.24812380285E+01 -0.30495914333E+00 -0.10543652175E+02  0.10835965286E+02  0.51100000000E-03 0.  1.
        -12    1    3    3    0    0 -0.73508452382E+01  0.68363281451E+00 -0.25382840781E+02  0.26434653121E+02  0.00000000000E+00 0.  1.
</event>
<event>
 7    1  0.1322363E-009  0.4778732E+02  0.7816164E-02  0.1312668E+00
        -11   -1    0    0    0    0  0.00000000000E+00  0.00000000000E+00  0.45593999997E+02  0.45594000000E+02  0.51100000000E-03 0. -1.
         11   -1    0    0    0    0 -0.00000000000E+00 -0.00000000000E+00 -0.45593999997E+02  0.45594000000E+02  0.51100000000E-03 0.  1.
    9900012    2    1    2    0    0 -0.88245913897E+01 -0.19410483673E+02  0.37801831360E+02  0.47787323233E+02  0.20000237948E+02 0.  0.
        -12    1    1    2    0    0  0.88245913897E+01  0.19410483673E+02 -0.37801831360E+02  0.43400676767E+02  0.00000000000E+00 0.  1.
         11    1    3    3    0    0 -0.75743707307E+01 -0.13154126452E+02  0.31215227994E+02  0.34710122352E+02  0.51100000000E-03 0. -1.
        -11    1    3    3    0    0  0.28080551787E+01 -0.59940812695E+01  0.60640567569E+01  0.89770244939E+01  0.51100000000E-03 0.  1.
        -12    1    3    3    0    0 -0.40582758378E+01 -0.26227595192E+00  0.52254660901E+00  0.41001763875E+01  0.00000000000E+00 0.  1.
</event>
<event>
 7    1  0.1322363E-009  0.4778727E+02  0.7816164E-02  0.1312668E+00
        -11   -1    0    0    0    0  0.00000000000E+00  0.00000000000E+00  0.45593999997E+02  0.45594000000E+02  0.51100000000E-03 0. -1.
         11   -1    0    0    0    0 -0.00000000000E+00 -0.00000000000E+00 -0.45593999997E+02  0.45594000000E+02  0.51100000000E-03 0.  1.
    9900012    2    1    2    0    0  0.12427632719E+02  0.40972725833E+02  0.71002117637E+01  0.47787270464E+02  0.19999997352E+02 0.  0.
        -12    1    1    2    0    0 -0.12427632719E+02 -0.40972725833E+02 -0.71002117637E+01  0.43400729536E+02  0.00000000000E+00 0.  1.
         11    1    3    3    0    0  0.16530806234E+02  0.29829079216E+02  0.53301440621E+01  0.34517415280E+02  0.51100000000E-03 0. -1.
        -11    1    3    3    0    0 -0.23033290980E+01  0.24631778776E+01  0.27490780341E+01  0.43508620398E+01  0.51100000000E-03 0.  1.
        -12    1    3    3    0    0 -0.17998444175E+01  0.86804687395E+01 -0.97901033251E+00  0.89189931436E+01  0.00000000000E+00 0.  1.
</event>
<event>
 7    1  0.1322363E-009  0.4778729E+02  0.7816164E-02  0.1312668E+00
        -11   -1    0    0    0    0  0.00000000000E+00  0.00000000000E+00  0.45593999997E+02  0.45594000000E+02  0.51100000000E-03 0.  1.
         11   -1    0    0    0    0 -0.00000000000E+00 -0.00000000000E+00 -0.45593999997E+02  0.45594000000E+02  0.51100000000E-03 0. -1.
    9900012    2    1    2    0    0 -0.76495764186E+01 -0.12798918603E+02 -0.40758970572E+02  0.47787285503E+02  0.20000065922E+02 0.  0.
        -12    1    1    2    0    0  0.76495764186E+01  0.12798918603E+02  0.40758970572E+02  0.43400714497E+02  0.00000000000E+00 0.  1.
         11    1    3    3    0    0 -0.75327290545E+01 -0.38160405838E+01 -0.22104422405E+02  0.23662410335E+02  0.51100000000E-03 0. -1.
        -11    1    3    3    0    0 -0.46370505697E+01 -0.75185095304E+01 -0.16882238087E+02  0.19053613480E+02  0.51100000000E-03 0.  1.
        -12    1    3    3    0    0  0.45202032055E+01 -0.14643684884E+01 -0.17723100795E+01  0.50712616878E+01  0.00000000000E+00 0.  1.
</event>
<event>
 7    1  0.1322363E-009  0.4778727E+02  0.7816164E-02  0.1312668E+00
        -11   -1    0    0    0    0  0.00000000000E+00  0.00000000000E+00  0.45593999997E+02  0.45594000000E+02  0.51100000000E-03 0.  1.
         11   -1    0    0    0    0 -0.00000000000E+00 -0.00000000000E+00 -0.45593999997E+02  0.45594000000E+02  0.51100000000E-03 0. -1.
    9900012    2    1    2    0    0  0.26576263765E+02 -0.64289494479E+01 -0.33704511480E+02  0.47787270965E+02  0.19999999636E+02 0.  0.
        -12    1    1    2    0    0 -0.26576263765E+02  0.64289494479E+01  0.33704511480E+02  0.43400729035E+02  0.00000000000E+00 0.  1.
         11    1    3    3    0    0  0.40201764856E+01 -0.40092565442E+01 -0.12005194098E+02  0.13280084435E+02  0.51100000000E-03 0. -1.
        -11    1    3    3    0    0  0.23467674517E+01 -0.12490237554E+01  0.20091095482E+01  0.33322513788E+01  0.51100000000E-03 0.  1.
        -12    1    3    3    0    0  0.20209319827E+02 -0.11706691482E+01 -0.23708426931E+02  0.31174935151E+02  0.00000000000E+00 0.  1.
</event>
<event>
 7    1  0.1322363E-009  0.4778727E+02  0.7816164E-02  0.1312668E+00
        -11   -1    0    0    0    0  0.00000000000E+00  0.00000000000E+00  0.45593999997E+02  0.45594000000E+02  0.51100000000E-03 0. -1.
         11   -1    0    0    0    0 -0.00000000000E+00 -0.00000000000E+00 -0.45593999997E+02  0.45594000000E+02  0.51100000000E-03 0.  1.
    9900012    2    1    2    0    0 -0.15039751272E+02 -0.89849354769E+01  0.39707683377E+02  0.47787270708E+02  0.19999998467E+02 0.  0.
        -12    1    1    2    0    0  0.15039751272E+02  0.89849354769E+01 -0.39707683377E+02  0.43400729292E+02  0.00000000000E+00 0.  1.
         11    1    3    3    0    0  0.25375244741E+01  0.16852704032E+01  0.14849234178E+02  0.15158460434E+02  0.51100000000E-03 0. -1.
        -11    1    3    3    0    0 -0.62011302519E+01 -0.13308647682E+01  0.62667628816E+01  0.89161390022E+01  0.51100000000E-03 0.  1.
         12    1    3    3    0    0 -0.11376145495E+02 -0.93393411120E+01  0.18591686318E+02  0.23712671272E+02  0.00000000000E+00 0. -1.
</event>
<event>
 7    1  0.1322363E-009  0.4778727E+02  0.7816164E-02  0.1312668E+00
        -11   -1    0    0    0    0  0.00000000000E+00  0.00000000000E+00  0.45593999997E+02  0.45594000000E+02  0.51100000000E-03 0. -1.
         11   -1    0    0    0    0 -0.00000000000E+00 -0.00000000000E+00 -0.45593999997E+02  0.45594000000E+02  0.51100000000E-03 0.  1.
    9900012    2    1    2    0    0 -0.36384811707E+02  0.34570969763E+01  0.23405491571E+02  0.47787273300E+02  0.20000010282E+02 0.  0.
        -12    1    1    2    0    0  0.36384811707E+02 -0.34570969763E+01 -0.23405491571E+02  0.43400726700E+02  0.00000000000E+00 0.  1.
         11    1    3    3    0    0 -0.29498403373E+02  0.17086601476E+00  0.24104364007E+02  0.38094689409E+02  0.51100000000E-03 0. -1.
        -11    1    3    3    0    0 -0.11441795175E+01 -0.16980569555E+01 -0.37759203873E+00  0.20820951470E+01  0.51100000000E-03 0.  1.
         12    1    3    3    0    0 -0.57422288161E+01  0.49842879170E+01 -0.32128039732E+00  0.76104887431E+01  0.00000000000E+00 0. -1.
</event>
<event>
 7    1  0.1322363E-009  0.4778726E+02  0.7816164E-02  0.1312668E+00
        -11   -1    0    0    0    0  0.00000000000E+00  0.00000000000E+00  0.45593999997E+02  0.45594000000E+02  0.51100000000E-03 0.  1.
         11   -1    0    0    0    0 -0.00000000000E+00 -0.00000000000E+00 -0.45593999997E+02  0.45594000000E+02  0.51100000000E-03 0. -1.
    9900012    2    1    2    0    0 -0.12728224990E+02 -0.87437488901E+00 -0.41483151175E+02  0.47787261824E+02  0.19999957959E+02 0.  0.
        -12    1    1    2    0    0  0.12728224990E+02  0.87437488901E+00  0.41483151175E+02  0.43400738176E+02  0.00000000000E+00 0.  1.
         11    1    3    3    0    0 -0.30227910736E+01 -0.46687526006E+01 -0.16502860688E+02  0.17414905336E+02  0.51100000000E-03 0. -1.
        -11    1    3    3    0    0 -0.67924379322E+01  0.65136478747E+01 -0.24636305831E+02  0.26372568835E+02  0.51100000000E-03 0.  1.
        -12    1    3    3    0    0 -0.29129959840E+01 -0.27192701631E+01 -0.34398465638E+00  0.39997876527E+01  0.00000000000E+00 0.  1.
</event>
<event>
 7    1  0.1322363E-009  0.4778727E+02  0.7816164E-02  0.1312668E+00
        -11   -1    0    0    0    0  0.00000000000E+00  0.00000000000E+00  0.45593999997E+02  0.45594000000E+02  0.51100000000E-03 0.  1.
         11   -1    0    0    0    0 -0.00000000000E+00 -0.00000000000E+00 -0.45593999997E+02  0.45594000000E+02  0.51100000000E-03 0. -1.
    9900012    2    1    2    0    0 -0.92995525928E+00 -0.13100889189E+02 -0.41365751603E+02  0.47787268209E+02  0.19999987072E+02 0.  0.
        -12    1    1    2    0    0  0.92995525928E+00  0.13100889189E+02  0.41365751603E+02  0.43400731791E+02  0.00000000000E+00 0.  1.
         11    1    3    3    0    0 -0.44992365375E+01 -0.35407292359E+01 -0.25731096933E+02  0.26360372580E+02  0.51100000000E-03 0. -1.
        -11    1    3    3    0    0 -0.30354836750E+01 -0.40526087043E+01 -0.23037825089E+01  0.55628421298E+01  0.51100000000E-03 0.  1.
        -12    1    3    3    0    0  0.66047649532E+01 -0.55075512489E+01 -0.13330872161E+02  0.15864053499E+02  0.00000000000E+00 0.  1.
</event>
<event>
 7    1  0.1322363E-009  0.4778728E+02  0.7816164E-02  0.1312668E+00
        -11   -1    0    0    0    0  0.00000000000E+00  0.00000000000E+00  0.45593999997E+02  0.45594000000E+02  0.51100000000E-03 0. -1.
         11   -1    0    0    0    0 -0.00000000000E+00 -0.00000000000E+00 -0.45593999997E+02  0.45594000000E+02  0.51100000000E-03 0.  1.
    9900012    2    1    2    0    0  0.16945109327E+02  0.34816564609E+00  0.39954534206E+02  0.47787277045E+02  0.20000027359E+02 0.  0.
        -12    1    1    2    0    0 -0.16945109327E+02 -0.34816564609E+00 -0.39954534206E+02  0.43400722955E+02  0.00000000000E+00 0.  1.
         11    1    3    3    0    0  0.14919428618E+02 -0.66360811671E+00  0.23244970071E+02  0.27628940622E+02  0.51100000000E-03 0. -1.
        -11    1    3    3    0    0  0.11779478054E+01 -0.41098851723E+01  0.13242866022E+02  0.13915898027E+02  0.51100000000E-03 0.  1.
        -12    1    3    3    0    0  0.84773290289E+00  0.51216589351E+01  0.34666981130E+01  0.62424383961E+01  0.00000000000E+00 0.  1.
</event>
<event>
 7    1  0.1322363E-009  0.4778727E+02  0.7816164E-02  0.1312668E+00
        -11   -1    0    0    0    0  0.00000000000E+00  0.00000000000E+00  0.45593999997E+02  0.45594000000E+02  0.51100000000E-03 0.  1.
         11   -1    0    0    0    0 -0.00000000000E+00 -0.00000000000E+00 -0.45593999997E+02  0.45594000000E+02  0.51100000000E-03 0. -1.
    9900012    2    1    2    0    0 -0.21963917917E+02 -0.32778034354E+02 -0.18077884833E+02  0.47787272513E+02  0.20000006694E+02 0.  0.
        -12    1    1    2    0    0  0.21963917917E+02  0.32778034354E+02  0.18077884833E+02  0.43400727487E+02  0.00000000000E+00 0.  1.
         11    1    3    3    0    0 -0.47390204579E+01 -0.13004219908E+01 -0.76440631336E+01  0.90874151279E+01  0.51100000000E-03 0. -1.
        -11    1    3    3    0    0 -0.19121618572E+01 -0.13513830034E+02 -0.33171415210E+01  0.14045760687E+02  0.51100000000E-03 0.  1.
         12    1    3    3    0    0 -0.15312735602E+02 -0.17963782330E+02 -0.71166801784E+01  0.24654096698E+02  0.00000000000E+00 0. -1.
</event>
<event>
 7    1  0.1322363E-009  0.4778727E+02  0.7816164E-02  0.1312668E+00
        -11   -1    0    0    0    0  0.00000000000E+00  0.00000000000E+00  0.45593999997E+02  0.45594000000E+02  0.51100000000E-03 0.  1.
         11   -1    0    0    0    0 -0.00000000000E+00 -0.00000000000E+00 -0.45593999997E+02  0.45594000000E+02  0.51100000000E-03 0. -1.
    9900012    2    1    2    0    0  0.12270808751E+01  0.37030823376E+02 -0.22601671301E+02  0.47787272437E+02  0.20000006348E+02 0.  0.
        -12    1    1    2    0    0 -0.12270808751E+01 -0.37030823376E+02  0.22601671301E+02  0.43400727563E+02  0.00000000000E+00 0.  1.
         11    1    3    3    0    0  0.44564779564E+01  0.19621981563E+02 -0.34219692423E+01  0.20410591123E+02  0.51100000000E-03 0. -1.
        -11    1    3    3    0    0 -0.45581161106E+01  0.90052538882E+01 -0.61625648741E+01  0.11825744212E+02  0.51100000000E-03 0.  1.
         12    1    3    3    0    0  0.13287190293E+01  0.84035879254E+01 -0.13017137185E+02  0.15550937102E+02  0.00000000000E+00 0. -1.
</event>
<event>
 7    1  0.1322363E-009  0.4778728E+02  0.7816164E-02  0.1312668E+00
        -11   -1    0    0    0    0  0.00000000000E+00  0.00000000000E+00  0.45593999997E+02  0.45594000000E+02  0.51100000000E-03 0. -1.
         11   -1    0    0    0    0 -0.00000000000E+00 -0.00000000000E+00 -0.45593999997E+02  0.45594000000E+02  0.51100000000E-03 0.  1.
    9900012    2    1    2    0    0 -0.18752478175E+02  0.20697608383E+02  0.33220120445E+02  0.47787276125E+02  0.20000023167E+02 0.  0.
        -12    1    1    2    0    0  0.18752478175E+02 -0.20697608383E+02 -0.33220120445E+02  0.43400723875E+02  0.00000000000E+00 0.  1.
         11    1    3    3    0    0 -0.46651844907E+01  0.88981105764E+01  0.10464627333E+02  0.14506851610E+02  0.51100000000E-03 0. -1.
        -11    1    3    3    0    0 -0.27832535283E+01  0.80971932935E+00 -0.22844473338E+01  0.36906429625E+01  0.51100000000E-03 0.  1.
        -12    1    3    3    0    0 -0.11304040156E+02  0.10989778477E+02  0.25039940446E+02  0.29589781553E+02  0.00000000000E+00 0.  1.
</event>
<event>
 7    1  0.1322363E-009  0.4778728E+02  0.7816164E-02  0.1312668E+00
        -11   -1    0    0    0    0  0.00000000000E+00  0.00000000000E+00  0.45593999997E+02  0.45594000000E+02  0.51100000000E-03 0.  1.
         11   -1    0    0    0    0 -0.00000000000E+00 -0.00000000000E+00 -0.45593999997E+02  0.45594000000E+02  0.51100000000E-03 0. -1.
    9900012    2    1    2    0    0  0.40175486890E+02  0.11646935881E+02 -0.11571586729E+02  0.47787280171E+02  0.20000041613E+02 0.  0.
        -12    1    1    2    0    0 -0.40175486890E+02 -0.11646935881E+02  0.11571586729E+02  0.43400719829E+02  0.00000000000E+00 0.  1.
         11    1    3    3    0    0  0.88352246901E+01  0.12602216010E+01 -0.53338522261E+01  0.10397082939E+02  0.51100000000E-03 0. -1.
        -11    1    3    3    0    0 -0.18855141000E+01  0.13842447270E+01  0.27685153988E+00  0.23554073791E+01  0.51100000000E-03 0.  1.
        -12    1    3    3    0    0  0.33225776299E+02  0.90024695532E+01 -0.65145860426E+01  0.35034789853E+02  0.00000000000E+00 0.  1.
</event>
<event>
 7    1  0.1322363E-009  0.4778728E+02  0.7816164E-02  0.1312668E+00
        -11   -1    0    0    0    0  0.00000000000E+00  0.00000000000E+00  0.45593999997E+02  0.45594000000E+02  0.51100000000E-03 0.  1.
         11   -1    0    0    0    0 -0.00000000000E+00 -0.00000000000E+00 -0.45593999997E+02  0.45594000000E+02  0.51100000000E-03 0. -1.
    9900012    2    1    2    0    0  0.29354875978E+02  0.31966208702E+02  0.27492964065E+00  0.47787276172E+02  0.20000023380E+02 0.  0.
        -12    1    1    2    0    0 -0.29354875978E+02 -0.31966208702E+02 -0.27492964065E+00  0.43400723828E+02  0.00000000000E+00 0.  1.
         11    1    3    3    0    0  0.29618566263E+02  0.24732960236E+02 -0.90939282272E+00  0.38598002346E+02  0.51100000000E-03 0. -1.
        -11    1    3    3    0    0 -0.59805782966E+00  0.11837982267E-01 -0.13917502299E+01  0.15148538771E+01  0.51100000000E-03 0.  1.
        -12    1    3    3    0    0  0.33436754379E+00  0.72214104843E+01  0.25760726932E+01  0.76744199493E+01  0.00000000000E+00 0.  1.
</event>
<event>
 7    1  0.1322363E-009  0.4778727E+02  0.7816164E-02  0.1312668E+00
        -11   -1    0    0    0    0  0.00000000000E+00  0.00000000000E+00  0.45593999997E+02  0.45594000000E+02  0.51100000000E-03 0.  1.
         11   -1    0    0    0    0 -0.00000000000E+00 -0.00000000000E+00 -0.45593999997E+02  0.45594000000E+02  0.51100000000E-03 0. -1.
    9900012    2    1    2    0    0  0.19173999023E+02 -0.12218779015E+02 -0.36968670365E+02  0.47787269733E+02  0.19999994019E+02 0.  0.
        -12    1    1    2    0    0 -0.19173999023E+02  0.12218779015E+02  0.36968670365E+02  0.43400730267E+02  0.00000000000E+00 0.  1.
         11    1    3    3    0    0  0.46241700313E+01  0.36290740761E+00  0.95756095930E+00  0.47361982134E+01  0.51100000000E-03 0.  1.
        -11    1    3    3    0    0  0.95517508147E+01 -0.61876812461E+01 -0.15711983578E+02  0.19400767280E+02  0.51100000000E-03 0. -1.
         12    1    3    3    0    0  0.49980781772E+01 -0.63940051768E+01 -0.22214247747E+02  0.23650304239E+02  0.00000000000E+00 0. -1.
</event>
<event>
 7    1  0.1322363E-009  0.4778727E+02  0.7816164E-02  0.1312668E+00
        -11   -1    0    0    0    0  0.00000000000E+00  0.00000000000E+00  0.45593999997E+02  0.45594000000E+02  0.51100000000E-03 0.  1.
         11   -1    0    0    0    0 -0.00000000000E+00 -0.00000000000E+00 -0.45593999997E+02  0.45594000000E+02  0.51100000000E-03 0. -1.
    9900012    2    1    2    0    0 -0.18370879773E+02 -0.29684016769E+02 -0.25787458420E+02  0.47787273198E+02  0.20000009821E+02 0.  0.
        -12    1    1    2    0    0  0.18370879773E+02  0.29684016769E+02  0.25787458420E+02  0.43400726802E+02  0.00000000000E+00 0.  1.
         11    1    3    3    0    0 -0.11318369310E+02 -0.11750305669E+02 -0.74382481640E+01  0.17930496457E+02  0.51100000000E-03 0. -1.
        -11    1    3    3    0    0  0.35821442340E+01 -0.84021870087E+01 -0.87554895960E+01  0.12652553188E+02  0.51100000000E-03 0.  1.
         12    1    3    3    0    0 -0.10634654696E+02 -0.95315240908E+01 -0.95937206598E+01  0.17204223554E+02  0.00000000000E+00 0. -1.
</event>
<event>
 7    1  0.1322363E-009  0.4778727E+02  0.7816164E-02  0.1312668E+00
        -11   -1    0    0    0    0  0.00000000000E+00  0.00000000000E+00  0.45593999997E+02  0.45594000000E+02  0.51100000000E-03 0. -1.
         11   -1    0    0    0    0 -0.00000000000E+00 -0.00000000000E+00 -0.45593999997E+02  0.45594000000E+02  0.51100000000E-03 0.  1.
    9900012    2    1    2    0    0  0.10611174696E+02 -0.41472950945E+02 -0.71428545499E+01  0.47787273513E+02  0.20000011254E+02 0.  0.
        -12    1    1    2    0    0 -0.10611174696E+02  0.41472950945E+02  0.71428545499E+01  0.43400726487E+02  0.00000000000E+00 0.  1.
         11    1    3    3    0    0  0.11439509563E+02 -0.25455237526E+02 -0.12016070585E+01  0.27933409322E+02  0.51100000000E-03 0. -1.
        -11    1    3    3    0    0  0.35151400667E+00  0.11676104851E+01  0.68378533966E+00  0.13980125156E+01  0.51100000000E-03 0.  1.
         12    1    3    3    0    0 -0.11798488737E+01 -0.17185323904E+02 -0.66250328310E+01  0.18455851675E+02  0.00000000000E+00 0. -1.
</event>
<event>
 7    1  0.1406971E-009  0.4778729E+02  0.7816164E-02  0.1312668E+00
        -11   -1    0    0    0    0  0.00000000000E+00  0.00000000000E+00  0.45593999997E+02  0.45594000000E+02  0.51100000000E-03 0.  1.
         11   -1    0    0    0    0 -0.00000000000E+00 -0.00000000000E+00 -0.45593999997E+02  0.45594000000E+02  0.51100000000E-03 0. -1.
    9900012    2    1    2    0    0  0.43203019660E+02  0.40836796183E+01  0.66631767649E+00  0.47787293483E+02  0.20000102304E+02 0.  0.
        -12    1    1    2    0    0 -0.43203019660E+02 -0.40836796183E+01 -0.66631767649E+00  0.43400706517E+02  0.00000000000E+00 0.  1.
         11    1    3    3    0    0  0.14394986850E+02 -0.10014829544E+01  0.23343773991E+01  0.14617384603E+02  0.51100000000E-03 0. -1.
        -11    1    3    3    0    0  0.17072721999E+02  0.31004249432E+01 -0.86318462784E+01  0.19380382909E+02  0.51100000000E-03 0.  1.
        -12    1    3    3    0    0  0.11735310811E+02  0.19847376295E+01  0.69637865559E+01  0.13789525970E+02  0.00000000000E+00 0.  1.
</event>
<event>
 7    1  0.1639162E-009  0.4778728E+02  0.7816164E-02  0.1312668E+00
        -11   -1    0    0    0    0  0.00000000000E+00  0.00000000000E+00  0.45593999997E+02  0.45594000000E+02  0.51100000000E-03 0. -1.
         11   -1    0    0    0    0 -0.00000000000E+00 -0.00000000000E+00 -0.45593999997E+02  0.45594000000E+02  0.51100000000E-03 0.  1.
    9900012    2    1    2    0    0  0.35293548158E+02 -0.19437159374E+02  0.16130254961E+02  0.47787276145E+02  0.20000023253E+02 0.  0.
        -12    1    1    2    0    0 -0.35293548158E+02  0.19437159374E+02 -0.16130254961E+02  0.43400723855E+02  0.00000000000E+00 0.  1.
         11    1    3    3    0    0  0.23132802195E+02 -0.15188947293E+02  0.11857936320E+02  0.30107163787E+02  0.51100000000E-03 0. -1.
        -11    1    3    3    0    0  0.38931452247E+01 -0.68555960292E+00  0.71997312361E+01  0.82135681554E+01  0.51100000000E-03 0.  1.
        -12    1    3    3    0    0  0.82676007374E+01 -0.35626524774E+01 -0.29274125945E+01  0.94665442019E+01  0.00000000000E+00 0.  1.
</event>
<event>
 7    1  0.1322363E-009  0.4778727E+02  0.7816164E-02  0.1312668E+00
        -11   -1    0    0    0    0  0.00000000000E+00  0.00000000000E+00  0.45593999997E+02  0.45594000000E+02  0.51100000000E-03 0.  1.
         11   -1    0    0    0    0 -0.00000000000E+00 -0.00000000000E+00 -0.45593999997E+02  0.45594000000E+02  0.51100000000E-03 0. -1.
    9900012    2    1    2    0    0 -0.15790539468E+02 -0.21220628437E+02 -0.34408824878E+02  0.47787269160E+02  0.19999991408E+02 0.  0.
        -12    1    1    2    0    0  0.15790539468E+02  0.21220628437E+02  0.34408824878E+02  0.43400730840E+02  0.00000000000E+00 0.  1.
         11    1    3    3    0    0 -0.17700397460E+02 -0.12353218690E+02 -0.28614802087E+02  0.35842893033E+02  0.51100000000E-03 0. -1.
        -11    1    3    3    0    0 -0.48690885026E+00 -0.35253775881E+01  0.20099783268E+00  0.35645150803E+01  0.51100000000E-03 0.  1.
        -12    1    3    3    0    0  0.23967668418E+01 -0.53420321591E+01 -0.59950206233E+01  0.83798610464E+01  0.00000000000E+00 0.  1.
</event>
<event>
 7    1  0.1322363E-009  0.4778727E+02  0.7816164E-02  0.1312668E+00
        -11   -1    0    0    0    0  0.00000000000E+00  0.00000000000E+00  0.45593999997E+02  0.45594000000E+02  0.51100000000E-03 0.  1.
         11   -1    0    0    0    0 -0.00000000000E+00 -0.00000000000E+00 -0.45593999997E+02  0.45594000000E+02  0.51100000000E-03 0. -1.
    9900012    2    1    2    0    0 -0.13519836991E+02  0.39755603354E+02 -0.10969462615E+02  0.47787273044E+02  0.20000009115E+02 0.  0.
        -12    1    1    2    0    0  0.13519836991E+02 -0.39755603354E+02  0.10969462615E+02  0.43400726956E+02  0.00000000000E+00 0.  1.
         11    1    3    3    0    0  0.26302230204E+01  0.12763593616E+02 -0.90897646096E+01  0.15888713480E+02  0.51100000000E-03 0. -1.
        -11    1    3    3    0    0 -0.73783313176E+01  0.16657531065E+02 -0.21182673726E+01  0.18341215095E+02  0.51100000000E-03 0.  1.
         12    1    3    3    0    0 -0.87717286938E+01  0.10334478673E+02  0.23856936734E+00  0.13557344469E+02  0.00000000000E+00 0. -1.
</event>
<event>
 7    1  0.1322363E-009  0.4778732E+02  0.7816164E-02  0.1312668E+00
        -11   -1    0    0    0    0  0.00000000000E+00  0.00000000000E+00  0.45593999997E+02  0.45594000000E+02  0.51100000000E-03 0.  1.
         11   -1    0    0    0    0 -0.00000000000E+00 -0.00000000000E+00 -0.45593999997E+02  0.45594000000E+02  0.51100000000E-03 0. -1.
    9900012    2    1    2    0    0  0.28186572031E+02  0.34841931168E+01 -0.32817626084E+02  0.47787319978E+02  0.20000223107E+02 0.  0.
        -12    1    1    2    0    0 -0.28186572031E+02 -0.34841931168E+01  0.32817626084E+02  0.43400680022E+02  0.00000000000E+00 0.  1.
         11    1    3    3    0    0  0.22218338023E+02 -0.16573655175E+01 -0.12931812655E+02  0.25761078855E+02  0.51100000000E-03 0.  1.
        -11    1    3    3    0    0  0.97362394153E+00  0.32159303621E+01 -0.37967358712E+01  0.50700448924E+01  0.51100000000E-03 0. -1.
        -12    1    3    3    0    0  0.49946100672E+01  0.19256282722E+01 -0.16089077558E+02  0.16956196231E+02  0.00000000000E+00 0.  1.
</event>
<event>
 7    1  0.1322363E-009  0.4778727E+02  0.7816164E-02  0.1312668E+00
        -11   -1    0    0    0    0  0.00000000000E+00  0.00000000000E+00  0.45593999997E+02  0.45594000000E+02  0.51100000000E-03 0.  1.
         11   -1    0    0    0    0 -0.00000000000E+00 -0.00000000000E+00 -0.45593999997E+02  0.45594000000E+02  0.51100000000E-03 0. -1.
    9900012    2    1    2    0    0 -0.34984712101E+02  0.22303226476E+02 -0.12738101179E+02  0.47787271738E+02  0.20000003163E+02 0.  0.
        -12    1    1    2    0    0  0.34984712101E+02 -0.22303226476E+02  0.12738101179E+02  0.43400728262E+02  0.00000000000E+00 0.  1.
         11    1    3    3    0    0 -0.17622303157E+02  0.15799085335E+02 -0.90178159283E+01  0.25327409468E+02  0.51100000000E-03 0. -1.
        -11    1    3    3    0    0 -0.13078832323E+02 -0.53706215679E+00 -0.52025073662E+01  0.14085821731E+02  0.51100000000E-03 0.  1.
         12    1    3    3    0    0 -0.42835766214E+01  0.70412032975E+01  0.14822221158E+01  0.83740405390E+01  0.00000000000E+00 0. -1.
</event>
<event>
 7    1  0.1322363E-009  0.4778729E+02  0.7816164E-02  0.1312668E+00
        -11   -1    0    0    0    0  0.00000000000E+00  0.00000000000E+00  0.45593999997E+02  0.45594000000E+02  0.51100000000E-03 0.  1.
         11   -1    0    0    0    0 -0.00000000000E+00 -0.00000000000E+00 -0.45593999997E+02  0.45594000000E+02  0.51100000000E-03 0. -1.
    9900012    2    1    2    0    0  0.12458266465E+02 -0.11617457359E+02 -0.39918020217E+02  0.47787285066E+02  0.20000063928E+02 0.  0.
        -12    1    1    2    0    0 -0.12458266465E+02  0.11617457359E+02  0.39918020217E+02  0.43400714934E+02  0.00000000000E+00 0.  1.
         11    1    3    3    0    0 -0.43130392476E+01 -0.63015699055E+01 -0.15981522823E+02  0.17712175553E+02  0.51100000000E-03 0. -1.
        -11    1    3    3    0    0  0.62358351955E+01 -0.53760144179E-01 -0.10462542455E+02  0.12180037997E+02  0.51100000000E-03 0.  1.
         12    1    3    3    0    0  0.10535470517E+02 -0.52621273092E+01 -0.13473954939E+02  0.17895071515E+02  0.00000000000E+00 0. -1.
</event>
<event>
 7    1  0.1322363E-009  0.4778727E+02  0.7816164E-02  0.1312668E+00
        -11   -1    0    0    0    0  0.00000000000E+00  0.00000000000E+00  0.45593999997E+02  0.45594000000E+02  0.51100000000E-03 0.  1.
         11   -1    0    0    0    0 -0.00000000000E+00 -0.00000000000E+00 -0.45593999997E+02  0.45594000000E+02  0.51100000000E-03 0. -1.
    9900012    2    1    2    0    0 -0.46297481521E+01  0.21508267681E+02 -0.37411004417E+02  0.47787269613E+02  0.19999993474E+02 0.  0.
        -12    1    1    2    0    0  0.46297481521E+01 -0.21508267681E+02  0.37411004417E+02  0.43400730387E+02  0.00000000000E+00 0.  1.
         11    1    3    3    0    0  0.69744117032E+01  0.10051454763E+02 -0.19921108425E+02  0.23377868222E+02  0.51100000000E-03 0. -1.
        -11    1    3    3    0    0 -0.43516309473E+01  0.41205041185E+01 -0.10010465662E+02  0.11667247710E+02  0.51100000000E-03 0.  1.
        -12    1    3    3    0    0 -0.72525289080E+01  0.73363087997E+01 -0.74794303299E+01  0.12742153681E+02  0.00000000000E+00 0.  1.
</event>
<event>
 7    1  0.1322363E-009  0.4778727E+02  0.7816164E-02  0.1312668E+00
        -11   -1    0    0    0    0  0.00000000000E+00  0.00000000000E+00  0.45593999997E+02  0.45594000000E+02  0.51100000000E-03 0.  1.
         11   -1    0    0    0    0 -0.00000000000E+00 -0.00000000000E+00 -0.45593999997E+02  0.45594000000E+02  0.51100000000E-03 0. -1.
    9900012    2    1    2    0    0  0.31999661950E+02 -0.12960562878E+02 -0.26299593097E+02  0.47787272448E+02  0.20000006398E+02 0.  0.
        -12    1    1    2    0    0 -0.31999661950E+02  0.12960562878E+02  0.26299593097E+02  0.43400727552E+02  0.00000000000E+00 0.  1.
         11    1    3    3    0    0  0.12654825707E+02 -0.16503077162E+01 -0.12158061020E+02  0.17626303562E+02  0.51100000000E-03 0. -1.
        -11    1    3    3    0    0  0.22462165810E+01 -0.72903053269E+01 -0.91252996947E+01  0.11893911697E+02  0.51100000000E-03 0.  1.
         12    1    3    3    0    0  0.17098619662E+02 -0.40199498350E+01 -0.50162323824E+01  0.18267057188E+02  0.00000000000E+00 0. -1.
</event>
<event>
 7    1  0.1322363E-009  0.4778727E+02  0.7816164E-02  0.1312668E+00
        -11   -1    0    0    0    0  0.00000000000E+00  0.00000000000E+00  0.45593999997E+02  0.45594000000E+02  0.51100000000E-03 0.  1.
         11   -1    0    0    0    0 -0.00000000000E+00 -0.00000000000E+00 -0.45593999997E+02  0.45594000000E+02  0.51100000000E-03 0. -1.
    9900012    2    1    2    0    0 -0.38770005124E+01  0.11777437141E+02 -0.41591872461E+02  0.47787274046E+02  0.20000013684E+02 0.  0.
        -12    1    1    2    0    0  0.38770005124E+01 -0.11777437141E+02  0.41591872461E+02  0.43400725954E+02  0.00000000000E+00 0.  1.
         11    1    3    3    0    0 -0.61842142158E+01  0.58593301662E+01 -0.33145265973E+02  0.34222578982E+02  0.51100000000E-03 0. -1.
        -11    1    3    3    0    0 -0.28340225912E+01  0.44193427913E+01 -0.39065383727E+01  0.65439527102E+01  0.51100000000E-03 0.  1.
        -12    1    3    3    0    0  0.51412362946E+01  0.14987641831E+01 -0.45400681148E+01  0.70207423540E+01  0.00000000000E+00 0.  1.
</event>
<event>
 7    1  0.1322363E-009  0.4778727E+02  0.7816164E-02  0.1312668E+00
        -11   -1    0    0    0    0  0.00000000000E+00  0.00000000000E+00  0.45593999997E+02  0.45594000000E+02  0.51100000000E-03 0.  1.
         11   -1    0    0    0    0 -0.00000000000E+00 -0.00000000000E+00 -0.45593999997E+02  0.45594000000E+02  0.51100000000E-03 0. -1.
    9900012    2    1    2    0    0 -0.71607280073E+01 -0.14594733950E+02 -0.40241036385E+02  0.47787270813E+02  0.19999998943E+02 0.  0.
        -12    1    1    2    0    0  0.71607280073E+01  0.14594733950E+02  0.40241036385E+02  0.43400729187E+02  0.00000000000E+00 0.  1.
         11    1    3    3    0    0 -0.56653390751E+01 -0.16211709056E+01 -0.12560640264E+02  0.13874218754E+02  0.51100000000E-03 0. -1.
        -11    1    3    3    0    0  0.18400281200E+01 -0.30226495022E+01  0.74136995739E+00  0.36154865745E+01  0.51100000000E-03 0.  1.
        -12    1    3    3    0    0 -0.33354170522E+01 -0.99509135420E+01 -0.28421766079E+02  0.30297565484E+02  0.00000000000E+00 0.  1.
</event>
<event>
 7    1  0.1322363E-009  0.4778727E+02  0.7816164E-02  0.1312668E+00
        -11   -1    0    0    0    0  0.00000000000E+00  0.00000000000E+00  0.45593999997E+02  0.45594000000E+02  0.51100000000E-03 0.  1.
         11   -1    0    0    0    0 -0.00000000000E+00 -0.00000000000E+00 -0.45593999997E+02  0.45594000000E+02  0.51100000000E-03 0. -1.
    9900012    2    1    2    0    0  0.43364380724E+02 -0.17752257682E+01 -0.51119923253E-01  0.47787267802E+02  0.19999985216E+02 0.  0.
        -12    1    1    2    0    0 -0.43364380724E+02  0.17752257682E+01  0.51119923253E-01  0.43400732198E+02  0.00000000000E+00 0.  1.
         11    1    3    3    0    0  0.84906372492E+01  0.36807526165E+01 -0.38482374740E+01  0.10022364623E+02  0.51100000000E-03 0. -1.
        -11    1    3    3    0    0  0.60480194713E+01 -0.61908663171E+01 -0.18108202994E+00  0.86566827505E+01  0.51100000000E-03 0.  1.
        -12    1    3    3    0    0  0.28825724003E+02  0.73488793240E+00  0.39781995806E+01  0.29108220428E+02  0.00000000000E+00 0.  1.
</event>
<event>
 7    1  0.1322363E-009  0.4778727E+02  0.7816164E-02  0.1312668E+00
        -11   -1    0    0    0    0  0.00000000000E+00  0.00000000000E+00  0.45593999997E+02  0.45594000000E+02  0.51100000000E-03 0. -1.
         11   -1    0    0    0    0 -0.00000000000E+00 -0.00000000000E+00 -0.45593999997E+02  0.45594000000E+02  0.51100000000E-03 0.  1.
    9900012    2    1    2    0    0  0.31058887295E+02 -0.25035074796E+02  0.17094261000E+02  0.47787271790E+02  0.20000003397E+02 0.  0.
        -12    1    1    2    0    0 -0.31058887295E+02  0.25035074796E+02 -0.17094261000E+02  0.43400728210E+02  0.00000000000E+00 0.  1.
         11    1    3    3    0    0  0.79352153734E+01 -0.14458461691E+02  0.14065810225E+02  0.21676295234E+02  0.51100000000E-03 0. -1.
        -11    1    3    3    0    0  0.11168027031E+02 -0.41838645056E+01  0.38407582341E+01  0.12529204845E+02  0.51100000000E-03 0.  1.
         12    1    3    3    0    0  0.11955644891E+02 -0.63927485991E+01 -0.81230745915E+00  0.13581771711E+02  0.00000000000E+00 0. -1.
</event>
<event>
 7    1  0.1322363E-009  0.4778727E+02  0.7816164E-02  0.1312668E+00
        -11   -1    0    0    0    0  0.00000000000E+00  0.00000000000E+00  0.45593999997E+02  0.45594000000E+02  0.51100000000E-03 0. -1.
         11   -1    0    0    0    0 -0.00000000000E+00 -0.00000000000E+00 -0.45593999997E+02  0.45594000000E+02  0.51100000000E-03 0.  1.
    9900012    2    1    2    0    0  0.42493791894E+02 -0.59569824764E+00  0.88060468234E+01  0.47787266520E+02  0.19999979371E+02 0.  0.
        -12    1    1    2    0    0 -0.42493791894E+02  0.59569824764E+00 -0.88060468234E+01  0.43400733480E+02  0.00000000000E+00 0.  1.
         11    1    3    3    0    0  0.21170086134E+02 -0.86636107538E+01  0.59564190205E+01  0.23637039282E+02  0.51100000000E-03 0. -1.
        -11    1    3    3    0    0  0.11678537356E+02  0.37683774824E+01  0.52065751630E+01  0.13330316156E+02  0.51100000000E-03 0.  1.
        -12    1    3    3    0    0  0.96451684045E+01  0.42995350238E+01 -0.23569473601E+01  0.10819911082E+02  0.00000000000E+00 0.  1.
</event>
<event>
 7    1  0.1322363E-009  0.4778727E+02  0.7816164E-02  0.1312668E+00
        -11   -1    0    0    0    0  0.00000000000E+00  0.00000000000E+00  0.45593999997E+02  0.45594000000E+02  0.51100000000E-03 0. -1.
         11   -1    0    0    0    0 -0.00000000000E+00 -0.00000000000E+00 -0.45593999997E+02  0.45594000000E+02  0.51100000000E-03 0.  1.
    9900012    2    1    2    0    0  0.43393108602E+02 -0.79158234326E+00 -0.18645841863E+00  0.47787271394E+02  0.20000001596E+02 0.  0.
        -12    1    1    2    0    0 -0.43393108602E+02  0.79158234326E+00  0.18645841863E+00  0.43400728606E+02  0.00000000000E+00 0.  1.
         11    1    3    3    0    0  0.89205292748E+01  0.50602787630E+00  0.38610629405E+00  0.89432088808E+01  0.51100000000E-03 0. -1.
        -11    1    3    3    0    0  0.19802793312E+02 -0.56987996281E+00  0.85245779856E+01  0.21567193054E+02  0.51100000000E-03 0.  1.
         12    1    3    3    0    0  0.14669786015E+02 -0.72773025675E+00 -0.90971426983E+01  0.17276869460E+02  0.00000000000E+00 0. -1.
</event>
<event>
 7    1  0.1322363E-009  0.4778727E+02  0.7816164E-02  0.1312668E+00
        -11   -1    0    0    0    0  0.00000000000E+00  0.00000000000E+00  0.45593999997E+02  0.45594000000E+02  0.51100000000E-03 0.  1.
         11   -1    0    0    0    0 -0.00000000000E+00 -0.00000000000E+00 -0.45593999997E+02  0.45594000000E+02  0.51100000000E-03 0. -1.
    9900012    2    1    2    0    0 -0.55112116022E+01 -0.30615861346E+02 -0.30264149106E+02  0.47787272582E+02  0.20000007009E+02 0.  0.
        -12    1    1    2    0    0  0.55112116022E+01  0.30615861346E+02  0.30264149106E+02  0.43400727418E+02  0.00000000000E+00 0.  1.
         11    1    3    3    0    0  0.51220346206E+00 -0.16574534726E+02 -0.11278596986E+02  0.20054533253E+02  0.51100000000E-03 0. -1.
        -11    1    3    3    0    0 -0.14455623025E+01  0.14418966600E+01  0.80222347741E+00  0.21936907524E+01  0.51100000000E-03 0.  1.
         12    1    3    3    0    0 -0.45778527618E+01 -0.15483223281E+02 -0.19787775598E+02  0.25539048576E+02  0.00000000000E+00 0. -1.
</event>
<event>
 7    1  0.1322363E-009  0.4778727E+02  0.7816164E-02  0.1312668E+00
        -11   -1    0    0    0    0  0.00000000000E+00  0.00000000000E+00  0.45593999997E+02  0.45594000000E+02  0.51100000000E-03 0. -1.
         11   -1    0    0    0    0 -0.00000000000E+00 -0.00000000000E+00 -0.45593999997E+02  0.45594000000E+02  0.51100000000E-03 0.  1.
    9900012    2    1    2    0    0 -0.25009031828E+02  0.43818800280E+01  0.35199019043E+02  0.47787268588E+02  0.19999988798E+02 0.  0.
        -12    1    1    2    0    0  0.25009031828E+02 -0.43818800280E+01 -0.35199019043E+02  0.43400731412E+02  0.00000000000E+00 0.  1.
         11    1    3    3    0    0 -0.24933536127E+01  0.74107952319E+00  0.10025709461E+02  0.10357647491E+02  0.51100000000E-03 0. -1.
        -11    1    3    3    0    0 -0.92048809723E+01  0.40435186230E+01  0.13596378405E+01  0.10145368002E+02  0.51100000000E-03 0.  1.
        -12    1    3    3    0    0 -0.13310797243E+02 -0.40271811823E+00  0.23813671742E+02  0.27284253095E+02  0.00000000000E+00 0.  1.
</event>
<event>
 7    1  0.1322363E-009  0.4778727E+02  0.7816164E-02  0.1312668E+00
        -11   -1    0    0    0    0  0.00000000000E+00  0.00000000000E+00  0.45593999997E+02  0.45594000000E+02  0.51100000000E-03 0.  1.
         11   -1    0    0    0    0 -0.00000000000E+00 -0.00000000000E+00 -0.45593999997E+02  0.45594000000E+02  0.51100000000E-03 0. -1.
    9900012    2    1    2    0    0 -0.33221239466E+02 -0.27526131231E+02 -0.47206520905E+01  0.47787271799E+02  0.20000003442E+02 0.  0.
        -12    1    1    2    0    0  0.33221239466E+02  0.27526131231E+02  0.47206520905E+01  0.43400728201E+02  0.00000000000E+00 0.  1.
         11    1    3    3    0    0 -0.14818071648E+01 -0.69727435382E+01 -0.93307510419E+00  0.71892652152E+01  0.51100000000E-03 0. -1.
        -11    1    3    3    0    0 -0.14765716941E+02 -0.19537407442E+01  0.11474190419E+01  0.14938543115E+02  0.51100000000E-03 0.  1.
        -12    1    3    3    0    0 -0.16973715360E+02 -0.18599646948E+02 -0.49349960282E+01  0.25659463469E+02  0.00000000000E+00 0.  1.
</event>
<event>
 7    1  0.1322363E-009  0.4778727E+02  0.7816164E-02  0.1312668E+00
        -11   -1    0    0    0    0  0.00000000000E+00  0.00000000000E+00  0.45593999997E+02  0.45594000000E+02  0.51100000000E-03 0. -1.
         11   -1    0    0    0    0 -0.00000000000E+00 -0.00000000000E+00 -0.45593999997E+02  0.45594000000E+02  0.51100000000E-03 0.  1.
    9900012    2    1    2    0    0  0.84189836938E+01 -0.38802474647E+02  0.17524613060E+02  0.47787269729E+02  0.19999994001E+02 0.  0.
        -12    1    1    2    0    0 -0.84189836938E+01  0.38802474647E+02 -0.17524613060E+02  0.43400730271E+02  0.00000000000E+00 0.  1.
         11    1    3    3    0    0  0.42179337710E+01 -0.24458922085E+02  0.16720468110E+02  0.29926641791E+02  0.51100000000E-03 0. -1.
        -11    1    3    3    0    0 -0.71464072192E+00  0.11556154355E+01 -0.70496117398E+00  0.15307282300E+01  0.51100000000E-03 0.  1.
        -12    1    3    3    0    0  0.49156906448E+01 -0.15499167998E+02  0.15091061237E+01  0.16329899707E+02  0.00000000000E+00 0.  1.
</event>
<event>
 7    1  0.1322363E-009  0.4778727E+02  0.7816164E-02  0.1312668E+00
        -11   -1    0    0    0    0  0.00000000000E+00  0.00000000000E+00  0.45593999997E+02  0.45594000000E+02  0.51100000000E-03 0.  1.
         11   -1    0    0    0    0 -0.00000000000E+00 -0.00000000000E+00 -0.45593999997E+02  0.45594000000E+02  0.51100000000E-03 0. -1.
    9900012    2    1    2    0    0  0.22406856487E+01  0.39263172182E+02 -0.18357723995E+02  0.47787269680E+02  0.19999993780E+02 0.  0.
        -12    1    1    2    0    0 -0.22406856487E+01 -0.39263172182E+02  0.18357723995E+02  0.43400730320E+02  0.00000000000E+00 0.  1.
         11    1    3    3    0    0 -0.17748763099E+01  0.11632934031E+00  0.77421490706E+00  0.19398781957E+01  0.51100000000E-03 0.  1.
        -11    1    3    3    0    0 -0.49072078869E+01  0.19109126005E+02 -0.88989355121E+01  0.21643253902E+02  0.51100000000E-03 0. -1.
         12    1    3    3    0    0  0.89227698455E+01  0.20037716837E+02 -0.10233003390E+02  0.24204137583E+02  0.00000000000E+00 0. -1.
</event>
<event>
 7    1  0.1322363E-009  0.4778726E+02  0.7816164E-02  0.1312668E+00
        -11   -1    0    0    0    0  0.00000000000E+00  0.00000000000E+00  0.45593999997E+02  0.45594000000E+02  0.51100000000E-03 0. -1.
         11   -1    0    0    0    0 -0.00000000000E+00 -0.00000000000E+00 -0.45593999997E+02  0.45594000000E+02  0.51100000000E-03 0.  1.
    9900012    2    1    2    0    0 -0.25912985181E+02 -0.29595548769E+02  0.18336975445E+02  0.47787262951E+02  0.19999963099E+02 0.  0.
        -12    1    1    2    0    0  0.25912985181E+02  0.29595548769E+02 -0.18336975445E+02  0.43400737049E+02  0.00000000000E+00 0.  1.
         11    1    3    3    0    0  0.87826291781E-01 -0.52495930682E+01  0.33172144477E+01  0.62104631705E+01  0.51100000000E-03 0. -1.
        -11    1    3    3    0    0 -0.26522199380E+02 -0.23129587777E+02  0.17088789047E+02  0.39120731103E+02  0.51100000000E-03 0.  1.
        -12    1    3    3    0    0  0.52138790673E+00 -0.12163679233E+01 -0.20690280505E+01  0.24560686773E+01  0.00000000000E+00 0.  1.
</event>
<event>
 7    1  0.1322363E-009  0.4778727E+02  0.7816164E-02  0.1312668E+00
        -11   -1    0    0    0    0  0.00000000000E+00  0.00000000000E+00  0.45593999997E+02  0.45594000000E+02  0.51100000000E-03 0. -1.
         11   -1    0    0    0    0 -0.00000000000E+00 -0.00000000000E+00 -0.45593999997E+02  0.45594000000E+02  0.51100000000E-03 0.  1.
    9900012    2    1    2    0    0 -0.32955321233E+02 -0.28028742056E+02  0.34583248575E+01  0.47787267406E+02  0.19999983411E+02 0.  0.
        -12    1    1    2    0    0  0.32955321233E+02  0.28028742056E+02 -0.34583248575E+01  0.43400732594E+02  0.00000000000E+00 0.  1.
         11    1    3    3    0    0 -0.27002264233E+02 -0.18352127078E+02  0.18680961631E+01  0.32701874954E+02  0.51100000000E-03 0. -1.
        -11    1    3    3    0    0 -0.35372305178E+01 -0.64954151253E+01 -0.38484103710E+01  0.83374264633E+01  0.51100000000E-03 0.  1.
        -12    1    3    3    0    0 -0.24158264829E+01 -0.31811998535E+01  0.54386390654E+01  0.67479659889E+01  0.00000000000E+00 0.  1.
</event>
<event>
 7    1  0.1322363E-009  0.4778727E+02  0.7816164E-02  0.1312668E+00
        -11   -1    0    0    0    0  0.00000000000E+00  0.00000000000E+00  0.45593999997E+02  0.45594000000E+02  0.51100000000E-03 0. -1.
         11   -1    0    0    0    0 -0.00000000000E+00 -0.00000000000E+00 -0.45593999997E+02  0.45594000000E+02  0.51100000000E-03 0.  1.
    9900012    2    1    2    0    0 -0.24522055850E+01 -0.43288010991E+02 -0.19385098197E+01  0.47787273876E+02  0.20000012909E+02 0.  0.
        -12    1    1    2    0    0  0.24522055850E+01  0.43288010991E+02  0.19385098197E+01  0.43400726124E+02  0.00000000000E+00 0.  1.
         11    1    3    3    0    0  0.23172270244E+01 -0.44167337380E+01 -0.25348098465E+01  0.55948493468E+01  0.51100000000E-03 0.  1.
        -11    1    3    3    0    0 -0.72310006863E+01 -0.38997981242E+02  0.27020354371E-01  0.39662710979E+02  0.51100000000E-03 0. -1.
         12    1    3    3    0    0  0.24615680769E+01  0.12670398889E+00  0.56927967241E+00  0.25297135497E+01  0.00000000000E+00 0. -1.
</event>
<event>
 7    1  0.1322363E-009  0.4778727E+02  0.7816164E-02  0.1312668E+00
        -11   -1    0    0    0    0  0.00000000000E+00  0.00000000000E+00  0.45593999997E+02  0.45594000000E+02  0.51100000000E-03 0. -1.
         11   -1    0    0    0    0 -0.00000000000E+00 -0.00000000000E+00 -0.45593999997E+02  0.45594000000E+02  0.51100000000E-03 0.  1.
    9900012    2    1    2    0    0 -0.34605212426E+02  0.52971117716E+00  0.26188203817E+02  0.47787270281E+02  0.19999996518E+02 0.  0.
        -12    1    1    2    0    0  0.34605212426E+02 -0.52971117716E+00 -0.26188203817E+02  0.43400729719E+02  0.00000000000E+00 0.  1.
         11    1    3    3    0    0 -0.32807451987E+02 -0.55279044566E+00  0.16787245123E+02  0.36857103552E+02  0.51100000000E-03 0. -1.
        -11    1    3    3    0    0 -0.11271346072E+01  0.28147524814E+01  0.30008775196E+01  0.42659735235E+01  0.51100000000E-03 0.  1.
         12    1    3    3    0    0 -0.67062583225E+00 -0.17322508586E+01  0.64000811743E+01  0.66641932056E+01  0.00000000000E+00 0. -1.
</event>
<event>
 7    1  0.1322363E-009  0.4778727E+02  0.7816164E-02  0.1312668E+00
        -11   -1    0    0    0    0  0.00000000000E+00  0.00000000000E+00  0.45593999997E+02  0.45594000000E+02  0.51100000000E-03 0. -1.
         11   -1    0    0    0    0 -0.00000000000E+00 -0.00000000000E+00 -0.45593999997E+02  0.45594000000E+02  0.51100000000E-03 0.  1.
    9900012    2    1    2    0    0 -0.21549385449E+02 -0.21114440588E+02  0.31199800286E+02  0.47787272443E+02  0.20000006377E+02 0.  0.
        -12    1    1    2    0    0  0.21549385449E+02  0.21114440588E+02 -0.31199800286E+02  0.43400727557E+02  0.00000000000E+00 0.  1.
         11    1    3    3    0    0 -0.48595086038E+01  0.17665148617E+01  0.20737799158E+01  0.55709929121E+01  0.51100000000E-03 0. -1.
        -11    1    3    3    0    0 -0.67954901995E+01 -0.17666036072E+02  0.14719056817E+02  0.23977450894E+02  0.51100000000E-03 0.  1.
         12    1    3    3    0    0 -0.98943866460E+01 -0.52149193783E+01  0.14406963554E+02  0.18238828637E+02  0.00000000000E+00 0. -1.
</event>
<event>
 7    1  0.1322363E-009  0.4778727E+02  0.7816164E-02  0.1312668E+00
        -11   -1    0    0    0    0  0.00000000000E+00  0.00000000000E+00  0.45593999997E+02  0.45594000000E+02  0.51100000000E-03 0.  1.
         11   -1    0    0    0    0 -0.00000000000E+00 -0.00000000000E+00 -0.45593999997E+02  0.45594000000E+02  0.51100000000E-03 0. -1.
    9900012    2    1    2    0    0 -0.36077192861E+02  0.21462372966E+02 -0.11019336282E+02  0.47787273391E+02  0.20000010700E+02 0.  0.
        -12    1    1    2    0    0  0.36077192861E+02 -0.21462372966E+02  0.11019336282E+02  0.43400726609E+02  0.00000000000E+00 0.  1.
         11    1    3    3    0    0 -0.96338072610E+01  0.12488312229E+02 -0.16078095989E+01  0.15854123648E+02  0.51100000000E-03 0. -1.
        -11    1    3    3    0    0 -0.56486682639E+00 -0.15221929708E+01 -0.27974075315E+01  0.32344451039E+01  0.51100000000E-03 0.  1.
         12    1    3    3    0    0 -0.25878518774E+02  0.10496253708E+02 -0.66141191513E+01  0.28698704639E+02  0.00000000000E+00 0. -1.
</event>
<event>
 7    1  0.1322363E-009  0.4778726E+02  0.7816164E-02  0.1312668E+00
        -11   -1    0    0    0    0  0.00000000000E+00  0.00000000000E+00  0.45593999997E+02  0.45594000000E+02  0.51100000000E-03 0.  1.
         11   -1    0    0    0    0 -0.00000000000E+00 -0.00000000000E+00 -0.45593999997E+02  0.45594000000E+02  0.51100000000E-03 0. -1.
    9900012    2    1    2    0    0  0.23043259835E+02  0.19775951310E+02 -0.31008773700E+02  0.47787261292E+02  0.19999955533E+02 0.  0.
        -12    1    1    2    0    0 -0.23043259835E+02 -0.19775951310E+02  0.31008773700E+02  0.43400738708E+02  0.00000000000E+00 0.  1.
         11    1    3    3    0    0  0.58545396878E+01  0.13987169024E+02 -0.18314381007E+02  0.23776734094E+02  0.51100000000E-03 0. -1.
        -11    1    3    3    0    0  0.39354543780E+01  0.31102209125E+01  0.59570328750E+00  0.50513501120E+01  0.51100000000E-03 0.  1.
         12    1    3    3    0    0  0.13253265769E+02  0.26785613738E+01 -0.13290095981E+02  0.18959177086E+02  0.00000000000E+00 0. -1.
</event>
<event>
 7    1  0.1322363E-009  0.4778727E+02  0.7816164E-02  0.1312668E+00
        -11   -1    0    0    0    0  0.00000000000E+00  0.00000000000E+00  0.45593999997E+02  0.45594000000E+02  0.51100000000E-03 0. -1.
         11   -1    0    0    0    0 -0.00000000000E+00 -0.00000000000E+00 -0.45593999997E+02  0.45594000000E+02  0.51100000000E-03 0.  1.
    9900012    2    1    2    0    0  0.40307652403E+02 -0.15062548345E+02  0.56600494086E+01  0.47787270004E+02  0.19999995254E+02 0.  0.
        -12    1    1    2    0    0 -0.40307652403E+02  0.15062548345E+02 -0.56600494086E+01  0.43400729996E+02  0.00000000000E+00 0.  1.
         11    1    3    3    0    0  0.12118207941E+02 -0.53539738136E+00 -0.88248505904E+00  0.12162088398E+02  0.51100000000E-03 0. -1.
        -11    1    3    3    0    0  0.11510693286E+01 -0.67994196336E+01  0.14432556062E+01  0.70455698818E+01  0.51100000000E-03 0.  1.
         12    1    3    3    0    0  0.27038375134E+02 -0.77277313304E+01  0.50992788614E+01  0.28579611724E+02  0.00000000000E+00 0. -1.
</event>
<event>
 7    1  0.1322363E-009  0.4778728E+02  0.7816164E-02  0.1312668E+00
        -11   -1    0    0    0    0  0.00000000000E+00  0.00000000000E+00  0.45593999997E+02  0.45594000000E+02  0.51100000000E-03 0.  1.
         11   -1    0    0    0    0 -0.00000000000E+00 -0.00000000000E+00 -0.45593999997E+02  0.45594000000E+02  0.51100000000E-03 0. -1.
    9900012    2    1    2    0    0 -0.28341254849E+02 -0.25797456588E+02 -0.20368779135E+02  0.47787278160E+02  0.20000032443E+02 0.  0.
        -12    1    1    2    0    0  0.28341254849E+02  0.25797456588E+02  0.20368779135E+02  0.43400721840E+02  0.00000000000E+00 0.  1.
         11    1    3    3    0    0 -0.15513893676E+02 -0.20220430942E+02 -0.15655983756E+02  0.29910809954E+02  0.51100000000E-03 0. -1.
        -11    1    3    3    0    0  0.13747475346E+01 -0.20303739848E+01  0.13672214062E+00  0.24558180932E+01  0.51100000000E-03 0.  1.
        -12    1    3    3    0    0 -0.14202108707E+02 -0.35466516608E+01 -0.48495175193E+01  0.15420650113E+02  0.00000000000E+00 0.  1.
</event>
<event>
 7    1  0.1322363E-009  0.4778727E+02  0.7816164E-02  0.1312668E+00
        -11   -1    0    0    0    0  0.00000000000E+00  0.00000000000E+00  0.45593999997E+02  0.45594000000E+02  0.51100000000E-03 0.  1.
         11   -1    0    0    0    0 -0.00000000000E+00 -0.00000000000E+00 -0.45593999997E+02  0.45594000000E+02  0.51100000000E-03 0. -1.
    9900012    2    1    2    0    0 -0.20213843764E+02 -0.27237975704E+02 -0.27076126304E+02  0.47787269410E+02  0.19999992547E+02 0.  0.
        -12    1    1    2    0    0  0.20213843764E+02  0.27237975704E+02  0.27076126304E+02  0.43400730590E+02  0.00000000000E+00 0.  1.
         11    1    3    3    0    0 -0.39624481054E+01 -0.25345939098E+01  0.35414184959E+00  0.47170518321E+01  0.51100000000E-03 0.  1.
        -11    1    3    3    0    0 -0.74585147407E+00  0.14407951688E+01 -0.51034993545E+01  0.53551742327E+01  0.51100000000E-03 0. -1.
         12    1    3    3    0    0 -0.15505544184E+02 -0.26144176963E+02 -0.22326768799E+02  0.37715043345E+02  0.00000000000E+00 0. -1.
</event>
<event>
 7    1  0.1322363E-009  0.4778727E+02  0.7816164E-02  0.1312668E+00
        -11   -1    0    0    0    0  0.00000000000E+00  0.00000000000E+00  0.45593999997E+02  0.45594000000E+02  0.51100000000E-03 0.  1.
         11   -1    0    0    0    0 -0.00000000000E+00 -0.00000000000E+00 -0.45593999997E+02  0.45594000000E+02  0.51100000000E-03 0. -1.
    9900012    2    1    2    0    0  0.38597639030E+02  0.19090830360E+01 -0.19753501990E+02  0.47787272153E+02  0.20000005056E+02 0.  0.
        -12    1    1    2    0    0 -0.38597639030E+02 -0.19090830360E+01  0.19753501990E+02  0.43400727847E+02  0.00000000000E+00 0.  1.
         11    1    3    3    0    0  0.12591790253E+02  0.14137683072E+01 -0.10641978586E+02  0.16547012754E+02  0.51100000000E-03 0. -1.
        -11    1    3    3    0    0  0.17419754603E+01  0.36340927142E+01  0.18457846937E+01  0.44326098132E+01  0.51100000000E-03 0.  1.
        -12    1    3    3    0    0  0.24263873317E+02 -0.31387779853E+01 -0.10957308098E+02  0.26807649586E+02  0.00000000000E+00 0.  1.
</event>
<event>
 7    1  0.1322363E-009  0.4778728E+02  0.7816164E-02  0.1312668E+00
        -11   -1    0    0    0    0  0.00000000000E+00  0.00000000000E+00  0.45593999997E+02  0.45594000000E+02  0.51100000000E-03 0. -1.
         11   -1    0    0    0    0 -0.00000000000E+00 -0.00000000000E+00 -0.45593999997E+02  0.45594000000E+02  0.51100000000E-03 0.  1.
    9900012    2    1    2    0    0  0.14108250860E+02  0.41043593193E+02  0.60374030678E-01  0.47787275012E+02  0.20000018088E+02 0.  0.
        -12    1    1    2    0    0 -0.14108250860E+02 -0.41043593193E+02 -0.60374030678E-01  0.43400724988E+02  0.00000000000E+00 0.  1.
         11    1    3    3    0    0  0.60166225279E+01  0.18907090877E+02 -0.41595928531E+01  0.20272642774E+02  0.51100000000E-03 0. -1.
        -11    1    3    3    0    0  0.10607165114E+02  0.21960244575E+02  0.26198569848E+01  0.24528105194E+02  0.51100000000E-03 0.  1.
        -12    1    3    3    0    0 -0.25155367823E+01  0.17625774122E+00  0.16001098989E+01  0.29865270438E+01  0.00000000000E+00 0.  1.
</event>
<event>
 7    1  0.1322363E-009  0.4778727E+02  0.7816164E-02  0.1312668E+00
        -11   -1    0    0    0    0  0.00000000000E+00  0.00000000000E+00  0.45593999997E+02  0.45594000000E+02  0.51100000000E-03 0.  1.
         11   -1    0    0    0    0 -0.00000000000E+00 -0.00000000000E+00 -0.45593999997E+02  0.45594000000E+02  0.51100000000E-03 0. -1.
    9900012    2    1    2    0    0 -0.34390688777E+02 -0.36462134928E+00 -0.26472081652E+02  0.47787268091E+02  0.19999986533E+02 0.  0.
        -12    1    1    2    0    0  0.34390688777E+02  0.36462134928E+00  0.26472081652E+02  0.43400731909E+02  0.00000000000E+00 0.  1.
         11    1    3    3    0    0 -0.14647900591E+02  0.32301817849E+01 -0.13323922883E+02  0.20062950614E+02  0.51100000000E-03 0. -1.
        -11    1    3    3    0    0  0.46560957416E+00 -0.38377683440E+01 -0.39256080966E+01  0.55095968389E+01  0.51100000000E-03 0.  1.
         12    1    3    3    0    0 -0.20208397760E+02  0.24296520982E+00 -0.92225506722E+01  0.22214720638E+02  0.00000000000E+00 0. -1.
</event>
<event>
 7    1  0.1322363E-009  0.4778728E+02  0.7816164E-02  0.1312668E+00
        -11   -1    0    0    0    0  0.00000000000E+00  0.00000000000E+00  0.45593999997E+02  0.45594000000E+02  0.51100000000E-03 0. -1.
         11   -1    0    0    0    0 -0.00000000000E+00 -0.00000000000E+00 -0.45593999997E+02  0.45594000000E+02  0.51100000000E-03 0.  1.
    9900012    2    1    2    0    0 -0.42942613486E+01 -0.35275177494E+02  0.24916741954E+02  0.47787275842E+02  0.20000021876E+02 0.  0.
        -12    1    1    2    0    0  0.42942613486E+01  0.35275177494E+02 -0.24916741954E+02  0.43400724158E+02  0.00000000000E+00 0.  1.
         11    1    3    3    0    0  0.18262583537E+01 -0.27861769338E+02  0.10289374845E+02  0.29757094031E+02  0.51100000000E-03 0. -1.
        -11    1    3    3    0    0 -0.36222741168E+01 -0.14422947140E+01  0.39923189009E+01  0.55802951792E+01  0.51100000000E-03 0.  1.
        -12    1    3    3    0    0 -0.24982455855E+01 -0.59711134422E+01  0.10635048209E+02  0.12449886632E+02  0.00000000000E+00 0.  1.
</event>
<event>
 7    1  0.1322363E-009  0.4778727E+02  0.7816164E-02  0.1312668E+00
        -11   -1    0    0    0    0  0.00000000000E+00  0.00000000000E+00  0.45593999997E+02  0.45594000000E+02  0.51100000000E-03 0.  1.
         11   -1    0    0    0    0 -0.00000000000E+00 -0.00000000000E+00 -0.45593999997E+02  0.45594000000E+02  0.51100000000E-03 0. -1.
    9900012    2    1    2    0    0 -0.15966901745E+02 -0.12241952602E+02 -0.38455375793E+02  0.47787270948E+02  0.19999999561E+02 0.  0.
        -12    1    1    2    0    0  0.15966901745E+02  0.12241952602E+02  0.38455375793E+02  0.43400729052E+02  0.00000000000E+00 0.  1.
         11    1    3    3    0    0 -0.16475682399E+02 -0.38799099226E+01 -0.25303284332E+02  0.30442700435E+02  0.51100000000E-03 0. -1.
        -11    1    3    3    0    0  0.19447180309E+01 -0.10036415322E+01  0.19769166798E-01  0.21885190486E+01  0.51100000000E-03 0.  1.
        -12    1    3    3    0    0 -0.14359373770E+01 -0.73584011474E+01 -0.13171860628E+02  0.15156051465E+02  0.00000000000E+00 0.  1.
</event>
<event>
 7    1  0.1322363E-009  0.4778727E+02  0.7816164E-02  0.1312668E+00
        -11   -1    0    0    0    0  0.00000000000E+00  0.00000000000E+00  0.45593999997E+02  0.45594000000E+02  0.51100000000E-03 0. -1.
         11   -1    0    0    0    0 -0.00000000000E+00 -0.00000000000E+00 -0.45593999997E+02  0.45594000000E+02  0.51100000000E-03 0.  1.
    9900012    2    1    2    0    0  0.40106687908E+02  0.10229540427E+02  0.13055022899E+02  0.47787268034E+02  0.19999986274E+02 0.  0.
        -12    1    1    2    0    0 -0.40106687908E+02 -0.10229540427E+02 -0.13055022899E+02  0.43400731966E+02  0.00000000000E+00 0.  1.
         11    1    3    3    0    0  0.28672207952E+01  0.10210740516E+01 -0.29515254876E+01  0.42396993139E+01  0.51100000000E-03 0.  1.
        -11    1    3    3    0    0  0.38059995618E+02  0.78974675507E+01  0.15901144615E+02  0.41997376828E+02  0.51100000000E-03 0. -1.
         12    1    3    3    0    0 -0.82052850480E+00  0.13109988247E+01  0.10540377120E+00  0.15501918915E+01  0.00000000000E+00 0. -1.
</event>
<event>
 7    1  0.1322363E-009  0.4778727E+02  0.7816164E-02  0.1312668E+00
        -11   -1    0    0    0    0  0.00000000000E+00  0.00000000000E+00  0.45593999997E+02  0.45594000000E+02  0.51100000000E-03 0. -1.
         11   -1    0    0    0    0 -0.00000000000E+00 -0.00000000000E+00 -0.45593999997E+02  0.45594000000E+02  0.51100000000E-03 0.  1.
    9900012    2    1    2    0    0 -0.42140611221E+02 -0.10372576306E+02  0.44935218179E+00  0.47787269930E+02  0.19999994917E+02 0.  0.
        -12    1    1    2    0    0  0.42140611221E+02  0.10372576306E+02 -0.44935218179E+00  0.43400730070E+02  0.00000000000E+00 0.  1.
         11    1    3    3    0    0 -0.23384499027E+02 -0.56016458666E+01 -0.84506965853E+01  0.25487791277E+02  0.51100000000E-03 0.  1.
        -11    1    3    3    0    0 -0.17077423648E+02 -0.51350457537E+01  0.57945376698E+01  0.18750566936E+02  0.51100000000E-03 0. -1.
        -12    1    3    3    0    0 -0.16786885456E+01  0.36411531450E+00  0.31055110973E+01  0.35489117164E+01  0.00000000000E+00 0.  1.
</event>
<event>
 7    1  0.1322363E-009  0.4778727E+02  0.7816164E-02  0.1312668E+00
        -11   -1    0    0    0    0  0.00000000000E+00  0.00000000000E+00  0.45593999997E+02  0.45594000000E+02  0.51100000000E-03 0.  1.
         11   -1    0    0    0    0 -0.00000000000E+00 -0.00000000000E+00 -0.45593999997E+02  0.45594000000E+02  0.51100000000E-03 0. -1.
    9900012    2    1    2    0    0 -0.11373459256E+02  0.17476835002E+02 -0.38063476184E+02  0.47787267790E+02  0.19999985161E+02 0.  0.
        -12    1    1    2    0    0  0.11373459256E+02 -0.17476835002E+02  0.38063476184E+02  0.43400732210E+02  0.00000000000E+00 0.  1.
         11    1    3    3    0    0 -0.45574814641E+01  0.90890617578E+01 -0.10436735655E+02  0.14570762929E+02  0.51100000000E-03 0. -1.
        -11    1    3    3    0    0 -0.12214582721E+00  0.76846148268E+01 -0.40289279386E+01  0.86775852191E+01  0.51100000000E-03 0.  1.
        -12    1    3    3    0    0 -0.66938319651E+01  0.70315841707E+00 -0.23597812590E+02  0.24538919642E+02  0.00000000000E+00 0.  1.
</event>
<event>
 7    1  0.1322363E-009  0.4778727E+02  0.7816164E-02  0.1312668E+00
        -11   -1    0    0    0    0  0.00000000000E+00  0.00000000000E+00  0.45593999997E+02  0.45594000000E+02  0.51100000000E-03 0.  1.
         11   -1    0    0    0    0 -0.00000000000E+00 -0.00000000000E+00 -0.45593999997E+02  0.45594000000E+02  0.51100000000E-03 0. -1.
    9900012    2    1    2    0    0  0.16144042462E+02 -0.36849384207E+02 -0.16282386483E+02  0.47787270363E+02  0.19999996892E+02 0.  0.
        -12    1    1    2    0    0 -0.16144042462E+02  0.36849384207E+02  0.16282386483E+02  0.43400729637E+02  0.00000000000E+00 0.  1.
         11    1    3    3    0    0  0.11843421909E+01 -0.15358456051E+02 -0.58307664116E+01  0.16470661065E+02  0.51100000000E-03 0. -1.
        -11    1    3    3    0    0  0.41908733958E+01 -0.67704813067E+00 -0.61771538784E+01  0.74952681266E+01  0.51100000000E-03 0.  1.
         12    1    3    3    0    0  0.10768826875E+02 -0.20813880025E+02 -0.42744661929E+01  0.23821341172E+02  0.00000000000E+00 0. -1.
</event>
<event>
 7    1  0.1322363E-009  0.4778727E+02  0.7816164E-02  0.1312668E+00
        -11   -1    0    0    0    0  0.00000000000E+00  0.00000000000E+00  0.45593999997E+02  0.45594000000E+02  0.51100000000E-03 0.  1.
         11   -1    0    0    0    0 -0.00000000000E+00 -0.00000000000E+00 -0.45593999997E+02  0.45594000000E+02  0.51100000000E-03 0. -1.
    9900012    2    1    2    0    0  0.29674011693E+02 -0.10755950006E+02 -0.29789023943E+02  0.47787269845E+02  0.19999994531E+02 0.  0.
        -12    1    1    2    0    0 -0.29674011693E+02  0.10755950006E+02  0.29789023943E+02  0.43400730155E+02  0.00000000000E+00 0.  1.
         11    1    3    3    0    0  0.13580937534E+02 -0.23081843463E+01 -0.19109012118E+01  0.13907592278E+02  0.51100000000E-03 0. -1.
        -11    1    3    3    0    0  0.43179406742E+01  0.26335328781E+00 -0.90003486009E+01  0.99860022941E+01  0.51100000000E-03 0.  1.
        -12    1    3    3    0    0  0.11775133485E+02 -0.87111189479E+01 -0.18877774131E+02  0.23893675273E+02  0.00000000000E+00 0.  1.
</event>
<event>
 7    1  0.1322363E-009  0.4778727E+02  0.7816164E-02  0.1312668E+00
        -11   -1    0    0    0    0  0.00000000000E+00  0.00000000000E+00  0.45593999997E+02  0.45594000000E+02  0.51100000000E-03 0. -1.
         11   -1    0    0    0    0 -0.00000000000E+00 -0.00000000000E+00 -0.45593999997E+02  0.45594000000E+02  0.51100000000E-03 0.  1.
    9900012    2    1    2    0    0 -0.19380928939E+02 -0.41690465955E+01  0.38608579848E+02  0.47787265053E+02  0.19999972682E+02 0.  0.
        -12    1    1    2    0    0  0.19380928939E+02  0.41690465955E+01 -0.38608579848E+02  0.43400734947E+02  0.00000000000E+00 0.  1.
         11    1    3    3    0    0 -0.90591423714E+01 -0.39759102753E+01  0.26189289784E+02  0.27995621491E+02  0.51100000000E-03 0. -1.
        -11    1    3    3    0    0  0.23314727506E+01  0.83981422236E+00  0.86255454783E+00  0.26239385900E+01  0.51100000000E-03 0.  1.
        -12    1    3    3    0    0 -0.12653259319E+02 -0.10329505425E+01  0.11556735517E+02  0.17167704972E+02  0.00000000000E+00 0.  1.
</event>
<event>
 7    1  0.1322363E-009  0.4778727E+02  0.7816164E-02  0.1312668E+00
        -11   -1    0    0    0    0  0.00000000000E+00  0.00000000000E+00  0.45593999997E+02  0.45594000000E+02  0.51100000000E-03 0. -1.
         11   -1    0    0    0    0 -0.00000000000E+00 -0.00000000000E+00 -0.45593999997E+02  0.45594000000E+02  0.51100000000E-03 0.  1.
    9900012    2    1    2    0    0  0.33847142988E+02 -0.23763624579E+02 -0.13163752893E+02  0.47787270377E+02  0.19999996956E+02 0.  0.
        -12    1    1    2    0    0 -0.33847142988E+02  0.23763624579E+02  0.13163752893E+02  0.43400729623E+02  0.00000000000E+00 0.  1.
         11    1    3    3    0    0  0.21586403767E+02 -0.19118370751E+02 -0.22035638866E+01  0.28919554316E+02  0.51100000000E-03 0. -1.
        -11    1    3    3    0    0  0.10036781225E+02 -0.68450478756E+01 -0.94652792413E+01  0.15400752227E+02  0.51100000000E-03 0.  1.
        -12    1    3    3    0    0  0.22239579960E+01  0.21997940476E+01 -0.14949097655E+01  0.34669638341E+01  0.00000000000E+00 0.  1.
</event>
<event>
 7    1  0.1322363E-009  0.4778727E+02  0.7816164E-02  0.1312668E+00
        -11   -1    0    0    0    0  0.00000000000E+00  0.00000000000E+00  0.45593999997E+02  0.45594000000E+02  0.51100000000E-03 0. -1.
         11   -1    0    0    0    0 -0.00000000000E+00 -0.00000000000E+00 -0.45593999997E+02  0.45594000000E+02  0.51100000000E-03 0.  1.
    9900012    2    1    2    0    0  0.26672293245E+02  0.14738956624E+02  0.30902677301E+02  0.47787268052E+02  0.19999986355E+02 0.  0.
        -12    1    1    2    0    0 -0.26672293245E+02 -0.14738956624E+02 -0.30902677301E+02  0.43400731948E+02  0.00000000000E+00 0.  1.
         11    1    3    3    0    0  0.17122030951E+02  0.12748166910E+02  0.17430999109E+02  0.27559380139E+02  0.51100000000E-03 0. -1.
        -11    1    3    3    0    0  0.81336716240E+01  0.55852140546E+01  0.53259144253E+01  0.11212341185E+02  0.51100000000E-03 0.  1.
        -12    1    3    3    0    0  0.14165906703E+01 -0.35944243403E+01  0.81457637663E+01  0.90155467279E+01  0.00000000000E+00 0.  1.
</event>
<event>
 7    1  0.1322363E-009  0.4778727E+02  0.7816164E-02  0.1312668E+00
        -11   -1    0    0    0    0  0.00000000000E+00  0.00000000000E+00  0.45593999997E+02  0.45594000000E+02  0.51100000000E-03 0. -1.
         11   -1    0    0    0    0 -0.00000000000E+00 -0.00000000000E+00 -0.45593999997E+02  0.45594000000E+02  0.51100000000E-03 0.  1.
    9900012    2    1    2    0    0  0.16721877645E+02  0.14075085618E+01  0.40025252553E+02  0.47787272883E+02  0.20000008385E+02 0.  0.
        -12    1    1    2    0    0 -0.16721877645E+02 -0.14075085618E+01 -0.40025252553E+02  0.43400727117E+02  0.00000000000E+00 0.  1.
         11    1    3    3    0    0 -0.24902808199E+00  0.23735143335E+00  0.11848091743E+02  0.11853085206E+02  0.51100000000E-03 0. -1.
        -11    1    3    3    0    0  0.13528806185E+02  0.60724736552E+01  0.13390118526E+02  0.19979960147E+02  0.51100000000E-03 0.  1.
        -12    1    3    3    0    0  0.34420995421E+01 -0.49023165267E+01  0.14787042284E+02  0.15954227530E+02  0.00000000000E+00 0.  1.
</event>
<event>
 7    1  0.1322363E-009  0.4778726E+02  0.7816164E-02  0.1312668E+00
        -11   -1    0    0    0    0  0.00000000000E+00  0.00000000000E+00  0.45593999997E+02  0.45594000000E+02  0.51100000000E-03 0.  1.
         11   -1    0    0    0    0 -0.00000000000E+00 -0.00000000000E+00 -0.45593999997E+02  0.45594000000E+02  0.51100000000E-03 0. -1.
    9900012    2    1    2    0    0  0.28865236337E+02  0.41625031871E+01 -0.32141803625E+02  0.47787264501E+02  0.19999970166E+02 0.  0.
        -12    1    1    2    0    0 -0.28865236337E+02 -0.41625031871E+01  0.32141803625E+02  0.43400735499E+02  0.00000000000E+00 0.  1.
         11    1    3    3    0    0  0.19078597952E+02  0.42836305002E+01 -0.13940281842E+02  0.24014034401E+02  0.51100000000E-03 0. -1.
        -11    1    3    3    0    0  0.40219426963E+01  0.38903961180E+01 -0.15085571629E+02  0.16089924694E+02  0.51100000000E-03 0.  1.
         12    1    3    3    0    0  0.57646956879E+01 -0.40115234311E+01 -0.31159501539E+01  0.76833054068E+01  0.00000000000E+00 0. -1.
</event>
<event>
 7    1  0.1322363E-009  0.4778727E+02  0.7816164E-02  0.1312668E+00
        -11   -1    0    0    0    0  0.00000000000E+00  0.00000000000E+00  0.45593999997E+02  0.45594000000E+02  0.51100000000E-03 0. -1.
         11   -1    0    0    0    0 -0.00000000000E+00 -0.00000000000E+00 -0.45593999997E+02  0.45594000000E+02  0.51100000000E-03 0.  1.
    9900012    2    1    2    0    0  0.36711124107E+02 -0.14727556913E+02 -0.17861014991E+02  0.47787269334E+02  0.19999992202E+02 0.  0.
        -12    1    1    2    0    0 -0.36711124107E+02  0.14727556913E+02  0.17861014991E+02  0.43400730666E+02  0.00000000000E+00 0.  1.
         11    1    3    3    0    0  0.21597197237E+02 -0.13131965163E+02 -0.25473644745E+01  0.25404261524E+02  0.51100000000E-03 0. -1.
        -11    1    3    3    0    0  0.63732137886E+01  0.16707686487E+01 -0.39604933401E+01  0.76873161527E+01  0.51100000000E-03 0.  1.
        -12    1    3    3    0    0  0.87407130815E+01 -0.32663603981E+01 -0.11353157176E+02  0.14695691657E+02  0.00000000000E+00 0.  1.
</event>
<event>
 7    1  0.1322363E-009  0.4778726E+02  0.7816164E-02  0.1312668E+00
        -11   -1    0    0    0    0  0.00000000000E+00  0.00000000000E+00  0.45593999997E+02  0.45594000000E+02  0.51100000000E-03 0.  1.
         11   -1    0    0    0    0 -0.00000000000E+00 -0.00000000000E+00 -0.45593999997E+02  0.45594000000E+02  0.51100000000E-03 0. -1.
    9900012    2    1    2    0    0  0.35104820351E+02  0.24067886973E+02  0.84860109832E+01  0.47787262937E+02  0.19999963033E+02 0.  0.
        -12    1    1    2    0    0 -0.35104820351E+02 -0.24067886973E+02 -0.84860109832E+01  0.43400737063E+02  0.00000000000E+00 0.  1.
         11    1    3    3    0    0  0.17801809618E+02  0.12555918097E+02 -0.31445058039E+01  0.22010075464E+02  0.51100000000E-03 0. -1.
        -11    1    3    3    0    0  0.10156229586E+02  0.89991331292E+00  0.47124487866E+01  0.11232364720E+02  0.51100000000E-03 0.  1.
        -12    1    3    3    0    0  0.71467811473E+01  0.10612055563E+02  0.69180680005E+01  0.14544822752E+02  0.00000000000E+00 0.  1.
</event>
<event>
 7    1  0.1322363E-009  0.4778727E+02  0.7816164E-02  0.1312668E+00
        -11   -1    0    0    0    0  0.00000000000E+00  0.00000000000E+00  0.45593999997E+02  0.45594000000E+02  0.51100000000E-03 0.  1.
         11   -1    0    0    0    0 -0.00000000000E+00 -0.00000000000E+00 -0.45593999997E+02  0.45594000000E+02  0.51100000000E-03 0. -1.
    9900012    2    1    2    0    0  0.22110054245E+02  0.39112658923E+01 -0.37141234446E+02  0.47787265032E+02  0.19999972588E+02 0.  0.
        -12    1    1    2    0    0 -0.22110054245E+02 -0.39112658923E+01  0.37141234446E+02  0.43400734968E+02  0.00000000000E+00 0.  1.
         11    1    3    3    0    0  0.14306337112E+02 -0.50306624173E+00 -0.23500305187E+02  0.27517062004E+02  0.51100000000E-03 0. -1.
        -11    1    3    3    0    0  0.60525008196E+01  0.75940387891E+01 -0.13509756535E+02  0.16637779695E+02  0.51100000000E-03 0.  1.
         12    1    3    3    0    0  0.17512163127E+01 -0.31797066551E+01 -0.13117272459E+00  0.36324233329E+01  0.00000000000E+00 0. -1.
</event>
<event>
 7    1  0.1322363E-009  0.4778727E+02  0.7816164E-02  0.1312668E+00
        -11   -1    0    0    0    0  0.00000000000E+00  0.00000000000E+00  0.45593999997E+02  0.45594000000E+02  0.51100000000E-03 0.  1.
         11   -1    0    0    0    0 -0.00000000000E+00 -0.00000000000E+00 -0.45593999997E+02  0.45594000000E+02  0.51100000000E-03 0. -1.
    9900012    2    1    2    0    0  0.22120883145E+02  0.23765885947E+02 -0.28800564118E+02  0.47787270749E+02  0.19999998655E+02 0.  0.
        -12    1    1    2    0    0 -0.22120883145E+02 -0.23765885947E+02  0.28800564118E+02  0.43400729251E+02  0.00000000000E+00 0.  1.
         11    1    3    3    0    0  0.65390038380E+01  0.15782679207E+02 -0.17019400294E+02  0.24114549981E+02  0.51100000000E-03 0. -1.
        -11    1    3    3    0    0  0.13893681867E+02  0.82396044954E+01 -0.13644954136E+02  0.21144981714E+02  0.51100000000E-03 0.  1.
        -12    1    3    3    0    0  0.16881974394E+01 -0.25639775551E+00  0.18637903112E+01  0.25277390544E+01  0.00000000000E+00 0.  1.
</event>
<event>
 7    1  0.1322363E-009  0.4778727E+02  0.7816164E-02  0.1312668E+00
        -11   -1    0    0    0    0  0.00000000000E+00  0.00000000000E+00  0.45593999997E+02  0.45594000000E+02  0.51100000000E-03 0.  1.
         11   -1    0    0    0    0 -0.00000000000E+00 -0.00000000000E+00 -0.45593999997E+02  0.45594000000E+02  0.51100000000E-03 0. -1.
    9900012    2    1    2    0    0 -0.24583828612E+02 -0.15705039556E+02 -0.32134260466E+02  0.47787267375E+02  0.19999983271E+02 0.  0.
        -12    1    1    2    0    0  0.24583828612E+02  0.15705039556E+02  0.32134260466E+02  0.43400732625E+02  0.00000000000E+00 0.  1.
         11    1    3    3    0    0 -0.16536841800E+01 -0.10919344811E+01 -0.23100595650E+01  0.30435781135E+01  0.51100000000E-03 0. -1.
        -11    1    3    3    0    0  0.12575464213E+01  0.25884072544E+01 -0.32321473338E+00  0.28958147630E+01  0.51100000000E-03 0.  1.
        -12    1    3    3    0    0 -0.24187690853E+02 -0.17201512330E+02 -0.29500986167E+02  0.41847874499E+02  0.00000000000E+00 0.  1.
</event>
<event>
 7    1  0.1322363E-009  0.4778727E+02  0.7816164E-02  0.1312668E+00
        -11   -1    0    0    0    0  0.00000000000E+00  0.00000000000E+00  0.45593999997E+02  0.45594000000E+02  0.51100000000E-03 0. -1.
         11   -1    0    0    0    0 -0.00000000000E+00 -0.00000000000E+00 -0.45593999997E+02  0.45594000000E+02  0.51100000000E-03 0.  1.
    9900012    2    1    2    0    0  0.11844531027E+02 -0.13766544686E+02  0.39418427174E+02  0.47787273408E+02  0.20000010778E+02 0.  0.
        -12    1    1    2    0    0 -0.11844531027E+02  0.13766544686E+02 -0.39418427174E+02  0.43400726592E+02  0.00000000000E+00 0.  1.
         11    1    3    3    0    0  0.41035760116E+01 -0.16419139977E+02  0.23990458752E+02  0.29359318879E+02  0.51100000000E-03 0. -1.
        -11    1    3    3    0    0  0.14987149208E+01  0.29742105182E+01  0.28537755190E+01  0.43858989494E+01  0.51100000000E-03 0.  1.
         12    1    3    3    0    0  0.62422400949E+01 -0.32161522788E+00  0.12574192903E+02  0.14042055580E+02  0.00000000000E+00 0. -1.
</event>
<event>
 7    1  0.1322363E-009  0.4778727E+02  0.7816164E-02  0.1312668E+00
        -11   -1    0    0    0    0  0.00000000000E+00  0.00000000000E+00  0.45593999997E+02  0.45594000000E+02  0.51100000000E-03 0.  1.
         11   -1    0    0    0    0 -0.00000000000E+00 -0.00000000000E+00 -0.45593999997E+02  0.45594000000E+02  0.51100000000E-03 0. -1.
    9900012    2    1    2    0    0 -0.27550283484E+02  0.46693364777E+01 -0.33208470410E+02  0.47787270396E+02  0.19999997044E+02 0.  0.
        -12    1    1    2    0    0  0.27550283484E+02 -0.46693364777E+01  0.33208470410E+02  0.43400729604E+02  0.00000000000E+00 0.  1.
         11    1    3    3    0    0 -0.86092932873E+01  0.27512524792E+01 -0.14368150468E+02  0.16974482886E+02  0.51100000000E-03 0. -1.
        -11    1    3    3    0    0 -0.14486780321E+02  0.16439106784E+01 -0.37188593549E+01  0.15046566438E+02  0.51100000000E-03 0.  1.
        -12    1    3    3    0    0 -0.44542098749E+01  0.27417332020E+00 -0.15121460587E+02  0.15766221073E+02  0.00000000000E+00 0.  1.
</event>
<event>
 7    1  0.1322363E-009  0.4778727E+02  0.7816164E-02  0.1312668E+00
        -11   -1    0    0    0    0  0.00000000000E+00  0.00000000000E+00  0.45593999997E+02  0.45594000000E+02  0.51100000000E-03 0.  1.
         11   -1    0    0    0    0 -0.00000000000E+00 -0.00000000000E+00 -0.45593999997E+02  0.45594000000E+02  0.51100000000E-03 0. -1.
    9900012    2    1    2    0    0  0.22398908418E+02 -0.16255135302E+02 -0.33431759715E+02  0.47787273283E+02  0.20000010204E+02 0.  0.
        -12    1    1    2    0    0 -0.22398908418E+02  0.16255135302E+02  0.33431759715E+02  0.43400726717E+02  0.00000000000E+00 0.  1.
         11    1    3    3    0    0  0.15593966812E+02 -0.84435567604E+01 -0.30089622327E+02  0.34926362876E+02  0.51100000000E-03 0. -1.
        -11    1    3    3    0    0 -0.10666333826E+01  0.23870467316E+00  0.72295141573E-01  0.10954056520E+01  0.51100000000E-03 0.  1.
         12    1    3    3    0    0  0.78715749884E+01 -0.80502832145E+01 -0.34144325291E+01  0.11765504754E+02  0.00000000000E+00 0. -1.
</event>
<event>
 7    1  0.1322363E-009  0.4778728E+02  0.7816164E-02  0.1312668E+00
        -11   -1    0    0    0    0  0.00000000000E+00  0.00000000000E+00  0.45593999997E+02  0.45594000000E+02  0.51100000000E-03 0.  1.
         11   -1    0    0    0    0 -0.00000000000E+00 -0.00000000000E+00 -0.45593999997E+02  0.45594000000E+02  0.51100000000E-03 0. -1.
    9900012    2    1    2    0    0 -0.38024604636E+02 -0.17228610446E+02 -0.11871281654E+02  0.47787275309E+02  0.20000019445E+02 0.  0.
        -12    1    1    2    0    0  0.38024604636E+02  0.17228610446E+02  0.11871281654E+02  0.43400724691E+02  0.00000000000E+00 0.  1.
         11    1    3    3    0    0 -0.10890381994E+02 -0.56183248603E+01 -0.77928213938E+01  0.14522191975E+02  0.51100000000E-03 0. -1.
        -11    1    3    3    0    0 -0.46263532034E+01 -0.83152332657E+01  0.19907112359E+01  0.97215831895E+01  0.51100000000E-03 0.  1.
        -12    1    3    3    0    0 -0.22507869438E+02 -0.32950523201E+01 -0.60691714956E+01  0.23543500145E+02  0.00000000000E+00 0.  1.
</event>
<event>
 7    1  0.1322363E-009  0.4778727E+02  0.7816164E-02  0.1312668E+00
        -11   -1    0    0    0    0  0.00000000000E+00  0.00000000000E+00  0.45593999997E+02  0.45594000000E+02  0.51100000000E-03 0.  1.
         11   -1    0    0    0    0 -0.00000000000E+00 -0.00000000000E+00 -0.45593999997E+02  0.45594000000E+02  0.51100000000E-03 0. -1.
    9900012    2    1    2    0    0 -0.38095746893E+02  0.14170786356E+02 -0.15215982370E+02  0.47787271472E+02  0.20000001949E+02 0.  0.
        -12    1    1    2    0    0  0.38095746893E+02 -0.14170786356E+02  0.15215982370E+02  0.43400728528E+02  0.00000000000E+00 0.  1.
         11    1    3    3    0    0 -0.12660665610E+02 -0.99462538304E+00 -0.91878365087E+01  0.15674759115E+02  0.51100000000E-03 0. -1.
        -11    1    3    3    0    0 -0.82638317650E+00  0.25847299844E+01  0.19551134105E+01  0.33445787412E+01  0.51100000000E-03 0.  1.
        -12    1    3    3    0    0 -0.24608698107E+02  0.12580681754E+02 -0.79832592716E+01  0.28767933616E+02  0.00000000000E+00 0.  1.
</event>
<event>
 7    1  0.1639828E-009  0.4778727E+02  0.7816164E-02  0.1312668E+00
        -11   -1    0    0    0    0  0.00000000000E+00  0.00000000000E+00  0.45593999997E+02  0.45594000000E+02  0.51100000000E-03 0.  1.
         11   -1    0    0    0    0 -0.00000000000E+00 -0.00000000000E+00 -0.45593999997E+02  0.45594000000E+02  0.51100000000E-03 0. -1.
    9900012    2    1    2    0    0  0.22574807701E+02 -0.34100633154E+02 -0.14530949151E+02  0.47787267201E+02  0.19999982476E+02 0.  0.
        -12    1    1    2    0    0 -0.22574807701E+02  0.34100633154E+02  0.14530949151E+02  0.43400732799E+02  0.00000000000E+00 0.  1.
         11    1    3    3    0    0  0.13641461883E+02 -0.59255128068E+01 -0.64340970597E+01  0.16204900172E+02  0.51100000000E-03 0. -1.
        -11    1    3    3    0    0 -0.12811938098E+01 -0.41410506821E+01 -0.37946543328E+00  0.43512932108E+01  0.51100000000E-03 0.  1.
         12    1    3    3    0    0  0.10214539628E+02 -0.24034069665E+02 -0.77173866579E+01  0.27231073819E+02  0.00000000000E+00 0. -1.
</event>
<event>
 7    1  0.1322363E-009  0.4778727E+02  0.7816164E-02  0.1312668E+00
        -11   -1    0    0    0    0  0.00000000000E+00  0.00000000000E+00  0.45593999997E+02  0.45594000000E+02  0.51100000000E-03 0.  1.
         11   -1    0    0    0    0 -0.00000000000E+00 -0.00000000000E+00 -0.45593999997E+02  0.45594000000E+02  0.51100000000E-03 0. -1.
    9900012    2    1    2    0    0 -0.24179837799E+02  0.83806706432E+01 -0.35053144941E+02  0.47787272280E+02  0.20000005634E+02 0.  0.
        -12    1    1    2    0    0  0.24179837799E+02 -0.83806706432E+01  0.35053144941E+02  0.43400727720E+02  0.00000000000E+00 0.  1.
         11    1    3    3    0    0 -0.16126564712E+02  0.32859749347E+01 -0.17581021826E+02  0.24082276665E+02  0.51100000000E-03 0. -1.
        -11    1    3    3    0    0 -0.97997833239E+01  0.74520573489E+01 -0.10649191006E+02  0.16278027561E+02  0.51100000000E-03 0.  1.
        -12    1    3    3    0    0  0.17465102373E+01 -0.23573616404E+01 -0.68229321093E+01  0.74269680543E+01  0.00000000000E+00 0.  1.
</event>
<event>
 7    1  0.1322363E-009  0.4778724E+02  0.7816164E-02  0.1312668E+00
        -11   -1    0    0    0    0  0.00000000000E+00  0.00000000000E+00  0.45593999997E+02  0.45594000000E+02  0.51100000000E-03 0.  1.
         11   -1    0    0    0    0 -0.00000000000E+00 -0.00000000000E+00 -0.45593999997E+02  0.45594000000E+02  0.51100000000E-03 0. -1.
    9900012    2    1    2    0    0  0.42666284363E+02 -0.51964956067E+01 -0.60175505020E+01  0.47787236159E+02  0.19999840943E+02 0.  0.
        -12    1    1    2    0    0 -0.42666284363E+02  0.51964956067E+01  0.60175505020E+01  0.43400763841E+02  0.00000000000E+00 0.  1.
         11    1    3    3    0    0  0.11316745963E+02 -0.71816917626E+01 -0.61477288772E+01  0.14745847089E+02  0.51100000000E-03 0.  1.
        -11    1    3    3    0    0  0.26870848756E+02 -0.18879361741E+01 -0.12332606365E+01  0.26965306376E+02  0.51100000000E-03 0. -1.
         12    1    3    3    0    0  0.44786896441E+01  0.38731323300E+01  0.13634390118E+01  0.60760826947E+01  0.00000000000E+00 0. -1.
</event>
<event>
 7    1  0.1322363E-009  0.4778727E+02  0.7816164E-02  0.1312668E+00
        -11   -1    0    0    0    0  0.00000000000E+00  0.00000000000E+00  0.45593999997E+02  0.45594000000E+02  0.51100000000E-03 0.  1.
         11   -1    0    0    0    0 -0.00000000000E+00 -0.00000000000E+00 -0.45593999997E+02  0.45594000000E+02  0.51100000000E-03 0. -1.
    9900012    2    1    2    0    0  0.98642364351E+01  0.29997559817E+02 -0.29773587051E+02  0.47787271420E+02  0.20000001711E+02 0.  0.
        -12    1    1    2    0    0 -0.98642364351E+01 -0.29997559817E+02  0.29773587051E+02  0.43400728580E+02  0.00000000000E+00 0.  1.
         11    1    3    3    0    0  0.24933555254E+01  0.18070352244E+02 -0.12633218661E+02  0.22189021294E+02  0.51100000000E-03 0. -1.
        -11    1    3    3    0    0 -0.25352598402E+01  0.10661742117E+01  0.32552134592E+00  0.27695187876E+01  0.51100000000E-03 0.  1.
        -12    1    3    3    0    0  0.99061407499E+01  0.10861033361E+02 -0.17465889736E+02  0.22828731338E+02  0.00000000000E+00 0.  1.
</event>
<event>
 7    1  0.1322363E-009  0.4778727E+02  0.7816164E-02  0.1312668E+00
        -11   -1    0    0    0    0  0.00000000000E+00  0.00000000000E+00  0.45593999997E+02  0.45594000000E+02  0.51100000000E-03 0.  1.
         11   -1    0    0    0    0 -0.00000000000E+00 -0.00000000000E+00 -0.45593999997E+02  0.45594000000E+02  0.51100000000E-03 0. -1.
    9900012    2    1    2    0    0  0.17804379054E+02  0.39572802344E+02 -0.78781549584E+00  0.47787271295E+02  0.20000001143E+02 0.  0.
        -12    1    1    2    0    0 -0.17804379054E+02 -0.39572802344E+02  0.78781549584E+00  0.43400728705E+02  0.00000000000E+00 0.  1.
         11    1    3    3    0    0  0.37596575639E+01  0.11622725995E+02  0.43440083341E+01  0.12965075905E+02  0.51100000000E-03 0. -1.
        -11    1    3    3    0    0  0.14589778831E+02  0.27787229486E+02 -0.75980528688E+01  0.32291208966E+02  0.51100000000E-03 0.  1.
         12    1    3    3    0    0 -0.54505734079E+00  0.16284686293E+00  0.24662290389E+01  0.25309864238E+01  0.00000000000E+00 0. -1.
</event>
<event>
 7    1  0.1322363E-009  0.4778727E+02  0.7816164E-02  0.1312668E+00
        -11   -1    0    0    0    0  0.00000000000E+00  0.00000000000E+00  0.45593999997E+02  0.45594000000E+02  0.51100000000E-03 0.  1.
         11   -1    0    0    0    0 -0.00000000000E+00 -0.00000000000E+00 -0.45593999997E+02  0.45594000000E+02  0.51100000000E-03 0. -1.
    9900012    2    1    2    0    0 -0.13098582615E+02  0.17233929292E+02 -0.37617041706E+02  0.47787274061E+02  0.20000013753E+02 0.  0.
        -12    1    1    2    0    0  0.13098582615E+02 -0.17233929292E+02  0.37617041706E+02  0.43400725939E+02  0.00000000000E+00 0.  1.
         11    1    3    3    0    0 -0.21079598221E+01 -0.28621671795E+00 -0.30823721581E+01  0.37451879797E+01  0.51100000000E-03 0.  1.
        -11    1    3    3    0    0 -0.39098953837E+01  0.11675715446E+02 -0.32336499948E+02  0.34601428326E+02  0.51100000000E-03 0. -1.
         12    1    3    3    0    0 -0.70807274095E+01  0.58444305633E+01 -0.21981695999E+01  0.94406577550E+01  0.00000000000E+00 0. -1.
</event>
<event>
 7    1  0.1322363E-009  0.4778727E+02  0.7816164E-02  0.1312668E+00
        -11   -1    0    0    0    0  0.00000000000E+00  0.00000000000E+00  0.45593999997E+02  0.45594000000E+02  0.51100000000E-03 0.  1.
         11   -1    0    0    0    0 -0.00000000000E+00 -0.00000000000E+00 -0.45593999997E+02  0.45594000000E+02  0.51100000000E-03 0. -1.
    9900012    2    1    2    0    0 -0.20282883571E+02  0.14963820417E+02 -0.35331461319E+02  0.47787269057E+02  0.19999990940E+02 0.  0.
        -12    1    1    2    0    0  0.20282883571E+02 -0.14963820417E+02  0.35331461319E+02  0.43400730943E+02  0.00000000000E+00 0.  1.
         11    1    3    3    0    0 -0.16526651538E+02  0.15517403612E+02 -0.24418803410E+02  0.33319633643E+02  0.51100000000E-03 0. -1.
        -11    1    3    3    0    0 -0.40118976861E+01 -0.50385922474E+00 -0.12356111048E+02  0.13000872188E+02  0.51100000000E-03 0.  1.
         12    1    3    3    0    0  0.25566565232E+00 -0.49723969906E-01  0.14434531386E+01  0.14667632264E+01  0.00000000000E+00 0. -1.
</event>
<event>
 7    1  0.1322363E-009  0.4778727E+02  0.7816164E-02  0.1312668E+00
        -11   -1    0    0    0    0  0.00000000000E+00  0.00000000000E+00  0.45593999997E+02  0.45594000000E+02  0.51100000000E-03 0. -1.
         11   -1    0    0    0    0 -0.00000000000E+00 -0.00000000000E+00 -0.45593999997E+02  0.45594000000E+02  0.51100000000E-03 0.  1.
    9900012    2    1    2    0    0 -0.96081722671E+01  0.32542794108E+02 -0.27060543229E+02  0.47787269332E+02  0.19999992192E+02 0.  0.
        -12    1    1    2    0    0  0.96081722671E+01 -0.32542794108E+02  0.27060543229E+02  0.43400730668E+02  0.00000000000E+00 0.  1.
         11    1    3    3    0    0 -0.81270607775E+01  0.21914947028E+02 -0.15370761107E+02  0.27974529798E+02  0.51100000000E-03 0.  1.
        -11    1    3    3    0    0  0.28184116060E+00  0.61071924980E+01 -0.13350818658E+02  0.14684059171E+02  0.51100000000E-03 0. -1.
         12    1    3    3    0    0 -0.17629526502E+01  0.45206545817E+01  0.16610365359E+01  0.51286803632E+01  0.00000000000E+00 0. -1.
</event>
<event>
 7    1  0.1322363E-009  0.4778727E+02  0.7816164E-02  0.1312668E+00
        -11   -1    0    0    0    0  0.00000000000E+00  0.00000000000E+00  0.45593999997E+02  0.45594000000E+02  0.51100000000E-03 0. -1.
         11   -1    0    0    0    0 -0.00000000000E+00 -0.00000000000E+00 -0.45593999997E+02  0.45594000000E+02  0.51100000000E-03 0.  1.
    9900012    2    1    2    0    0 -0.28627023455E+02  0.28615004532E+02  0.15662015046E+02  0.47787266463E+02  0.19999979111E+02 0.  0.
        -12    1    1    2    0    0  0.28627023455E+02 -0.28615004532E+02 -0.15662015046E+02  0.43400733537E+02  0.00000000000E+00 0.  1.
         11    1    3    3    0    0 -0.15565277102E+01  0.94275656254E+01 -0.14385797313E+01  0.96628817668E+01  0.51100000000E-03 0. -1.
        -11    1    3    3    0    0 -0.77967473755E+01  0.15533557494E+01  0.40785528121E+01  0.89351428094E+01  0.51100000000E-03 0.  1.
         12    1    3    3    0    0 -0.19273748369E+02  0.17634083158E+02  0.13022041965E+02  0.29189241887E+02  0.00000000000E+00 0. -1.
</event>
<event>
 7    1  0.1322363E-009  0.4778727E+02  0.7816164E-02  0.1312668E+00
        -11   -1    0    0    0    0  0.00000000000E+00  0.00000000000E+00  0.45593999997E+02  0.45594000000E+02  0.51100000000E-03 0.  1.
         11   -1    0    0    0    0 -0.00000000000E+00 -0.00000000000E+00 -0.45593999997E+02  0.45594000000E+02  0.51100000000E-03 0. -1.
    9900012    2    1    2    0    0 -0.39220111723E+02  0.12807781903E+02 -0.13467258071E+02  0.47787268660E+02  0.19999989130E+02 0.  0.
        -12    1    1    2    0    0  0.39220111723E+02 -0.12807781903E+02  0.13467258071E+02  0.43400731340E+02  0.00000000000E+00 0.  1.
         11    1    3    3    0    0 -0.22172550846E+02  0.10394676922E+02  0.19769224296E+01  0.24567855867E+02  0.51100000000E-03 0. -1.
        -11    1    3    3    0    0 -0.83893632963E+01  0.15571569219E+01 -0.63703489162E+01  0.10648356670E+02  0.51100000000E-03 0.  1.
         12    1    3    3    0    0 -0.86581975810E+01  0.85594805903E+00 -0.90738315849E+01  0.12571056124E+02  0.00000000000E+00 0. -1.
</event>
<event>
 7    1  0.1322363E-009  0.4778727E+02  0.7816164E-02  0.1312668E+00
        -11   -1    0    0    0    0  0.00000000000E+00  0.00000000000E+00  0.45593999997E+02  0.45594000000E+02  0.51100000000E-03 0.  1.
         11   -1    0    0    0    0 -0.00000000000E+00 -0.00000000000E+00 -0.45593999997E+02  0.45594000000E+02  0.51100000000E-03 0. -1.
    9900012    2    1    2    0    0 -0.75950114402E+01 -0.27158773668E+02 -0.32990002477E+02  0.47787269023E+02  0.19999990783E+02 0.  0.
        -12    1    1    2    0    0  0.75950114402E+01  0.27158773668E+02  0.32990002477E+02  0.43400730977E+02  0.00000000000E+00 0.  1.
         11    1    3    3    0    0  0.40017574438E+01 -0.20782198991E+01 -0.32968032187E+00  0.45212553526E+01  0.51100000000E-03 0.  1.
        -11    1    3    3    0    0 -0.75647958509E+01 -0.89119319634E+01 -0.14336690837E+02  0.18498361333E+02  0.51100000000E-03 0. -1.
        -12    1    3    3    0    0 -0.40319730331E+01 -0.16168621805E+02 -0.18323631318E+02  0.24767652337E+02  0.00000000000E+00 0.  1.
</event>
<event>
 7    1  0.1322363E-009  0.4778727E+02  0.7816164E-02  0.1312668E+00
        -11   -1    0    0    0    0  0.00000000000E+00  0.00000000000E+00  0.45593999997E+02  0.45594000000E+02  0.51100000000E-03 0.  1.
         11   -1    0    0    0    0 -0.00000000000E+00 -0.00000000000E+00 -0.45593999997E+02  0.45594000000E+02  0.51100000000E-03 0. -1.
    9900012    2    1    2    0    0  0.20863582981E+02 -0.19399554664E+01 -0.38007509070E+02  0.47787271116E+02  0.20000000324E+02 0.  0.
        -12    1    1    2    0    0 -0.20863582981E+02  0.19399554664E+01  0.38007509070E+02  0.43400728884E+02  0.00000000000E+00 0.  1.
         11    1    3    3    0    0 -0.34992404237E+00 -0.21966931527E+01 -0.76057405364E+01  0.79243420554E+01  0.51100000000E-03 0. -1.
        -11    1    3    3    0    0  0.17884944602E+02  0.62265947581E+01 -0.21830989119E+02  0.28900411967E+02  0.51100000000E-03 0.  1.
        -12    1    3    3    0    0  0.33285624221E+01 -0.59698570718E+01 -0.85707794140E+01  0.10962517093E+02  0.00000000000E+00 0.  1.
</event>
<event>
 7    1  0.1322363E-009  0.4778727E+02  0.7816164E-02  0.1312668E+00
        -11   -1    0    0    0    0  0.00000000000E+00  0.00000000000E+00  0.45593999997E+02  0.45594000000E+02  0.51100000000E-03 0.  1.
         11   -1    0    0    0    0 -0.00000000000E+00 -0.00000000000E+00 -0.45593999997E+02  0.45594000000E+02  0.51100000000E-03 0. -1.
    9900012    2    1    2    0    0  0.94349622389E+00  0.41920762582E+02 -0.11197448582E+02  0.47787269876E+02  0.19999994671E+02 0.  0.
        -12    1    1    2    0    0 -0.94349622389E+00 -0.41920762582E+02  0.11197448582E+02  0.43400730124E+02  0.00000000000E+00 0.  1.
         11    1    3    3    0    0  0.57585615902E+01  0.22807822196E+02 -0.61685817155E+01  0.24318905928E+02  0.51100000000E-03 0. -1.
        -11    1    3    3    0    0 -0.64458614891E+00  0.79535925629E-01 -0.38967997970E+01  0.39505526431E+01  0.51100000000E-03 0.  1.
        -12    1    3    3    0    0 -0.41704792174E+01  0.19033404460E+02 -0.11320670697E+01  0.19517811304E+02  0.00000000000E+00 0.  1.
</event>
<event>
 7    1  0.1322363E-009  0.4778729E+02  0.7816164E-02  0.1312668E+00
        -11   -1    0    0    0    0  0.00000000000E+00  0.00000000000E+00  0.45593999997E+02  0.45594000000E+02  0.51100000000E-03 0.  1.
         11   -1    0    0    0    0 -0.00000000000E+00 -0.00000000000E+00 -0.45593999997E+02  0.45594000000E+02  0.51100000000E-03 0. -1.
    9900012    2    1    2    0    0 -0.10066110959E+02 -0.29951077308E+02 -0.29752777657E+02  0.47787292632E+02  0.20000098426E+02 0.  0.
        -12    1    1    2    0    0  0.10066110959E+02  0.29951077308E+02  0.29752777657E+02  0.43400707368E+02  0.00000000000E+00 0.  1.
         11    1    3    3    0    0 -0.89924039369E+01 -0.76031224809E+01 -0.66616773197E+01  0.13529550805E+02  0.51100000000E-03 0. -1.
        -11    1    3    3    0    0 -0.11713764030E+01 -0.74546065527E+01 -0.99583602404E+00  0.76115025574E+01  0.51100000000E-03 0.  1.
         12    1    3    3    0    0  0.97669381144E-01 -0.14893348275E+02 -0.22095264313E+02  0.26646239269E+02  0.00000000000E+00 0. -1.
</event>
<event>
 7    1  0.1322363E-009  0.4778727E+02  0.7816164E-02  0.1312668E+00
        -11   -1    0    0    0    0  0.00000000000E+00  0.00000000000E+00  0.45593999997E+02  0.45594000000E+02  0.51100000000E-03 0.  1.
         11   -1    0    0    0    0 -0.00000000000E+00 -0.00000000000E+00 -0.45593999997E+02  0.45594000000E+02  0.51100000000E-03 0. -1.
    9900012    2    1    2    0    0 -0.13418094003E+02 -0.15579996428E+01 -0.41245009456E+02  0.47787269424E+02  0.19999992612E+02 0.  0.
        -12    1    1    2    0    0  0.13418094003E+02  0.15579996428E+01  0.41245009456E+02  0.43400730576E+02  0.00000000000E+00 0.  1.
         11    1    3    3    0    0 -0.99312523198E+01  0.20315524356E+01 -0.27362441095E+02  0.29179790282E+02  0.51100000000E-03 0. -1.
        -11    1    3    3    0    0  0.31522433111E+01 -0.20861222054E+01 -0.10178593110E+02  0.10857822144E+02  0.51100000000E-03 0.  1.
        -12    1    3    3    0    0 -0.66390849938E+01 -0.15034298730E+01 -0.37039752506E+01  0.77496569986E+01  0.00000000000E+00 0.  1.
</event>
<event>
 7    1  0.1322363E-009  0.4778727E+02  0.7816164E-02  0.1312668E+00
        -11   -1    0    0    0    0  0.00000000000E+00  0.00000000000E+00  0.45593999997E+02  0.45594000000E+02  0.51100000000E-03 0.  1.
         11   -1    0    0    0    0 -0.00000000000E+00 -0.00000000000E+00 -0.45593999997E+02  0.45594000000E+02  0.51100000000E-03 0. -1.
    9900012    2    1    2    0    0 -0.34440516573E+01 -0.23179344090E+02 -0.36530530191E+02  0.47787272814E+02  0.20000008069E+02 0.  0.
        -12    1    1    2    0    0  0.34440516573E+01  0.23179344090E+02  0.36530530191E+02  0.43400727186E+02  0.00000000000E+00 0.  1.
         11    1    3    3    0    0  0.13999625581E+01 -0.81131585146E+01 -0.14416568669E+02  0.16601827872E+02  0.51100000000E-03 0. -1.
        -11    1    3    3    0    0 -0.73357815960E+01 -0.12173153390E+02 -0.74784796105E+01  0.16060106246E+02  0.51100000000E-03 0.  1.
        -12    1    3    3    0    0  0.24917673807E+01 -0.28930321848E+01 -0.14635481911E+02  0.15125338696E+02  0.00000000000E+00 0.  1.
</event>
<event>
 7    1  0.1322363E-009  0.4778727E+02  0.7816164E-02  0.1312668E+00
        -11   -1    0    0    0    0  0.00000000000E+00  0.00000000000E+00  0.45593999997E+02  0.45594000000E+02  0.51100000000E-03 0.  1.
         11   -1    0    0    0    0 -0.00000000000E+00 -0.00000000000E+00 -0.45593999997E+02  0.45594000000E+02  0.51100000000E-03 0. -1.
    9900012    2    1    2    0    0 -0.20798393316E+01 -0.66199358205E+01 -0.42842429802E+02  0.47787273355E+02  0.20000010536E+02 0.  0.
        -12    1    1    2    0    0  0.20798393316E+01  0.66199358205E+01  0.42842429802E+02  0.43400726645E+02  0.00000000000E+00 0.  1.
         11    1    3    3    0    0 -0.69527253145E+01 -0.72360252260E+01 -0.23865843297E+02  0.25889745593E+02  0.51100000000E-03 0. -1.
        -11    1    3    3    0    0  0.62482930800E+00  0.48494666753E+01 -0.94583778724E+01  0.10647471575E+02  0.51100000000E-03 0.  1.
        -12    1    3    3    0    0  0.42480566749E+01 -0.42333772698E+01 -0.95182086335E+01  0.11250056187E+02  0.00000000000E+00 0.  1.
</event>
<event>
 7    1  0.1322363E-009  0.4778727E+02  0.7816164E-02  0.1312668E+00
        -11   -1    0    0    0    0  0.00000000000E+00  0.00000000000E+00  0.45593999997E+02  0.45594000000E+02  0.51100000000E-03 0.  1.
         11   -1    0    0    0    0 -0.00000000000E+00 -0.00000000000E+00 -0.45593999997E+02  0.45594000000E+02  0.51100000000E-03 0. -1.
    9900012    2    1    2    0    0 -0.67508625117E+01  0.16739505227E+02 -0.39469459312E+02  0.47787269611E+02  0.19999993464E+02 0.  0.
        -12    1    1    2    0    0  0.67508625117E+01 -0.16739505227E+02  0.39469459312E+02  0.43400730389E+02  0.00000000000E+00 0.  1.
         11    1    3    3    0    0 -0.12407744030E+01  0.11044219402E+02 -0.23503532581E+02  0.25998660492E+02  0.51100000000E-03 0. -1.
        -11    1    3    3    0    0 -0.92778657125E+01  0.52622369587E+01 -0.13728963654E+02  0.17385464424E+02  0.51100000000E-03 0.  1.
        -12    1    3    3    0    0  0.37677776038E+01  0.43304886652E+00 -0.22369630775E+01  0.44031446947E+01  0.00000000000E+00 0.  1.
</event>
<event>
 7    1  0.1322363E-009  0.4778727E+02  0.7816164E-02  0.1312668E+00
        -11   -1    0    0    0    0  0.00000000000E+00  0.00000000000E+00  0.45593999997E+02  0.45594000000E+02  0.51100000000E-03 0. -1.
         11   -1    0    0    0    0 -0.00000000000E+00 -0.00000000000E+00 -0.45593999997E+02  0.45594000000E+02  0.51100000000E-03 0.  1.
    9900012    2    1    2    0    0  0.76463790850E+01  0.12492770106E+02  0.40854460835E+02  0.47787269728E+02  0.19999993997E+02 0.  0.
        -12    1    1    2    0    0 -0.76463790850E+01 -0.12492770106E+02 -0.40854460835E+02  0.43400730272E+02  0.00000000000E+00 0.  1.
         11    1    3    3    0    0  0.11338106401E+01  0.66214413230E+01  0.24095118157E+02  0.25014070660E+02  0.51100000000E-03 0. -1.
        -11    1    3    3    0    0  0.10186126824E+02  0.44955485801E+01  0.10038280989E+02  0.14991138122E+02  0.51100000000E-03 0.  1.
         12    1    3    3    0    0 -0.36735583791E+01  0.13757802033E+01  0.67210616889E+01  0.77820609454E+01  0.00000000000E+00 0. -1.
</event>
<event>
 7    1  0.1322363E-009  0.4778729E+02  0.7816164E-02  0.1312668E+00
        -11   -1    0    0    0    0  0.00000000000E+00  0.00000000000E+00  0.45593999997E+02  0.45594000000E+02  0.51100000000E-03 0. -1.
         11   -1    0    0    0    0 -0.00000000000E+00 -0.00000000000E+00 -0.45593999997E+02  0.45594000000E+02  0.51100000000E-03 0.  1.
    9900012    2    1    2    0    0  0.19714635626E+02 -0.38076742995E+02  0.67168744815E+01  0.47787290123E+02  0.20000086987E+02 0.  0.
        -12    1    1    2    0    0 -0.19714635626E+02  0.38076742995E+02 -0.67168744815E+01  0.43400709877E+02  0.00000000000E+00 0.  1.
         11    1    3    3    0    0  0.81478793348E+01 -0.14345912609E+02  0.11798776657E+02  0.20283103242E+02  0.51100000000E-03 0. -1.
        -11    1    3    3    0    0  0.20391963475E+01 -0.74542304434E+01 -0.37697241928E+01  0.85985285949E+01  0.51100000000E-03 0.  1.
        -12    1    3    3    0    0  0.95275599441E+01 -0.16276599943E+02 -0.13121779830E+01  0.18905658286E+02  0.00000000000E+00 0.  1.
</event>
<event>
 7    1  0.1322363E-009  0.4778727E+02  0.7816164E-02  0.1312668E+00
        -11   -1    0    0    0    0  0.00000000000E+00  0.00000000000E+00  0.45593999997E+02  0.45594000000E+02  0.51100000000E-03 0. -1.
         11   -1    0    0    0    0 -0.00000000000E+00 -0.00000000000E+00 -0.45593999997E+02  0.45594000000E+02  0.51100000000E-03 0.  1.
    9900012    2    1    2    0    0  0.39182966798E+01  0.40029041588E+02  0.16307843313E+02  0.47787274512E+02  0.20000015811E+02 0.  0.
        -12    1    1    2    0    0 -0.39182966798E+01 -0.40029041588E+02 -0.16307843313E+02  0.43400725488E+02  0.00000000000E+00 0.  1.
         11    1    3    3    0    0  0.16498485968E+01  0.22951552922E+02  0.44906358483E+01  0.23444862817E+02  0.51100000000E-03 0. -1.
        -11    1    3    3    0    0 -0.36500045266E+01  0.19762415988E+01 -0.20088320943E+00  0.41555286338E+01  0.51100000000E-03 0.  1.
        -12    1    3    3    0    0  0.59184526096E+01  0.15101247067E+02  0.12018090674E+02  0.20186883062E+02  0.00000000000E+00 0.  1.
</event>
<event>
 7    1  0.1322363E-009  0.4778727E+02  0.7816164E-02  0.1312668E+00
        -11   -1    0    0    0    0  0.00000000000E+00  0.00000000000E+00  0.45593999997E+02  0.45594000000E+02  0.51100000000E-03 0.  1.
         11   -1    0    0    0    0 -0.00000000000E+00 -0.00000000000E+00 -0.45593999997E+02  0.45594000000E+02  0.51100000000E-03 0. -1.
    9900012    2    1    2    0    0 -0.62507760291E+01  0.13861394535E+02 -0.40649877161E+02  0.47787274515E+02  0.20000015824E+02 0.  0.
        -12    1    1    2    0    0  0.62507760291E+01 -0.13861394535E+02  0.40649877161E+02  0.43400725485E+02  0.00000000000E+00 0.  1.
         11    1    3    3    0    0 -0.15289666119E+01  0.19016127126E+01 -0.53017399601E+01  0.58362930594E+01  0.51100000000E-03 0. -1.
        -11    1    3    3    0    0  0.22598949541E+01  0.13179937738E+02 -0.30670872894E+02  0.33459233828E+02  0.51100000000E-03 0.  1.
         12    1    3    3    0    0 -0.69817043713E+01 -0.12201559156E+01 -0.46772643064E+01  0.84917476281E+01  0.00000000000E+00 0. -1.
</event>
<event>
 7    1  0.1322363E-009  0.4778726E+02  0.7816164E-02  0.1312668E+00
        -11   -1    0    0    0    0  0.00000000000E+00  0.00000000000E+00  0.45593999997E+02  0.45594000000E+02  0.51100000000E-03 0.  1.
         11   -1    0    0    0    0 -0.00000000000E+00 -0.00000000000E+00 -0.45593999997E+02  0.45594000000E+02  0.51100000000E-03 0. -1.
    9900012    2    1    2    0    0  0.22942043379E+02 -0.15927813727E+02 -0.33220351957E+02  0.47787258202E+02  0.19999941445E+02 0.  0.
        -12    1    1    2    0    0 -0.22942043379E+02  0.15927813727E+02  0.33220351957E+02  0.43400741798E+02  0.00000000000E+00 0.  1.
         11    1    3    3    0    0  0.27074837359E+01  0.28701462952E+00  0.11564378999E+01  0.29580727602E+01  0.51100000000E-03 0. -1.
        -11    1    3    3    0    0  0.11894813618E+02 -0.64414996699E+01 -0.86039093485E+01  0.16031430545E+02  0.51100000000E-03 0.  1.
         12    1    3    3    0    0  0.83397460257E+01 -0.97733286862E+01 -0.25772880508E+02  0.28797754896E+02  0.00000000000E+00 0. -1.
</event>
<event>
 7    1  0.1322363E-009  0.4778727E+02  0.7816164E-02  0.1312668E+00
        -11   -1    0    0    0    0  0.00000000000E+00  0.00000000000E+00  0.45593999997E+02  0.45594000000E+02  0.51100000000E-03 0. -1.
         11   -1    0    0    0    0 -0.00000000000E+00 -0.00000000000E+00 -0.45593999997E+02  0.45594000000E+02  0.51100000000E-03 0.  1.
    9900012    2    1    2    0    0  0.12568974461E+02 -0.37956067422E+02  0.16881383497E+02  0.47787270952E+02  0.19999999577E+02 0.  0.
        -12    1    1    2    0    0 -0.12568974461E+02  0.37956067422E+02 -0.16881383497E+02  0.43400729048E+02  0.00000000000E+00 0.  1.
         11    1    3    3    0    0  0.19203641064E+01 -0.22803342758E+02  0.16976014945E+02  0.28493250480E+02  0.51100000000E-03 0. -1.
        -11    1    3    3    0    0  0.12364163373E+01 -0.45673501454E+00 -0.12334720554E+01  0.18052107371E+01  0.51100000000E-03 0.  1.
         12    1    3    3    0    0  0.94121940172E+01 -0.14695989649E+02  0.11388406071E+01  0.17488809734E+02  0.00000000000E+00 0. -1.
</event>
<event>
 7    1  0.1322363E-009  0.4778727E+02  0.7816164E-02  0.1312668E+00
        -11   -1    0    0    0    0  0.00000000000E+00  0.00000000000E+00  0.45593999997E+02  0.45594000000E+02  0.51100000000E-03 0.  1.
         11   -1    0    0    0    0 -0.00000000000E+00 -0.00000000000E+00 -0.45593999997E+02  0.45594000000E+02  0.51100000000E-03 0. -1.
    9900012    2    1    2    0    0 -0.81588501877E+01  0.10994903439E+02 -0.41184563554E+02  0.47787274048E+02  0.20000013696E+02 0.  0.
        -12    1    1    2    0    0  0.81588501877E+01 -0.10994903439E+02  0.41184563554E+02  0.43400725952E+02  0.00000000000E+00 0.  1.
         11    1    3    3    0    0 -0.77436670646E+00  0.14104998054E+01 -0.12295702704E+02  0.12400542679E+02  0.51100000000E-03 0. -1.
        -11    1    3    3    0    0 -0.91912945295E+01  0.99683443406E+01 -0.11157853696E+02  0.17559768887E+02  0.51100000000E-03 0.  1.
        -12    1    3    3    0    0  0.18068110482E+01 -0.38394070694E+00 -0.17731007154E+02  0.17826962482E+02  0.00000000000E+00 0.  1.
</event>
<event>
 7    1  0.1322363E-009  0.4778728E+02  0.7816164E-02  0.1312668E+00
        -11   -1    0    0    0    0  0.00000000000E+00  0.00000000000E+00  0.45593999997E+02  0.45594000000E+02  0.51100000000E-03 0. -1.
         11   -1    0    0    0    0 -0.00000000000E+00 -0.00000000000E+00 -0.45593999997E+02  0.45594000000E+02  0.51100000000E-03 0.  1.
    9900012    2    1    2    0    0  0.27312962278E+02 -0.26581238983E+02  0.20762050380E+02  0.47787275234E+02  0.20000019101E+02 0.  0.
        -12    1    1    2    0    0 -0.27312962278E+02  0.26581238983E+02 -0.20762050380E+02  0.43400724766E+02  0.00000000000E+00 0.  1.
         11    1    3    3    0    0  0.26242408361E+02 -0.21041516564E+02  0.17050545289E+02  0.37711145710E+02  0.51100000000E-03 0. -1.
        -11    1    3    3    0    0  0.35909265791E+01 -0.50781427215E+01  0.92038661991E+00  0.62872409678E+01  0.51100000000E-03 0.  1.
        -12    1    3    3    0    0 -0.25203726613E+01 -0.46157969701E+00  0.27911184708E+01  0.37888885555E+01  0.00000000000E+00 0.  1.
</event>
<event>
 7    1  0.1322363E-009  0.4778728E+02  0.7816164E-02  0.1312668E+00
        -11   -1    0    0    0    0  0.00000000000E+00  0.00000000000E+00  0.45593999997E+02  0.45594000000E+02  0.51100000000E-03 0.  1.
         11   -1    0    0    0    0 -0.00000000000E+00 -0.00000000000E+00 -0.45593999997E+02  0.45594000000E+02  0.51100000000E-03 0. -1.
    9900012    2    1    2    0    0  0.15338067230E+02  0.89104643135E+01 -0.39610226337E+02  0.47787277527E+02  0.20000029559E+02 0.  0.
        -12    1    1    2    0    0 -0.15338067230E+02 -0.89104643135E+01  0.39610226337E+02  0.43400722473E+02  0.00000000000E+00 0.  1.
         11    1    3    3    0    0  0.12801208159E+01  0.13460092180E+01  0.22212733354E+00  0.18707728167E+01  0.51100000000E-03 0. -1.
        -11    1    3    3    0    0 -0.12718654667E+01  0.45545745112E+01 -0.22915691953E+01  0.52548149711E+01  0.51100000000E-03 0.  1.
         12    1    3    3    0    0  0.15329811881E+02  0.30098805843E+01 -0.37540784476E+02  0.40661689740E+02  0.00000000000E+00 0. -1.
</event>
<event>
 7    1  0.1322363E-009  0.4778727E+02  0.7816164E-02  0.1312668E+00
        -11   -1    0    0    0    0  0.00000000000E+00  0.00000000000E+00  0.45593999997E+02  0.45594000000E+02  0.51100000000E-03 0.  1.
         11   -1    0    0    0    0 -0.00000000000E+00 -0.00000000000E+00 -0.45593999997E+02  0.45594000000E+02  0.51100000000E-03 0. -1.
    9900012    2    1    2    0    0  0.60356699128E+01  0.15715942128E+01 -0.42950250959E+02  0.47787271007E+02  0.19999999830E+02 0.  0.
        -12    1    1    2    0    0 -0.60356699128E+01 -0.15715942128E+01  0.42950250959E+02  0.43400728993E+02  0.00000000000E+00 0.  1.
         11    1    3    3    0    0 -0.16018910645E+00 -0.37394033380E+01 -0.17788250362E+02  0.18177751486E+02  0.51100000000E-03 0. -1.
        -11    1    3    3    0    0  0.36701676318E+01 -0.38806478608E+01 -0.50397291273E+01  0.73435977697E+01  0.51100000000E-03 0.  1.
         12    1    3    3    0    0  0.25256913875E+01  0.91916454117E+01 -0.20122271469E+02  0.22265921751E+02  0.00000000000E+00 0. -1.
</event>
<event>
 7    1  0.1322363E-009  0.4778727E+02  0.7816164E-02  0.1312668E+00
        -11   -1    0    0    0    0  0.00000000000E+00  0.00000000000E+00  0.45593999997E+02  0.45594000000E+02  0.51100000000E-03 0. -1.
         11   -1    0    0    0    0 -0.00000000000E+00 -0.00000000000E+00 -0.45593999997E+02  0.45594000000E+02  0.51100000000E-03 0.  1.
    9900012    2    1    2    0    0  0.94857572535E+00  0.12863842615E+02  0.41439656900E+02  0.47787269514E+02  0.19999993022E+02 0.  0.
        -12    1    1    2    0    0 -0.94857572535E+00 -0.12863842615E+02 -0.41439656900E+02  0.43400730486E+02  0.00000000000E+00 0.  1.
         11    1    3    3    0    0  0.49372799964E+01  0.64965651948E+01  0.20281061408E+02  0.21861005128E+02  0.51100000000E-03 0. -1.
        -11    1    3    3    0    0 -0.10161499008E+01  0.78478242456E+01  0.48463961639E+01  0.92794645346E+01  0.51100000000E-03 0.  1.
        -12    1    3    3    0    0 -0.29725543703E+01 -0.14805468259E+01  0.16312199328E+02  0.16646799851E+02  0.00000000000E+00 0.  1.
</event>
<event>
 7    1  0.1322363E-009  0.4778727E+02  0.7816164E-02  0.1312668E+00
        -11   -1    0    0    0    0  0.00000000000E+00  0.00000000000E+00  0.45593999997E+02  0.45594000000E+02  0.51100000000E-03 0. -1.
         11   -1    0    0    0    0 -0.00000000000E+00 -0.00000000000E+00 -0.45593999997E+02  0.45594000000E+02  0.51100000000E-03 0.  1.
    9900012    2    1    2    0    0 -0.30075500424E+02  0.18265025196E+02  0.25406232747E+02  0.47787268053E+02  0.19999986360E+02 0.  0.
        -12    1    1    2    0    0  0.30075500424E+02 -0.18265025196E+02 -0.25406232747E+02  0.43400731947E+02  0.00000000000E+00 0.  1.
         11    1    3    3    0    0 -0.21607023230E+01  0.19636951496E+01  0.98133307418E+01  0.10238466373E+02  0.51100000000E-03 0. -1.
        -11    1    3    3    0    0 -0.10092535838E+02  0.13505425880E+01  0.13487592540E+01  0.10271435962E+02  0.51100000000E-03 0.  1.
        -12    1    3    3    0    0 -0.17822262263E+02  0.14950787458E+02  0.14244142751E+02  0.27277365718E+02  0.00000000000E+00 0.  1.
</event>
<event>
 7    1  0.1322363E-009  0.4778727E+02  0.7816164E-02  0.1312668E+00
        -11   -1    0    0    0    0  0.00000000000E+00  0.00000000000E+00  0.45593999997E+02  0.45594000000E+02  0.51100000000E-03 0. -1.
         11   -1    0    0    0    0 -0.00000000000E+00 -0.00000000000E+00 -0.45593999997E+02  0.45594000000E+02  0.51100000000E-03 0.  1.
    9900012    2    1    2    0    0  0.30375084888E+02 -0.29196924653E+02 -0.10417155423E+02  0.47787270533E+02  0.19999997668E+02 0.  0.
        -12    1    1    2    0    0 -0.30375084888E+02  0.29196924653E+02  0.10417155423E+02  0.43400729467E+02  0.00000000000E+00 0.  1.
         11    1    3    3    0    0  0.13178139604E+02 -0.90790949090E+01  0.14387921348E+01  0.16067465601E+02  0.51100000000E-03 0. -1.
        -11    1    3    3    0    0  0.32084308071E+01 -0.13366247040E+02 -0.71244496766E+01  0.15482518259E+02  0.51100000000E-03 0.  1.
         12    1    3    3    0    0  0.13988514477E+02 -0.67515827037E+01 -0.47314978815E+01  0.16237286673E+02  0.00000000000E+00 0. -1.
</event>
<event>
 7    1  0.1322363E-009  0.4778727E+02  0.7816164E-02  0.1312668E+00
        -11   -1    0    0    0    0  0.00000000000E+00  0.00000000000E+00  0.45593999997E+02  0.45594000000E+02  0.51100000000E-03 0. -1.
         11   -1    0    0    0    0 -0.00000000000E+00 -0.00000000000E+00 -0.45593999997E+02  0.45594000000E+02  0.51100000000E-03 0.  1.
    9900012    2    1    2    0    0  0.16327357758E+02  0.24995390134E+02  0.31500337593E+02  0.47787269502E+02  0.19999992965E+02 0.  0.
        -12    1    1    2    0    0 -0.16327357758E+02 -0.24995390134E+02 -0.31500337593E+02  0.43400730498E+02  0.00000000000E+00 0.  1.
         11    1    3    3    0    0  0.64076341861E+01  0.52241603570E+01  0.10250281400E+02  0.13168822891E+02  0.51100000000E-03 0. -1.
        -11    1    3    3    0    0  0.11567979291E+02  0.18180534995E+02  0.23161167364E+02  0.31635259940E+02  0.51100000000E-03 0.  1.
        -12    1    3    3    0    0 -0.16482557182E+01  0.15906947821E+01 -0.19111111708E+01  0.29831866702E+01  0.00000000000E+00 0.  1.
</event>
<event>
 7    1  0.1322363E-009  0.4778727E+02  0.7816164E-02  0.1312668E+00
        -11   -1    0    0    0    0  0.00000000000E+00  0.00000000000E+00  0.45593999997E+02  0.45594000000E+02  0.51100000000E-03 0. -1.
         11   -1    0    0    0    0 -0.00000000000E+00 -0.00000000000E+00 -0.45593999997E+02  0.45594000000E+02  0.51100000000E-03 0.  1.
    9900012    2    1    2    0    0 -0.33206815286E+02 -0.27824186622E+02 -0.25971450571E+01  0.47787272989E+02  0.20000008867E+02 0.  0.
        -12    1    1    2    0    0  0.33206815286E+02  0.27824186622E+02  0.25971450571E+01  0.43400727011E+02  0.00000000000E+00 0.  1.
         11    1    3    3    0    0 -0.13521346754E+02 -0.11005230108E+02  0.48914069704E+01  0.18107119323E+02  0.51100000000E-03 0. -1.
        -11    1    3    3    0    0 -0.13241785894E+02 -0.17817216909E+02 -0.58452712421E+01  0.22955724955E+02  0.51100000000E-03 0.  1.
         12    1    3    3    0    0 -0.64436826387E+01  0.99826039452E+00 -0.16432807853E+01  0.67244287120E+01  0.00000000000E+00 0. -1.
</event>
<event>
 7    1  0.1322363E-009  0.4778727E+02  0.7816164E-02  0.1312668E+00
        -11   -1    0    0    0    0  0.00000000000E+00  0.00000000000E+00  0.45593999997E+02  0.45594000000E+02  0.51100000000E-03 0. -1.
         11   -1    0    0    0    0 -0.00000000000E+00 -0.00000000000E+00 -0.45593999997E+02  0.45594000000E+02  0.51100000000E-03 0.  1.
    9900012    2    1    2    0    0 -0.37898649753E+02 -0.65605513543E+01  0.20106583703E+02  0.47787271949E+02  0.20000004125E+02 0.  0.
        -12    1    1    2    0    0  0.37898649753E+02  0.65605513543E+01 -0.20106583703E+02  0.43400728051E+02  0.00000000000E+00 0.  1.
         11    1    3    3    0    0 -0.12205589940E+01  0.38925494881E+01  0.51524187954E+01  0.65718433852E+01  0.51100000000E-03 0. -1.
        -11    1    3    3    0    0 -0.99932062483E+01 -0.29065262084E+01  0.19587305217E+01  0.10590027915E+02  0.51100000000E-03 0.  1.
        -12    1    3    3    0    0 -0.26684884510E+02 -0.75465746341E+01  0.12995434386E+02  0.30625400649E+02  0.00000000000E+00 0.  1.
</event>
<event>
 7    1  0.1322363E-009  0.4778727E+02  0.7816164E-02  0.1312668E+00
        -11   -1    0    0    0    0  0.00000000000E+00  0.00000000000E+00  0.45593999997E+02  0.45594000000E+02  0.51100000000E-03 0.  1.
         11   -1    0    0    0    0 -0.00000000000E+00 -0.00000000000E+00 -0.45593999997E+02  0.45594000000E+02  0.51100000000E-03 0. -1.
    9900012    2    1    2    0    0 -0.13869573010E+01 -0.30589992238E+02 -0.30756333512E+02  0.47787270435E+02  0.19999997220E+02 0.  0.
        -12    1    1    2    0    0  0.13869573010E+01  0.30589992238E+02  0.30756333512E+02  0.43400729565E+02  0.00000000000E+00 0.  1.
         11    1    3    3    0    0  0.22209801106E+01 -0.79349107438E+01 -0.15661373573E+01  0.83873921839E+01  0.51100000000E-03 0.  1.
        -11    1    3    3    0    0  0.23665104994E+01 -0.18520750739E+02 -0.24287624985E+02  0.30635066632E+02  0.51100000000E-03 0. -1.
        -12    1    3    3    0    0 -0.59744479110E+01 -0.41343307552E+01 -0.49025711695E+01  0.87648116184E+01  0.00000000000E+00 0.  1.
</event>
<event>
 7    1  0.1322363E-009  0.4778727E+02  0.7816164E-02  0.1312668E+00
        -11   -1    0    0    0    0  0.00000000000E+00  0.00000000000E+00  0.45593999997E+02  0.45594000000E+02  0.51100000000E-03 0.  1.
         11   -1    0    0    0    0 -0.00000000000E+00 -0.00000000000E+00 -0.45593999997E+02  0.45594000000E+02  0.51100000000E-03 0. -1.
    9900012    2    1    2    0    0 -0.39324441131E+02 -0.11750431957E+01 -0.18325696170E+02  0.47787268015E+02  0.19999986186E+02 0.  0.
        -12    1    1    2    0    0  0.39324441131E+02  0.11750431957E+01  0.18325696170E+02  0.43400731985E+02  0.00000000000E+00 0.  1.
         11    1    3    3    0    0  0.11963975773E+01  0.46008002785E+00  0.16001661557E+00  0.12917609583E+01  0.51100000000E-03 0. -1.
        -11    1    3    3    0    0 -0.21763294722E+02  0.46126846131E+01 -0.57498163002E+01  0.22977777183E+02  0.51100000000E-03 0.  1.
         12    1    3    3    0    0 -0.18757543986E+02 -0.62478078366E+01 -0.12735896485E+02  0.23517729874E+02  0.00000000000E+00 0. -1.
</event>
<event>
 7    1  0.1322363E-009  0.4778728E+02  0.7816164E-02  0.1312668E+00
        -11   -1    0    0    0    0  0.00000000000E+00  0.00000000000E+00  0.45593999997E+02  0.45594000000E+02  0.51100000000E-03 0.  1.
         11   -1    0    0    0    0 -0.00000000000E+00 -0.00000000000E+00 -0.45593999997E+02  0.45594000000E+02  0.51100000000E-03 0. -1.
    9900012    2    1    2    0    0 -0.71657273047E+00  0.32683938808E+02 -0.28545911642E+02  0.47787281067E+02  0.20000045696E+02 0.  0.
        -12    1    1    2    0    0  0.71657273047E+00 -0.32683938808E+02  0.28545911642E+02  0.43400718933E+02  0.00000000000E+00 0.  1.
         11    1    3    3    0    0 -0.37486770743E+01  0.40159688573E+01 -0.90446834313E+01  0.10582385568E+02  0.51100000000E-03 0. -1.
        -11    1    3    3    0    0  0.21875931241E+01  0.76631850608E+01  0.76379357163E+00  0.80058322387E+01  0.51100000000E-03 0.  1.
         12    1    3    3    0    0  0.84451121974E+00  0.21004784889E+02 -0.20265021782E+02  0.29199063260E+02  0.00000000000E+00 0. -1.
</event>
<event>
 7    1  0.1322363E-009  0.4778729E+02  0.7816164E-02  0.1312668E+00
        -11   -1    0    0    0    0  0.00000000000E+00  0.00000000000E+00  0.45593999997E+02  0.45594000000E+02  0.51100000000E-03 0.  1.
         11   -1    0    0    0    0 -0.00000000000E+00 -0.00000000000E+00 -0.45593999997E+02  0.45594000000E+02  0.51100000000E-03 0. -1.
    9900012    2    1    2    0    0  0.96249648620E+00  0.25890969711E+01 -0.43312719347E+02  0.47787291713E+02  0.20000094236E+02 0.  0.
        -12    1    1    2    0    0 -0.96249648620E+00 -0.25890969711E+01  0.43312719347E+02  0.43400708287E+02  0.00000000000E+00 0.  1.
         11    1    3    3    0    0 -0.28095608690E+01 -0.24024787301E+01 -0.20812313991E+01  0.42422942758E+01  0.51100000000E-03 0. -1.
        -11    1    3    3    0    0 -0.29108133624E+01  0.34462955039E+01 -0.30340417261E+02  0.30673941823E+02  0.51100000000E-03 0.  1.
        -12    1    3    3    0    0  0.66828707176E+01  0.15452801973E+01 -0.10891070686E+02  0.12871055614E+02  0.00000000000E+00 0.  1.
</event>
<event>
 7    1  0.1322363E-009  0.4778726E+02  0.7816164E-02  0.1312668E+00
        -11   -1    0    0    0    0  0.00000000000E+00  0.00000000000E+00  0.45593999997E+02  0.45594000000E+02  0.51100000000E-03 0.  1.
         11   -1    0    0    0    0 -0.00000000000E+00 -0.00000000000E+00 -0.45593999997E+02  0.45594000000E+02  0.51100000000E-03 0. -1.
    9900012    2    1    2    0    0  0.26088225283E+01  0.33573019784E+02 -0.27380114516E+02  0.47787259415E+02  0.19999946977E+02 0.  0.
        -12    1    1    2    0    0 -0.26088225283E+01 -0.33573019784E+02  0.27380114516E+02  0.43400740585E+02  0.00000000000E+00 0.  1.
         11    1    3    3    0    0 -0.60723032459E+01  0.11663215062E+02 -0.11238970294E+02  0.17297916228E+02  0.51100000000E-03 0. -1.
        -11    1    3    3    0    0  0.11399470501E+00 -0.11359386616E+01 -0.13017015720E+00  0.11490413250E+01  0.51100000000E-03 0.  1.
         12    1    3    3    0    0  0.85671310691E+01  0.23045743384E+02 -0.16010974064E+02  0.29340301862E+02  0.00000000000E+00 0. -1.
</event>
<event>
 7    1  0.1322363E-009  0.4778727E+02  0.7816164E-02  0.1312668E+00
        -11   -1    0    0    0    0  0.00000000000E+00  0.00000000000E+00  0.45593999997E+02  0.45594000000E+02  0.51100000000E-03 0.  1.
         11   -1    0    0    0    0 -0.00000000000E+00 -0.00000000000E+00 -0.45593999997E+02  0.45594000000E+02  0.51100000000E-03 0. -1.
    9900012    2    1    2    0    0  0.19136087249E+02 -0.30815294749E+02 -0.23829627415E+02  0.47787269955E+02  0.19999995033E+02 0.  0.
        -12    1    1    2    0    0 -0.19136087249E+02  0.30815294749E+02  0.23829627415E+02  0.43400730045E+02  0.00000000000E+00 0.  1.
         11    1    3    3    0    0  0.10516245535E+02 -0.24682244554E+02 -0.13875405434E+02  0.30204825651E+02  0.51100000000E-03 0. -1.
        -11    1    3    3    0    0 -0.18196134564E+01 -0.12929995457E+01  0.19296141224E+00  0.22405524595E+01  0.51100000000E-03 0.  1.
        -12    1    3    3    0    0  0.10439455171E+02 -0.48400506493E+01 -0.10147183394E+02  0.15341891845E+02  0.00000000000E+00 0.  1.
</event>
<event>
 7    1  0.1322363E-009  0.4778727E+02  0.7816164E-02  0.1312668E+00
        -11   -1    0    0    0    0  0.00000000000E+00  0.00000000000E+00  0.45593999997E+02  0.45594000000E+02  0.51100000000E-03 0. -1.
         11   -1    0    0    0    0 -0.00000000000E+00 -0.00000000000E+00 -0.45593999997E+02  0.45594000000E+02  0.51100000000E-03 0.  1.
    9900012    2    1    2    0    0  0.45657580006E+01  0.46056677048E+01  0.42913458259E+02  0.47787271655E+02  0.20000002782E+02 0.  0.
        -12    1    1    2    0    0 -0.45657580006E+01 -0.46056677048E+01 -0.42913458259E+02  0.43400728345E+02  0.00000000000E+00 0.  1.
         11    1    3    3    0    0 -0.47247084498E+01 -0.16819496232E+00  0.21968805933E+02  0.22471751019E+02  0.51100000000E-03 0. -1.
        -11    1    3    3    0    0  0.35972130214E+01  0.62598078283E+01  0.16272354604E+02  0.17802097073E+02  0.51100000000E-03 0.  1.
         12    1    3    3    0    0  0.56932534291E+01 -0.14859451611E+01  0.46722977227E+01  0.75134235632E+01  0.00000000000E+00 0. -1.
</event>
<event>
 7    1  0.1322363E-009  0.4778727E+02  0.7816164E-02  0.1312668E+00
        -11   -1    0    0    0    0  0.00000000000E+00  0.00000000000E+00  0.45593999997E+02  0.45594000000E+02  0.51100000000E-03 0.  1.
         11   -1    0    0    0    0 -0.00000000000E+00 -0.00000000000E+00 -0.45593999997E+02  0.45594000000E+02  0.51100000000E-03 0. -1.
    9900012    2    1    2    0    0  0.21184724529E+02 -0.12624419026E+02 -0.35713511126E+02  0.47787269752E+02  0.19999994107E+02 0.  0.
        -12    1    1    2    0    0 -0.21184724529E+02  0.12624419026E+02  0.35713511126E+02  0.43400730248E+02  0.00000000000E+00 0.  1.
         11    1    3    3    0    0  0.12712109050E+01 -0.95173684358E+00 -0.96580893652E+01  0.97877714844E+01  0.51100000000E-03 0. -1.
        -11    1    3    3    0    0  0.21757172662E+02 -0.73720474499E+01 -0.21997717327E+02  0.31805993362E+02  0.51100000000E-03 0.  1.
         12    1    3    3    0    0 -0.18436590380E+01 -0.43006347323E+01 -0.40577044338E+01  0.61935049060E+01  0.00000000000E+00 0. -1.
</event>
<event>
 7    1  0.1322363E-009  0.4778727E+02  0.7816164E-02  0.1312668E+00
        -11   -1    0    0    0    0  0.00000000000E+00  0.00000000000E+00  0.45593999997E+02  0.45594000000E+02  0.51100000000E-03 0.  1.
         11   -1    0    0    0    0 -0.00000000000E+00 -0.00000000000E+00 -0.45593999997E+02  0.45594000000E+02  0.51100000000E-03 0. -1.
    9900012    2    1    2    0    0  0.50396520146E+01  0.16754354123E+02 -0.39717970646E+02  0.47787266518E+02  0.19999979363E+02 0.  0.
        -12    1    1    2    0    0 -0.50396520146E+01 -0.16754354123E+02  0.39717970646E+02  0.43400733482E+02  0.00000000000E+00 0.  1.
         11    1    3    3    0    0  0.19664940296E+01  0.94094445124E+01 -0.28796014438E+02  0.30358115761E+02  0.51100000000E-03 0. -1.
        -11    1    3    3    0    0 -0.13294960419E+00 -0.28536529229E+01 -0.28315033811E+01  0.40222409500E+01  0.51100000000E-03 0.  1.
        -12    1    3    3    0    0  0.32061075892E+01  0.10198562533E+02 -0.80904528275E+01  0.13406909807E+02  0.00000000000E+00 0.  1.
</event>
<event>
 7    1  0.1322363E-009  0.4778727E+02  0.7816164E-02  0.1312668E+00
        -11   -1    0    0    0    0  0.00000000000E+00  0.00000000000E+00  0.45593999997E+02  0.45594000000E+02  0.51100000000E-03 0.  1.
         11   -1    0    0    0    0 -0.00000000000E+00 -0.00000000000E+00 -0.45593999997E+02  0.45594000000E+02  0.51100000000E-03 0. -1.
    9900012    2    1    2    0    0 -0.19226961131E+02 -0.32234373140E+02 -0.21792025898E+02  0.47787271448E+02  0.20000001840E+02 0.  0.
        -12    1    1    2    0    0  0.19226961131E+02  0.32234373140E+02  0.21792025898E+02  0.43400728552E+02  0.00000000000E+00 0.  1.
         11    1    3    3    0    0 -0.86767857275E+01 -0.19234679552E+02 -0.41040603174E+01  0.21496576923E+02  0.51100000000E-03 0. -1.
        -11    1    3    3    0    0  0.12323120893E+01  0.57223463773E+00 -0.20920778573E+01  0.24945612015E+01  0.51100000000E-03 0.  1.
         12    1    3    3    0    0 -0.11782487493E+02 -0.13571928226E+02 -0.15595887724E+02  0.23796133324E+02  0.00000000000E+00 0. -1.
</event>
<event>
 7    1  0.1322363E-009  0.4778727E+02  0.7816164E-02  0.1312668E+00
        -11   -1    0    0    0    0  0.00000000000E+00  0.00000000000E+00  0.45593999997E+02  0.45594000000E+02  0.51100000000E-03 0. -1.
         11   -1    0    0    0    0 -0.00000000000E+00 -0.00000000000E+00 -0.45593999997E+02  0.45594000000E+02  0.51100000000E-03 0.  1.
    9900012    2    1    2    0    0 -0.26175350369E+02 -0.13371951542E+02  0.31932199124E+02  0.47787269639E+02  0.19999993590E+02 0.  0.
        -12    1    1    2    0    0  0.26175350369E+02  0.13371951542E+02 -0.31932199124E+02  0.43400730361E+02  0.00000000000E+00 0.  1.
         11    1    3    3    0    0 -0.58720458399E+01 -0.75887519123E+01  0.17767025941E+02  0.20192505763E+02  0.51100000000E-03 0. -1.
        -11    1    3    3    0    0 -0.87726543185E+00  0.26938328281E+00 -0.16069644570E+01  0.18505396559E+01  0.51100000000E-03 0.  1.
        -12    1    3    3    0    0 -0.19426039097E+02 -0.60525829128E+01  0.15772137640E+02  0.25744224219E+02  0.00000000000E+00 0.  1.
</event>
<event>
 7    1  0.1322363E-009  0.4778727E+02  0.7816164E-02  0.1312668E+00
        -11   -1    0    0    0    0  0.00000000000E+00  0.00000000000E+00  0.45593999997E+02  0.45594000000E+02  0.51100000000E-03 0.  1.
         11   -1    0    0    0    0 -0.00000000000E+00 -0.00000000000E+00 -0.45593999997E+02  0.45594000000E+02  0.51100000000E-03 0. -1.
    9900012    2    1    2    0    0  0.23710226192E+02 -0.36337320943E+02  0.10234982854E+01  0.47787271111E+02  0.20000000304E+02 0.  0.
        -12    1    1    2    0    0 -0.23710226192E+02  0.36337320943E+02 -0.10234982854E+01  0.43400728889E+02  0.00000000000E+00 0.  1.
         11    1    3    3    0    0  0.69030810048E+01 -0.20608593703E+02  0.55552509030E+01  0.22432732215E+02  0.51100000000E-03 0. -1.
        -11    1    3    3    0    0  0.93810750341E+01 -0.13776364338E+02 -0.56422099266E+01  0.17596230173E+02  0.51100000000E-03 0.  1.
        -12    1    3    3    0    0  0.74260701527E+01 -0.19523629014E+01  0.11104573090E+01  0.77583087234E+01  0.00000000000E+00 0.  1.
</event>
<event>
 7    1  0.1322363E-009  0.4778728E+02  0.7816164E-02  0.1312668E+00
        -11   -1    0    0    0    0  0.00000000000E+00  0.00000000000E+00  0.45593999997E+02  0.45594000000E+02  0.51100000000E-03 0.  1.
         11   -1    0    0    0    0 -0.00000000000E+00 -0.00000000000E+00 -0.45593999997E+02  0.45594000000E+02  0.51100000000E-03 0. -1.
    9900012    2    1    2    0    0 -0.36639226839E+02  0.14076723905E+02 -0.18521206831E+02  0.47787283396E+02  0.20000056316E+02 0.  0.
        -12    1    1    2    0    0  0.36639226839E+02 -0.14076723905E+02  0.18521206831E+02  0.43400716604E+02  0.00000000000E+00 0.  1.
         11    1    3    3    0    0 -0.12493307214E+01  0.36249733797E+01  0.68016363672E-01  0.38348253861E+01  0.51100000000E-03 0.  1.
        -11    1    3    3    0    0 -0.24438880291E+02  0.75676987087E+01 -0.20090008208E+02  0.32529023405E+02  0.51100000000E-03 0. -1.
         12    1    3    3    0    0 -0.10951015827E+02  0.28840518167E+01  0.15007850131E+01  0.11423434605E+02  0.00000000000E+00 0. -1.
</event>
<event>
 7    1  0.1322363E-009  0.4778725E+02  0.7816164E-02  0.1312668E+00
        -11   -1    0    0    0    0  0.00000000000E+00  0.00000000000E+00  0.45593999997E+02  0.45594000000E+02  0.51100000000E-03 0.  1.
         11   -1    0    0    0    0 -0.00000000000E+00 -0.00000000000E+00 -0.45593999997E+02  0.45594000000E+02  0.51100000000E-03 0. -1.
    9900012    2    1    2    0    0 -0.17341500502E+02  0.39696129712E+02 -0.26673575684E+01  0.47787249429E+02  0.19999901445E+02 0.  0.
        -12    1    1    2    0    0  0.17341500502E+02 -0.39696129712E+02  0.26673575684E+01  0.43400750571E+02  0.00000000000E+00 0.  1.
         11    1    3    3    0    0 -0.75993868036E+01  0.10323535727E+02  0.68091527578E+01  0.14515186228E+02  0.51100000000E-03 0. -1.
        -11    1    3    3    0    0 -0.40302299254E+01  0.17503286097E+02 -0.18624298359E+01  0.18057586290E+02  0.51100000000E-03 0.  1.
        -12    1    3    3    0    0 -0.57118837729E+01  0.11869307888E+02 -0.76140804903E+01  0.15214476911E+02  0.00000000000E+00 0.  1.
</event>
<event>
 7    1  0.1322363E-009  0.4778727E+02  0.7816164E-02  0.1312668E+00
        -11   -1    0    0    0    0  0.00000000000E+00  0.00000000000E+00  0.45593999997E+02  0.45594000000E+02  0.51100000000E-03 0.  1.
         11   -1    0    0    0    0 -0.00000000000E+00 -0.00000000000E+00 -0.45593999997E+02  0.45594000000E+02  0.51100000000E-03 0. -1.
    9900012    2    1    2    0    0  0.38911487724E+02  0.13068183604E+02 -0.14097580975E+02  0.47787273175E+02  0.20000009713E+02 0.  0.
        -12    1    1    2    0    0 -0.38911487724E+02 -0.13068183604E+02  0.14097580975E+02  0.43400726825E+02  0.00000000000E+00 0.  1.
         11    1    3    3    0    0  0.15127209331E+02  0.44343877577E+01 -0.38425041625E+01  0.16225322661E+02  0.51100000000E-03 0. -1.
        -11    1    3    3    0    0  0.21599203504E+02  0.11199440334E+02 -0.12655226303E+02  0.27424584024E+02  0.51100000000E-03 0.  1.
        -12    1    3    3    0    0  0.21850748881E+01 -0.25656444870E+01  0.24001494908E+01  0.41373664907E+01  0.00000000000E+00 0.  1.
</event>
<event>
 7    1  0.1322363E-009  0.4778729E+02  0.7816164E-02  0.1312668E+00
        -11   -1    0    0    0    0  0.00000000000E+00  0.00000000000E+00  0.45593999997E+02  0.45594000000E+02  0.51100000000E-03 0.  1.
         11   -1    0    0    0    0 -0.00000000000E+00 -0.00000000000E+00 -0.45593999997E+02  0.45594000000E+02  0.51100000000E-03 0. -1.
    9900012    2    1    2    0    0 -0.26600186997E+02 -0.27232683963E+02 -0.20843056336E+02  0.47787285472E+02  0.20000065780E+02 0.  0.
        -12    1    1    2    0    0  0.26600186997E+02  0.27232683963E+02  0.20843056336E+02  0.43400714528E+02  0.00000000000E+00 0.  1.
         11    1    3    3    0    0 -0.95440659948E+01 -0.97213657862E+01 -0.48066309771E+01  0.14446378441E+02  0.51100000000E-03 0. -1.
        -11    1    3    3    0    0  0.56682174534E+00  0.24824764138E+01 -0.18597261446E+01  0.31531821435E+01  0.51100000000E-03 0.  1.
        -12    1    3    3    0    0 -0.17622942748E+02 -0.19993794591E+02 -0.14176699215E+02  0.30187724887E+02  0.00000000000E+00 0.  1.
</event>
<event>
 7    1  0.1322363E-009  0.4778727E+02  0.7816164E-02  0.1312668E+00
        -11   -1    0    0    0    0  0.00000000000E+00  0.00000000000E+00  0.45593999997E+02  0.45594000000E+02  0.51100000000E-03 0.  1.
         11   -1    0    0    0    0 -0.00000000000E+00 -0.00000000000E+00 -0.45593999997E+02  0.45594000000E+02  0.51100000000E-03 0. -1.
    9900012    2    1    2    0    0 -0.16512934202E+02 -0.19795020675E+02 -0.34915661413E+02  0.47787271303E+02  0.20000001181E+02 0.  0.
        -12    1    1    2    0    0  0.16512934202E+02  0.19795020675E+02  0.34915661413E+02  0.43400728697E+02  0.00000000000E+00 0.  1.
         11    1    3    3    0    0 -0.66134333636E+01  0.14560160597E+01 -0.84297338399E+01  0.10812857924E+02  0.51100000000E-03 0. -1.
        -11    1    3    3    0    0 -0.12253186727E+02 -0.17451592294E+02 -0.22199325946E+02  0.30781629770E+02  0.51100000000E-03 0.  1.
        -12    1    3    3    0    0  0.23536858886E+01 -0.37994444409E+01 -0.42866016271E+01  0.61927836092E+01  0.00000000000E+00 0.  1.
</event>
<event>
 7    1  0.1322363E-009  0.4778727E+02  0.7816164E-02  0.1312668E+00
        -11   -1    0    0    0    0  0.00000000000E+00  0.00000000000E+00  0.45593999997E+02  0.45594000000E+02  0.51100000000E-03 0.  1.
         11   -1    0    0    0    0 -0.00000000000E+00 -0.00000000000E+00 -0.45593999997E+02  0.45594000000E+02  0.51100000000E-03 0. -1.
    9900012    2    1    2    0    0  0.22571118716E+02  0.28837257851E+02 -0.23293353264E+02  0.47787272509E+02  0.20000006675E+02 0.  0.
        -12    1    1    2    0    0 -0.22571118716E+02 -0.28837257851E+02  0.23293353264E+02  0.43400727491E+02  0.00000000000E+00 0.  1.
         11    1    3    3    0    0  0.53110320119E+01  0.46301255982E+01 -0.91504898276E+01  0.11548878233E+02  0.51100000000E-03 0. -1.
        -11    1    3    3    0    0  0.13129134986E+02  0.14148925106E+02 -0.12070933868E+01  0.19339683085E+02  0.51100000000E-03 0.  1.
         12    1    3    3    0    0  0.41309517183E+01  0.10058207147E+02 -0.12935770050E+02  0.16898711191E+02  0.00000000000E+00 0. -1.
</event>
<event>
 7    1  0.1322363E-009  0.4778730E+02  0.7816164E-02  0.1312668E+00
        -11   -1    0    0    0    0  0.00000000000E+00  0.00000000000E+00  0.45593999997E+02  0.45594000000E+02  0.51100000000E-03 0.  1.
         11   -1    0    0    0    0 -0.00000000000E+00 -0.00000000000E+00 -0.45593999997E+02  0.45594000000E+02  0.51100000000E-03 0. -1.
    9900012    2    1    2    0    0  0.34716261916E+02 -0.23678568694E+02 -0.10850240107E+02  0.47787295314E+02  0.20000110656E+02 0.  0.
        -12    1    1    2    0    0 -0.34716261916E+02  0.23678568694E+02  0.10850240107E+02  0.43400704686E+02  0.00000000000E+00 0.  1.
         11    1    3    3    0    0  0.79063099367E+01 -0.12865487432E+02 -0.83773765432E+01  0.17268785182E+02  0.51100000000E-03 0. -1.
        -11    1    3    3    0    0  0.83979541902E+01  0.11268030014E+01 -0.61739939895E+00  0.84956754801E+01  0.51100000000E-03 0.  1.
        -12    1    3    3    0    0  0.18411997789E+02 -0.11939884264E+02 -0.18554641646E+01  0.22022834652E+02  0.00000000000E+00 0.  1.
</event>
<event>
 7    1  0.1322363E-009  0.4778726E+02  0.7816164E-02  0.1312668E+00
        -11   -1    0    0    0    0  0.00000000000E+00  0.00000000000E+00  0.45593999997E+02  0.45594000000E+02  0.51100000000E-03 0.  1.
         11   -1    0    0    0    0 -0.00000000000E+00 -0.00000000000E+00 -0.45593999997E+02  0.45594000000E+02  0.51100000000E-03 0. -1.
    9900012    2    1    2    0    0 -0.90268820138E+01 -0.10957593821E+02 -0.41013057221E+02  0.47787258948E+02  0.19999944847E+02 0.  0.
        -12    1    1    2    0    0  0.90268820138E+01  0.10957593821E+02  0.41013057221E+02  0.43400741052E+02  0.00000000000E+00 0.  1.
         11    1    3    3    0    0  0.19994602723E+01 -0.33618782434E+01 -0.27722350326E+02  0.27996942236E+02  0.51100000000E-03 0. -1.
        -11    1    3    3    0    0 -0.30567584255E+01 -0.55960735931E+01 -0.67750230239E+01  0.93038029303E+01  0.51100000000E-03 0.  1.
        -12    1    3    3    0    0 -0.79695838607E+01 -0.19996419843E+01 -0.65156838715E+01  0.10486513782E+02  0.00000000000E+00 0.  1.
</event>
<event>
 7    1  0.1322363E-009  0.4778727E+02  0.7816164E-02  0.1312668E+00
        -11   -1    0    0    0    0  0.00000000000E+00  0.00000000000E+00  0.45593999997E+02  0.45594000000E+02  0.51100000000E-03 0.  1.
         11   -1    0    0    0    0 -0.00000000000E+00 -0.00000000000E+00 -0.45593999997E+02  0.45594000000E+02  0.51100000000E-03 0. -1.
    9900012    2    1    2    0    0 -0.11246717753E+02 -0.11877355158E+02 -0.40200285326E+02  0.47787272287E+02  0.20000005665E+02 0.  0.
        -12    1    1    2    0    0  0.11246717753E+02  0.11877355158E+02  0.40200285326E+02  0.43400727713E+02  0.00000000000E+00 0.  1.
         11    1    3    3    0    0  0.21870646104E+00  0.17063771549E+01  0.52337815811E+00  0.17981881070E+01  0.51100000000E-03 0. -1.
        -11    1    3    3    0    0 -0.10182518867E+02 -0.10240806047E+02 -0.18452260003E+02  0.23431681511E+02  0.51100000000E-03 0.  1.
         12    1    3    3    0    0 -0.12829053478E+01 -0.33429262655E+01 -0.22271403481E+02  0.22557402669E+02  0.00000000000E+00 0. -1.
</event>
<event>
 7    1  0.1322363E-009  0.4778727E+02  0.7816164E-02  0.1312668E+00
        -11   -1    0    0    0    0  0.00000000000E+00  0.00000000000E+00  0.45593999997E+02  0.45594000000E+02  0.51100000000E-03 0. -1.
         11   -1    0    0    0    0 -0.00000000000E+00 -0.00000000000E+00 -0.45593999997E+02  0.45594000000E+02  0.51100000000E-03 0.  1.
    9900012    2    1    2    0    0 -0.41857048141E+02 -0.11057386900E+02  0.30569652826E+01  0.47787270502E+02  0.19999997529E+02 0.  0.
        -12    1    1    2    0    0  0.41857048141E+02  0.11057386900E+02 -0.30569652826E+01  0.43400729498E+02  0.00000000000E+00 0.  1.
         11    1    3    3    0    0 -0.17228376670E+02 -0.54423483960E+01 -0.33564608071E+01  0.18376668581E+02  0.51100000000E-03 0. -1.
        -11    1    3    3    0    0 -0.25654645977E+02 -0.35477384773E+01  0.73474796132E+01  0.26920861157E+02  0.51100000000E-03 0.  1.
        -12    1    3    3    0    0  0.10259745054E+01 -0.20673000269E+01 -0.93405352356E+00  0.24897407639E+01  0.00000000000E+00 0.  1.
</event>
<event>
 7    1  0.1322363E-009  0.4778727E+02  0.7816164E-02  0.1312668E+00
        -11   -1    0    0    0    0  0.00000000000E+00  0.00000000000E+00  0.45593999997E+02  0.45594000000E+02  0.51100000000E-03 0.  1.
         11   -1    0    0    0    0 -0.00000000000E+00 -0.00000000000E+00 -0.45593999997E+02  0.45594000000E+02  0.51100000000E-03 0. -1.
    9900012    2    1    2    0    0 -0.33747491528E+02 -0.23324744226E+02 -0.14166370640E+02  0.47787274951E+02  0.20000017812E+02 0.  0.
        -12    1    1    2    0    0  0.33747491528E+02  0.23324744226E+02  0.14166370640E+02  0.43400725049E+02  0.00000000000E+00 0.  1.
         11    1    3    3    0    0 -0.18429532553E+02 -0.14437157414E+02 -0.89668011737E+01  0.25069557393E+02  0.51100000000E-03 0. -1.
        -11    1    3    3    0    0 -0.76410538799E+01 -0.98446688184E+01 -0.76254566608E+01  0.14609955444E+02  0.51100000000E-03 0.  1.
        -12    1    3    3    0    0 -0.76769050953E+01  0.95708200720E+00  0.24258871943E+01  0.81077621136E+01  0.00000000000E+00 0.  1.
</event>
<event>
 7    1  0.1322363E-009  0.4778727E+02  0.7816164E-02  0.1312668E+00
        -11   -1    0    0    0    0  0.00000000000E+00  0.00000000000E+00  0.45593999997E+02  0.45594000000E+02  0.51100000000E-03 0. -1.
         11   -1    0    0    0    0 -0.00000000000E+00 -0.00000000000E+00 -0.45593999997E+02  0.45594000000E+02  0.51100000000E-03 0.  1.
    9900012    2    1    2    0    0  0.42860920084E+02 -0.23051655301E+01  0.64226930956E+01  0.47787271375E+02  0.20000001508E+02 0.  0.
        -12    1    1    2    0    0 -0.42860920084E+02  0.23051655301E+01 -0.64226930956E+01  0.43400728625E+02  0.00000000000E+00 0.  1.
         11    1    3    3    0    0  0.17810957957E+02 -0.37474792473E+01  0.19746674563E+01  0.18307734318E+02  0.51100000000E-03 0. -1.
        -11    1    3    3    0    0  0.25338901358E+01 -0.63938498147E-01  0.63459880064E+01  0.68334655476E+01  0.51100000000E-03 0.  1.
        -12    1    3    3    0    0  0.22516071991E+02  0.15062522153E+01 -0.18979623671E+01  0.22646071509E+02  0.00000000000E+00 0.  1.
</event>
<event>
 7    1  0.1322363E-009  0.4778728E+02  0.7816164E-02  0.1312668E+00
        -11   -1    0    0    0    0  0.00000000000E+00  0.00000000000E+00  0.45593999997E+02  0.45594000000E+02  0.51100000000E-03 0.  1.
         11   -1    0    0    0    0 -0.00000000000E+00 -0.00000000000E+00 -0.45593999997E+02  0.45594000000E+02  0.51100000000E-03 0. -1.
    9900012    2    1    2    0    0 -0.45049591168E+00 -0.11990266489E+02 -0.41709144339E+02  0.47787283894E+02  0.20000058586E+02 0.  0.
        -12    1    1    2    0    0  0.45049591168E+00  0.11990266489E+02  0.41709144339E+02  0.43400716106E+02  0.00000000000E+00 0.  1.
         11    1    3    3    0    0 -0.25951177695E+01 -0.16970416248E+02 -0.28952382894E+02  0.33659621795E+02  0.51100000000E-03 0. -1.
        -11    1    3    3    0    0 -0.72160574631E-02  0.28983565605E+01 -0.45807075411E+01  0.54206461480E+01  0.51100000000E-03 0.  1.
         12    1    3    3    0    0  0.21518379153E+01  0.20817931987E+01 -0.81760539034E+01  0.87070159508E+01  0.00000000000E+00 0. -1.
</event>
<event>
 7    1  0.1322363E-009  0.4778727E+02  0.7816164E-02  0.1312668E+00
        -11   -1    0    0    0    0  0.00000000000E+00  0.00000000000E+00  0.45593999997E+02  0.45594000000E+02  0.51100000000E-03 0.  1.
         11   -1    0    0    0    0 -0.00000000000E+00 -0.00000000000E+00 -0.45593999997E+02  0.45594000000E+02  0.51100000000E-03 0. -1.
    9900012    2    1    2    0    0 -0.32694304164E+02 -0.27021294662E+02 -0.91953828355E+01  0.47787274713E+02  0.20000016724E+02 0.  0.
        -12    1    1    2    0    0  0.32694304164E+02  0.27021294662E+02  0.91953828355E+01  0.43400725287E+02  0.00000000000E+00 0.  1.
         11    1    3    3    0    0 -0.14392179017E+02 -0.45791469011E+01 -0.43804222513E+01  0.15725504843E+02  0.51100000000E-03 0. -1.
        -11    1    3    3    0    0 -0.11968549547E+01 -0.52706921383E+01 -0.56382893542E+01  0.78104394564E+01  0.51100000000E-03 0.  1.
        -12    1    3    3    0    0 -0.17105270192E+02 -0.17171455623E+02  0.82332877001E+00  0.24251330413E+02  0.00000000000E+00 0.  1.
</event>
<event>
 7    1  0.1322363E-009  0.4778727E+02  0.7816164E-02  0.1312668E+00
        -11   -1    0    0    0    0  0.00000000000E+00  0.00000000000E+00  0.45593999997E+02  0.45594000000E+02  0.51100000000E-03 0.  1.
         11   -1    0    0    0    0 -0.00000000000E+00 -0.00000000000E+00 -0.45593999997E+02  0.45594000000E+02  0.51100000000E-03 0. -1.
    9900012    2    1    2    0    0 -0.90209403656E+01  0.29334162071E+01 -0.42351399341E+02  0.47787270492E+02  0.19999997481E+02 0.  0.
        -12    1    1    2    0    0  0.90209403656E+01 -0.29334162071E+01  0.42351399341E+02  0.43400729508E+02  0.00000000000E+00 0.  1.
         11    1    3    3    0    0 -0.13663791275E+01 -0.16987025265E+01 -0.26059447395E+02  0.26150475732E+02  0.51100000000E-03 0. -1.
        -11    1    3    3    0    0  0.23304289918E+01  0.64601128837E+00 -0.40215610060E+00  0.24515219071E+01  0.51100000000E-03 0.  1.
         12    1    3    3    0    0 -0.99849902299E+01  0.39861074453E+01 -0.15889795845E+02  0.19185272853E+02  0.00000000000E+00 0. -1.
</event>
<event>
 7    1  0.1322363E-009  0.4778727E+02  0.7816164E-02  0.1312668E+00
        -11   -1    0    0    0    0  0.00000000000E+00  0.00000000000E+00  0.45593999997E+02  0.45594000000E+02  0.51100000000E-03 0.  1.
         11   -1    0    0    0    0 -0.00000000000E+00 -0.00000000000E+00 -0.45593999997E+02  0.45594000000E+02  0.51100000000E-03 0. -1.
    9900012    2    1    2    0    0 -0.38406634041E+02  0.19491431680E+02 -0.53514155014E+01  0.47787273104E+02  0.20000009389E+02 0.  0.
        -12    1    1    2    0    0  0.38406634041E+02 -0.19491431680E+02  0.53514155014E+01  0.43400726896E+02  0.00000000000E+00 0.  1.
         11    1    3    3    0    0  0.16840289613E+01  0.23078358139E+01 -0.24886705869E+01  0.37888707074E+01  0.51100000000E-03 0.  1.
        -11    1    3    3    0    0 -0.14268691677E+02  0.69450657995E+01  0.12481205044E+01  0.15918143930E+02  0.51100000000E-03 0. -1.
         12    1    3    3    0    0 -0.25821971325E+02  0.10238530066E+02 -0.41108654190E+01  0.28080258466E+02  0.00000000000E+00 0. -1.
</event>
<event>
 7    1  0.1322363E-009  0.4778727E+02  0.7816164E-02  0.1312668E+00
        -11   -1    0    0    0    0  0.00000000000E+00  0.00000000000E+00  0.45593999997E+02  0.45594000000E+02  0.51100000000E-03 0.  1.
         11   -1    0    0    0    0 -0.00000000000E+00 -0.00000000000E+00 -0.45593999997E+02  0.45594000000E+02  0.51100000000E-03 0. -1.
    9900012    2    1    2    0    0  0.32099117015E+02  0.22994502763E+02 -0.18014522697E+02  0.47787268457E+02  0.19999988203E+02 0.  0.
        -12    1    1    2    0    0 -0.32099117015E+02 -0.22994502763E+02  0.18014522697E+02  0.43400731543E+02  0.00000000000E+00 0.  1.
         11    1    3    3    0    0  0.12262129586E+02  0.28093075022E+01 -0.12376656040E+02  0.17647482699E+02  0.51100000000E-03 0. -1.
        -11    1    3    3    0    0  0.18464529236E+01  0.69238241756E+01 -0.23966523321E+01  0.75559693141E+01  0.51100000000E-03 0.  1.
         12    1    3    3    0    0  0.17990534506E+02  0.13261371085E+02 -0.32412143245E+01  0.22583816444E+02  0.00000000000E+00 0. -1.
</event>
<event>
 7    1  0.1322363E-009  0.4778727E+02  0.7816164E-02  0.1312668E+00
        -11   -1    0    0    0    0  0.00000000000E+00  0.00000000000E+00  0.45593999997E+02  0.45594000000E+02  0.51100000000E-03 0.  1.
         11   -1    0    0    0    0 -0.00000000000E+00 -0.00000000000E+00 -0.45593999997E+02  0.45594000000E+02  0.51100000000E-03 0. -1.
    9900012    2    1    2    0    0 -0.30206804866E+02  0.29914558997E+02  0.87344999585E+01  0.47787269710E+02  0.19999993917E+02 0.  0.
        -12    1    1    2    0    0  0.30206804866E+02 -0.29914558997E+02 -0.87344999585E+01  0.43400730290E+02  0.00000000000E+00 0.  1.
         11    1    3    3    0    0 -0.12868998452E+02  0.13328481822E+02  0.10963072183E+02  0.21527854069E+02  0.51100000000E-03 0. -1.
        -11    1    3    3    0    0 -0.10576884405E+02  0.16100666249E+02 -0.52901043470E+00  0.19271268502E+02  0.51100000000E-03 0.  1.
        -12    1    3    3    0    0 -0.67609220080E+01  0.48541092631E+00 -0.16995617901E+01  0.69881471396E+01  0.00000000000E+00 0.  1.
</event>
<event>
 7    1  0.1322363E-009  0.4778727E+02  0.7816164E-02  0.1312668E+00
        -11   -1    0    0    0    0  0.00000000000E+00  0.00000000000E+00  0.45593999997E+02  0.45594000000E+02  0.51100000000E-03 0.  1.
         11   -1    0    0    0    0 -0.00000000000E+00 -0.00000000000E+00 -0.45593999997E+02  0.45594000000E+02  0.51100000000E-03 0. -1.
    9900012    2    1    2    0    0  0.29765271686E+02 -0.26699848987E+01 -0.31472578330E+02  0.47787269538E+02  0.19999993134E+02 0.  0.
        -12    1    1    2    0    0 -0.29765271686E+02  0.26699848987E+01  0.31472578330E+02  0.43400730462E+02  0.00000000000E+00 0.  1.
         11    1    3    3    0    0  0.13011851493E+02  0.73040047708E+00 -0.26407351635E+02  0.29448089662E+02  0.51100000000E-03 0. -1.
        -11    1    3    3    0    0  0.42216656619E+01 -0.27356420473E+01 -0.85689164915E+00  0.51029855899E+01  0.51100000000E-03 0.  1.
         12    1    3    3    0    0  0.12531754531E+02 -0.66474332852E+00 -0.42083350452E+01  0.13236194286E+02  0.00000000000E+00 0. -1.
</event>
<event>
 7    1  0.1322363E-009  0.4778727E+02  0.7816164E-02  0.1312668E+00
        -11   -1    0    0    0    0  0.00000000000E+00  0.00000000000E+00  0.45593999997E+02  0.45594000000E+02  0.51100000000E-03 0.  1.
         11   -1    0    0    0    0 -0.00000000000E+00 -0.00000000000E+00 -0.45593999997E+02  0.45594000000E+02  0.51100000000E-03 0. -1.
    9900012    2    1    2    0    0 -0.43016186162E+02 -0.57386706105E+01 -0.54661184715E+00  0.47787269628E+02  0.19999993541E+02 0.  0.
        -12    1    1    2    0    0  0.43016186162E+02  0.57386706105E+01  0.54661184715E+00  0.43400730372E+02  0.00000000000E+00 0.  1.
         11    1    3    3    0    0 -0.56783186150E+01 -0.13122800499E+01 -0.13801000829E+01  0.59891616879E+01  0.51100000000E-03 0.  1.
        -11    1    3    3    0    0 -0.24393013042E+02 -0.11373179350E+02  0.24147368648E+01  0.27022199173E+02  0.51100000000E-03 0. -1.
         12    1    3    3    0    0 -0.12944854506E+02  0.69467887891E+01 -0.15812486290E+01  0.14775908766E+02  0.00000000000E+00 0. -1.
</event>
<event>
 7    1  0.1322363E-009  0.4778728E+02  0.7816164E-02  0.1312668E+00
        -11   -1    0    0    0    0  0.00000000000E+00  0.00000000000E+00  0.45593999997E+02  0.45594000000E+02  0.51100000000E-03 0.  1.
         11   -1    0    0    0    0 -0.00000000000E+00 -0.00000000000E+00 -0.45593999997E+02  0.45594000000E+02  0.51100000000E-03 0. -1.
    9900012    2    1    2    0    0 -0.12508477413E+02  0.16354134646E+02 -0.38206058908E+02  0.47787278065E+02  0.20000032008E+02 0.  0.
        -12    1    1    2    0    0  0.12508477413E+02 -0.16354134646E+02  0.38206058908E+02  0.43400721935E+02  0.00000000000E+00 0.  1.
         11    1    3    3    0    0 -0.11554811242E+02  0.85587486360E+01 -0.20095395825E+02  0.24710135060E+02  0.51100000000E-03 0. -1.
        -11    1    3    3    0    0 -0.13535745734E+01 -0.27221892581E+01 -0.14448592965E+01  0.33660209640E+01  0.51100000000E-03 0.  1.
         12    1    3    3    0    0  0.39990840216E+00  0.10517575268E+02 -0.16665803786E+02  0.19711122040E+02  0.00000000000E+00 0. -1.
</event>
<event>
 7    1  0.1322363E-009  0.4778727E+02  0.7816164E-02  0.1312668E+00
        -11   -1    0    0    0    0  0.00000000000E+00  0.00000000000E+00  0.45593999997E+02  0.45594000000E+02  0.51100000000E-03 0. -1.
         11   -1    0    0    0    0 -0.00000000000E+00 -0.00000000000E+00 -0.45593999997E+02  0.45594000000E+02  0.51100000000E-03 0.  1.
    9900012    2    1    2    0    0 -0.14295756326E+02  0.29249882025E+02  0.28700156650E+02  0.47787271445E+02  0.20000001825E+02 0.  0.
        -12    1    1    2    0    0  0.14295756326E+02 -0.29249882025E+02 -0.28700156650E+02  0.43400728555E+02  0.00000000000E+00 0.  1.
         11    1    3    3    0    0 -0.95690298256E+01  0.21259372865E+02  0.13909675925E+02  0.27147860892E+02  0.51100000000E-03 0. -1.
        -11    1    3    3    0    0 -0.77580380500E+01  0.29820795309E+01  0.10446250171E+02  0.13349310680E+02  0.51100000000E-03 0.  1.
         12    1    3    3    0    0  0.30313115495E+01  0.50084296293E+01  0.43442305537E+01  0.72900998734E+01  0.00000000000E+00 0. -1.
</event>
<event>
 7    1  0.1322363E-009  0.4778727E+02  0.7816164E-02  0.1312668E+00
        -11   -1    0    0    0    0  0.00000000000E+00  0.00000000000E+00  0.45593999997E+02  0.45594000000E+02  0.51100000000E-03 0. -1.
         11   -1    0    0    0    0 -0.00000000000E+00 -0.00000000000E+00 -0.45593999997E+02  0.45594000000E+02  0.51100000000E-03 0.  1.
    9900012    2    1    2    0    0 -0.23265425117E+02 -0.32023483338E+02  0.17800004196E+02  0.47787266822E+02  0.19999980750E+02 0.  0.
        -12    1    1    2    0    0  0.23265425117E+02  0.32023483338E+02 -0.17800004196E+02  0.43400733178E+02  0.00000000000E+00 0.  1.
         11    1    3    3    0    0 -0.16681179143E+01 -0.41134007336E+01 -0.20467058084E+01  0.48879124274E+01  0.51100000000E-03 0. -1.
        -11    1    3    3    0    0 -0.21406699256E+02 -0.21001524958E+02  0.11635303378E+02  0.32166614813E+02  0.51100000000E-03 0.  1.
         12    1    3    3    0    0 -0.19060794685E+00 -0.69085576466E+01  0.82114066263E+01  0.10732739582E+02  0.00000000000E+00 0. -1.
</event>
<event>
 7    1  0.1322363E-009  0.4778728E+02  0.7816164E-02  0.1312668E+00
        -11   -1    0    0    0    0  0.00000000000E+00  0.00000000000E+00  0.45593999997E+02  0.45594000000E+02  0.51100000000E-03 0.  1.
         11   -1    0    0    0    0 -0.00000000000E+00 -0.00000000000E+00 -0.45593999997E+02  0.45594000000E+02  0.51100000000E-03 0. -1.
    9900012    2    1    2    0    0 -0.73355448266E+01 -0.52254583497E+01 -0.42455944120E+02  0.47787276227E+02  0.20000023629E+02 0.  0.
        -12    1    1    2    0    0  0.73355448266E+01  0.52254583497E+01  0.42455944120E+02  0.43400723773E+02  0.00000000000E+00 0.  1.
         11    1    3    3    0    0 -0.18339007956E+01 -0.67257358279E+01 -0.24741858174E+02  0.25705218551E+02  0.51100000000E-03 0. -1.
        -11    1    3    3    0    0 -0.87569758367E+01 -0.13365516313E+01 -0.12267631085E+02  0.15131614876E+02  0.51100000000E-03 0.  1.
         12    1    3    3    0    0  0.32553318057E+01  0.28368291096E+01 -0.54464548614E+01  0.69504428002E+01  0.00000000000E+00 0. -1.
</event>
<event>
 7    1  0.1322363E-009  0.4778727E+02  0.7816164E-02  0.1312668E+00
        -11   -1    0    0    0    0  0.00000000000E+00  0.00000000000E+00  0.45593999997E+02  0.45594000000E+02  0.51100000000E-03 0.  1.
         11   -1    0    0    0    0 -0.00000000000E+00 -0.00000000000E+00 -0.45593999997E+02  0.45594000000E+02  0.51100000000E-03 0. -1.
    9900012    2    1    2    0    0 -0.37782962179E+01 -0.41020442720E+02 -0.13662772111E+02  0.47787267460E+02  0.19999983659E+02 0.  0.
        -12    1    1    2    0    0  0.37782962179E+01  0.41020442720E+02  0.13662772111E+02  0.43400732540E+02  0.00000000000E+00 0.  1.
         11    1    3    3    0    0 -0.21004466041E+01 -0.78192687572E+01  0.31253750126E+01  0.86787561934E+01  0.51100000000E-03 0.  1.
        -11    1    3    3    0    0 -0.19572552939E+01 -0.19108266185E+02 -0.15985747374E+02  0.24990014091E+02  0.51100000000E-03 0. -1.
         12    1    3    3    0    0  0.27940568010E+00 -0.14092907777E+02 -0.80239974911E+00  0.14118497176E+02  0.00000000000E+00 0. -1.
</event>
<event>
 7    1  0.1322363E-009  0.4778727E+02  0.7816164E-02  0.1312668E+00
        -11   -1    0    0    0    0  0.00000000000E+00  0.00000000000E+00  0.45593999997E+02  0.45594000000E+02  0.51100000000E-03 0.  1.
         11   -1    0    0    0    0 -0.00000000000E+00 -0.00000000000E+00 -0.45593999997E+02  0.45594000000E+02  0.51100000000E-03 0. -1.
    9900012    2    1    2    0    0  0.37692579352E+02  0.72668903226E+01 -0.20250567209E+02  0.47787266072E+02  0.19999977329E+02 0.  0.
        -12    1    1    2    0    0 -0.37692579352E+02 -0.72668903226E+01  0.20250567209E+02  0.43400733928E+02  0.00000000000E+00 0.  1.
         11    1    3    3    0    0  0.18939662276E+02 -0.37436092622E+01 -0.14159515320E+02  0.23941956724E+02  0.51100000000E-03 0. -1.
        -11    1    3    3    0    0  0.11003990706E+01  0.13942043970E+01  0.15329981893E+01  0.23462241421E+01  0.51100000000E-03 0.  1.
        -12    1    3    3    0    0  0.17652518006E+02  0.96162951879E+01 -0.76240500784E+01  0.21499085206E+02  0.00000000000E+00 0.  1.
</event>
<event>
 7    1  0.1322363E-009  0.4778727E+02  0.7816164E-02  0.1312668E+00
        -11   -1    0    0    0    0  0.00000000000E+00  0.00000000000E+00  0.45593999997E+02  0.45594000000E+02  0.51100000000E-03 0.  1.
         11   -1    0    0    0    0 -0.00000000000E+00 -0.00000000000E+00 -0.45593999997E+02  0.45594000000E+02  0.51100000000E-03 0. -1.
    9900012    2    1    2    0    0 -0.60198088707E-01 -0.11603226022E+02 -0.41820865888E+02  0.47787270726E+02  0.19999998546E+02 0.  0.
        -12    1    1    2    0    0  0.60198088707E-01  0.11603226022E+02  0.41820865888E+02  0.43400729274E+02  0.00000000000E+00 0.  1.
         11    1    3    3    0    0 -0.53666796129E+01 -0.86470690217E+01 -0.69903610243E+01  0.12346586583E+02  0.51100000000E-03 0. -1.
        -11    1    3    3    0    0  0.94664972852E+00  0.17034248064E+00 -0.94814202325E+01  0.95300835335E+01  0.51100000000E-03 0.  1.
         12    1    3    3    0    0  0.43598317957E+01 -0.31264994809E+01 -0.25349084631E+02  0.25910600609E+02  0.00000000000E+00 0. -1.
</event>
<event>
 7    1  0.1322363E-009  0.4778727E+02  0.7816164E-02  0.1312668E+00
        -11   -1    0    0    0    0  0.00000000000E+00  0.00000000000E+00  0.45593999997E+02  0.45594000000E+02  0.51100000000E-03 0.  1.
         11   -1    0    0    0    0 -0.00000000000E+00 -0.00000000000E+00 -0.45593999997E+02  0.45594000000E+02  0.51100000000E-03 0. -1.
    9900012    2    1    2    0    0 -0.34480207528E+02  0.25869933956E+02 -0.50482530202E+01  0.47787273594E+02  0.20000011623E+02 0.  0.
        -12    1    1    2    0    0  0.34480207528E+02 -0.25869933956E+02  0.50482530202E+01  0.43400726406E+02  0.00000000000E+00 0.  1.
         11    1    3    3    0    0 -0.13578805068E+02  0.15086645889E+02 -0.30207300264E+01  0.20521102344E+02  0.51100000000E-03 0. -1.
        -11    1    3    3    0    0 -0.67748979770E+01  0.48837905832E+01  0.57060031745E+01  0.10114797356E+02  0.51100000000E-03 0.  1.
         12    1    3    3    0    0 -0.14126504483E+02  0.58994974834E+01 -0.77335261683E+01  0.17151373894E+02  0.00000000000E+00 0. -1.
</event>
<event>
 7    1  0.1322363E-009  0.4778726E+02  0.7816164E-02  0.1312668E+00
        -11   -1    0    0    0    0  0.00000000000E+00  0.00000000000E+00  0.45593999997E+02  0.45594000000E+02  0.51100000000E-03 0. -1.
         11   -1    0    0    0    0 -0.00000000000E+00 -0.00000000000E+00 -0.45593999997E+02  0.45594000000E+02  0.51100000000E-03 0.  1.
    9900012    2    1    2    0    0 -0.41546152616E+01 -0.35399026881E+02  0.24764342725E+02  0.47787255735E+02  0.19999930199E+02 0.  0.
        -12    1    1    2    0    0  0.41546152616E+01  0.35399026881E+02 -0.24764342725E+02  0.43400744265E+02  0.00000000000E+00 0.  1.
         11    1    3    3    0    0 -0.98888968446E+01 -0.27674075696E+02  0.17403943952E+02  0.34154677744E+02  0.51100000000E-03 0. -1.
        -11    1    3    3    0    0  0.14664093672E+00  0.61215998235E+00 -0.56376127780E+00  0.84502689175E+00  0.51100000000E-03 0.  1.
        -12    1    3    3    0    0  0.55876406463E+01 -0.83371111678E+01  0.79241600512E+01  0.12787551100E+02  0.00000000000E+00 0.  1.
</event>
<event>
 7    1  0.1322363E-009  0.4778727E+02  0.7816164E-02  0.1312668E+00
        -11   -1    0    0    0    0  0.00000000000E+00  0.00000000000E+00  0.45593999997E+02  0.45594000000E+02  0.51100000000E-03 0.  1.
         11   -1    0    0    0    0 -0.00000000000E+00 -0.00000000000E+00 -0.45593999997E+02  0.45594000000E+02  0.51100000000E-03 0. -1.
    9900012    2    1    2    0    0  0.77054317300E+01  0.50314838086E+00 -0.42708274683E+02  0.47787267716E+02  0.19999984823E+02 0.  0.
        -12    1    1    2    0    0 -0.77054317300E+01 -0.50314838086E+00  0.42708274683E+02  0.43400732284E+02  0.00000000000E+00 0.  1.
         11    1    3    3    0    0  0.66497464168E+01 -0.60457214245E+01 -0.39137208944E+02  0.40155833936E+02  0.51100000000E-03 0. -1.
        -11    1    3    3    0    0  0.56375401437E+00  0.18196533158E+01 -0.49437688251E+00  0.19680867719E+01  0.51100000000E-03 0.  1.
         12    1    3    3    0    0  0.49193129881E+00  0.47292164895E+01 -0.30766888563E+01  0.56633470074E+01  0.00000000000E+00 0. -1.
</event>
<event>
 7    1  0.1322363E-009  0.4778727E+02  0.7816164E-02  0.1312668E+00
        -11   -1    0    0    0    0  0.00000000000E+00  0.00000000000E+00  0.45593999997E+02  0.45594000000E+02  0.51100000000E-03 0.  1.
         11   -1    0    0    0    0 -0.00000000000E+00 -0.00000000000E+00 -0.45593999997E+02  0.45594000000E+02  0.51100000000E-03 0. -1.
    9900012    2    1    2    0    0 -0.33033382312E+02 -0.22268399467E+02 -0.17220254971E+02  0.47787272551E+02  0.20000006871E+02 0.  0.
        -12    1    1    2    0    0  0.33033382312E+02  0.22268399467E+02  0.17220254971E+02  0.43400727449E+02  0.00000000000E+00 0.  1.
         11    1    3    3    0    0 -0.10091809415E+02 -0.17468623664E+02 -0.59316794894E+01  0.21028130012E+02  0.51100000000E-03 0. -1.
        -11    1    3    3    0    0 -0.44852260195E+01  0.14935282896E+01 -0.27768212062E+01  0.54825737997E+01  0.51100000000E-03 0.  1.
         12    1    3    3    0    0 -0.18456346878E+02 -0.62933040918E+01 -0.85117542751E+01  0.21276568739E+02  0.00000000000E+00 0. -1.
</event>
<event>
 7    1  0.1322363E-009  0.4778727E+02  0.7816164E-02  0.1312668E+00
        -11   -1    0    0    0    0  0.00000000000E+00  0.00000000000E+00  0.45593999997E+02  0.45594000000E+02  0.51100000000E-03 0.  1.
         11   -1    0    0    0    0 -0.00000000000E+00 -0.00000000000E+00 -0.45593999997E+02  0.45594000000E+02  0.51100000000E-03 0. -1.
    9900012    2    1    2    0    0  0.41806441132E+02 -0.10376435171E+02 -0.53079462817E+01  0.47787271657E+02  0.20000002794E+02 0.  0.
        -12    1    1    2    0    0 -0.41806441132E+02  0.10376435171E+02  0.53079462817E+01  0.43400728343E+02  0.00000000000E+00 0.  1.
         11    1    3    3    0    0  0.14562405998E+02 -0.33893877940E+00  0.75472184600E+00  0.14585888841E+02  0.51100000000E-03 0. -1.
        -11    1    3    3    0    0  0.19134878486E+02 -0.13170982807E+02 -0.12468850335E+01  0.23263127161E+02  0.51100000000E-03 0.  1.
        -12    1    3    3    0    0  0.81091566474E+01  0.31334864159E+01 -0.48157830941E+01  0.99382556549E+01  0.00000000000E+00 0.  1.
</event>
<event>
 7    1  0.1322363E-009  0.4778723E+02  0.7816164E-02  0.1312668E+00
        -11   -1    0    0    0    0  0.00000000000E+00  0.00000000000E+00  0.45593999997E+02  0.45594000000E+02  0.51100000000E-03 0.  1.
         11   -1    0    0    0    0 -0.00000000000E+00 -0.00000000000E+00 -0.45593999997E+02  0.45594000000E+02  0.51100000000E-03 0. -1.
    9900012    2    1    2    0    0  0.97068304725E+01 -0.34438211085E+02 -0.24564491270E+02  0.47787226137E+02  0.19999795247E+02 0.  0.
        -12    1    1    2    0    0 -0.97068304725E+01  0.34438211085E+02  0.24564491270E+02  0.43400773863E+02  0.00000000000E+00 0.  1.
         11    1    3    3    0    0  0.35364470469E+01 -0.12824158391E+02 -0.95745661154E+01  0.16390174273E+02  0.51100000000E-03 0. -1.
        -11    1    3    3    0    0  0.32834993358E+01  0.10444373797E+01 -0.58608329332E+01  0.67986454725E+01  0.51100000000E-03 0.  1.
        -12    1    3    3    0    0  0.28868840898E+01 -0.22658490074E+02 -0.91290922213E+01  0.24598406391E+02  0.00000000000E+00 0.  1.
</event>
<event>
 7    1  0.1322363E-009  0.4778727E+02  0.7816164E-02  0.1312668E+00
        -11   -1    0    0    0    0  0.00000000000E+00  0.00000000000E+00  0.45593999997E+02  0.45594000000E+02  0.51100000000E-03 0.  1.
         11   -1    0    0    0    0 -0.00000000000E+00 -0.00000000000E+00 -0.45593999997E+02  0.45594000000E+02  0.51100000000E-03 0. -1.
    9900012    2    1    2    0    0 -0.33661063169E+02  0.23557670729E+01 -0.27294808160E+02  0.47787269999E+02  0.19999995232E+02 0.  0.
        -12    1    1    2    0    0  0.33661063169E+02 -0.23557670729E+01  0.27294808160E+02  0.43400730001E+02  0.00000000000E+00 0.  1.
         11    1    3    3    0    0 -0.17920413835E+02  0.25905903934E+01 -0.58397764815E+01  0.19025124973E+02  0.51100000000E-03 0. -1.
        -11    1    3    3    0    0 -0.73609741601E+01 -0.48264719304E+01 -0.62181537587E+01  0.10777022238E+02  0.51100000000E-03 0.  1.
         12    1    3    3    0    0 -0.83796751734E+01  0.45916486100E+01 -0.15236877920E+02  0.17985122788E+02  0.00000000000E+00 0. -1.
</event>
<event>
 7    1  0.1322363E-009  0.4778727E+02  0.7816164E-02  0.1312668E+00
        -11   -1    0    0    0    0  0.00000000000E+00  0.00000000000E+00  0.45593999997E+02  0.45594000000E+02  0.51100000000E-03 0. -1.
         11   -1    0    0    0    0 -0.00000000000E+00 -0.00000000000E+00 -0.45593999997E+02  0.45594000000E+02  0.51100000000E-03 0.  1.
    9900012    2    1    2    0    0  0.18631021119E+02 -0.38763324187E+02  0.58234863424E+01  0.47787271398E+02  0.20000001612E+02 0.  0.
        -12    1    1    2    0    0 -0.18631021119E+02  0.38763324187E+02 -0.58234863424E+01  0.43400728602E+02  0.00000000000E+00 0.  1.
         11    1    3    3    0    0  0.34559230766E+01 -0.31434202241E+01  0.58904586354E+01  0.75181113462E+01  0.51100000000E-03 0. -1.
        -11    1    3    3    0    0  0.74256394916E+00 -0.10491859591E+02 -0.35080639941E+01  0.11087697332E+02  0.51100000000E-03 0.  1.
         12    1    3    3    0    0  0.14432534093E+02 -0.25128044373E+02  0.34410917011E+01  0.29181462720E+02  0.00000000000E+00 0. -1.
</event>
<event>
 7    1  0.1322363E-009  0.4778727E+02  0.7816164E-02  0.1312668E+00
        -11   -1    0    0    0    0  0.00000000000E+00  0.00000000000E+00  0.45593999997E+02  0.45594000000E+02  0.51100000000E-03 0.  1.
         11   -1    0    0    0    0 -0.00000000000E+00 -0.00000000000E+00 -0.45593999997E+02  0.45594000000E+02  0.51100000000E-03 0. -1.
    9900012    2    1    2    0    0  0.23579252201E+02 -0.25981880673E+02 -0.25545722378E+02  0.47787272016E+02  0.20000004431E+02 0.  0.
        -12    1    1    2    0    0 -0.23579252201E+02  0.25981880673E+02  0.25545722378E+02  0.43400727984E+02  0.00000000000E+00 0.  1.
         11    1    3    3    0    0  0.14760840914E+02 -0.22108324267E+02 -0.15879754505E+02  0.30964932258E+02  0.51100000000E-03 0. -1.
        -11    1    3    3    0    0  0.10647631840E+02 -0.22057223343E+01 -0.93230329247E+01  0.14323275393E+02  0.51100000000E-03 0.  1.
        -12    1    3    3    0    0 -0.18292205523E+01 -0.16678340722E+01 -0.34293494884E+00  0.24990643650E+01  0.00000000000E+00 0.  1.
</event>
<event>
 7    1  0.1322363E-009  0.4778727E+02  0.7816164E-02  0.1312668E+00
        -11   -1    0    0    0    0  0.00000000000E+00  0.00000000000E+00  0.45593999997E+02  0.45594000000E+02  0.51100000000E-03 0. -1.
         11   -1    0    0    0    0 -0.00000000000E+00 -0.00000000000E+00 -0.45593999997E+02  0.45594000000E+02  0.51100000000E-03 0.  1.
    9900012    2    1    2    0    0  0.34593067392E+00  0.26151933003E+02  0.34634952482E+02  0.47787271881E+02  0.20000003816E+02 0.  0.
        -12    1    1    2    0    0 -0.34593067392E+00 -0.26151933003E+02 -0.34634952482E+02  0.43400728119E+02  0.00000000000E+00 0.  1.
         11    1    3    3    0    0  0.59405520645E+01  0.16327965456E+02  0.20146784283E+02  0.26604238985E+02  0.51100000000E-03 0. -1.
        -11    1    3    3    0    0  0.30155845876E+01  0.23847800979E+01  0.21747191297E+01  0.44170499289E+01  0.51100000000E-03 0.  1.
        -12    1    3    3    0    0 -0.86102059782E+01  0.74391874492E+01  0.12313449069E+02  0.16765982968E+02  0.00000000000E+00 0.  1.
</event>
<event>
 7    1  0.1322363E-009  0.4778727E+02  0.7816164E-02  0.1312668E+00
        -11   -1    0    0    0    0  0.00000000000E+00  0.00000000000E+00  0.45593999997E+02  0.45594000000E+02  0.51100000000E-03 0. -1.
         11   -1    0    0    0    0 -0.00000000000E+00 -0.00000000000E+00 -0.45593999997E+02  0.45594000000E+02  0.51100000000E-03 0.  1.
    9900012    2    1    2    0    0  0.14508351645E+02 -0.39531242871E+02  0.10507708034E+02  0.47787270069E+02  0.19999995552E+02 0.  0.
        -12    1    1    2    0    0 -0.14508351645E+02  0.39531242871E+02 -0.10507708034E+02  0.43400729931E+02  0.00000000000E+00 0.  1.
         11    1    3    3    0    0 -0.31947363988E+01 -0.13750311806E+01  0.63482204831E+00  0.35355410759E+01  0.51100000000E-03 0. -1.
        -11    1    3    3    0    0  0.46516086637E+01 -0.21053878111E+02  0.37638109991E+01  0.21887656799E+02  0.51100000000E-03 0.  1.
        -12    1    3    3    0    0  0.13051479380E+02 -0.17102333580E+02  0.61090749867E+01  0.22364072194E+02  0.00000000000E+00 0.  1.
</event>
<event>
 7    1  0.1322363E-009  0.4778727E+02  0.7816164E-02  0.1312668E+00
        -11   -1    0    0    0    0  0.00000000000E+00  0.00000000000E+00  0.45593999997E+02  0.45594000000E+02  0.51100000000E-03 0. -1.
         11   -1    0    0    0    0 -0.00000000000E+00 -0.00000000000E+00 -0.45593999997E+02  0.45594000000E+02  0.51100000000E-03 0.  1.
    9900012    2    1    2    0    0 -0.21676433261E+02  0.12701163011E+02  0.35389772462E+02  0.47787270793E+02  0.19999998856E+02 0.  0.
        -12    1    1    2    0    0  0.21676433261E+02 -0.12701163011E+02 -0.35389772462E+02  0.43400729207E+02  0.00000000000E+00 0.  1.
         11    1    3    3    0    0 -0.25921087267E+01 -0.74718852072E+00  0.28577407244E+00  0.27127449969E+01  0.51100000000E-03 0. -1.
        -11    1    3    3    0    0 -0.33257638550E+01  0.22921533786E+01 -0.97399226226E+00  0.41549167883E+01  0.51100000000E-03 0.  1.
         12    1    3    3    0    0 -0.15758560679E+02  0.11156198153E+02  0.36077990652E+02  0.40919609008E+02  0.00000000000E+00 0. -1.
</event>
<event>
 7    1  0.1322363E-009  0.4778727E+02  0.7816164E-02  0.1312668E+00
        -11   -1    0    0    0    0  0.00000000000E+00  0.00000000000E+00  0.45593999997E+02  0.45594000000E+02  0.51100000000E-03 0.  1.
         11   -1    0    0    0    0 -0.00000000000E+00 -0.00000000000E+00 -0.45593999997E+02  0.45594000000E+02  0.51100000000E-03 0. -1.
    9900012    2    1    2    0    0  0.38767099075E+02  0.33516062161E+01 -0.19222435402E+02  0.47787271231E+02  0.20000000852E+02 0.  0.
        -12    1    1    2    0    0 -0.38767099075E+02 -0.33516062161E+01  0.19222435402E+02  0.43400728769E+02  0.00000000000E+00 0.  1.
         11    1    3    3    0    0  0.73967347704E+01 -0.23015863280E+01 -0.63096302238E+01  0.99910169007E+01  0.51100000000E-03 0. -1.
        -11    1    3    3    0    0  0.18242165782E+02  0.97770983888E+01 -0.31763782984E+01  0.20939380236E+02  0.51100000000E-03 0.  1.
        -12    1    3    3    0    0  0.13128198522E+02 -0.41239058446E+01 -0.97364268794E+01  0.16856874094E+02  0.00000000000E+00 0.  1.
</event>
<event>
 7    1  0.1322363E-009  0.4778721E+02  0.7816164E-02  0.1312668E+00
        -11   -1    0    0    0    0  0.00000000000E+00  0.00000000000E+00  0.45593999997E+02  0.45594000000E+02  0.51100000000E-03 0.  1.
         11   -1    0    0    0    0 -0.00000000000E+00 -0.00000000000E+00 -0.45593999997E+02  0.45594000000E+02  0.51100000000E-03 0. -1.
    9900012    2    1    2    0    0 -0.34128628722E+02  0.23324050970E+02  0.13223241321E+02  0.47787207806E+02  0.19999711667E+02 0.  0.
        -12    1    1    2    0    0  0.34128628722E+02 -0.23324050970E+02 -0.13223241321E+02  0.43400792194E+02  0.00000000000E+00 0.  1.
         11    1    3    3    0    0 -0.43630740080E+01  0.10064086872E+02  0.68432939050E+01  0.12928763711E+02  0.51100000000E-03 0. -1.
        -11    1    3    3    0    0 -0.20148155395E+02  0.99751932545E+01  0.92304579297E+01  0.24303374255E+02  0.51100000000E-03 0.  1.
         12    1    3    3    0    0 -0.96173993183E+01  0.32847708432E+01 -0.28505105138E+01  0.10555069840E+02  0.00000000000E+00 0. -1.
</event>
<event>
 7    1  0.1322363E-009  0.4778728E+02  0.7816164E-02  0.1312668E+00
        -11   -1    0    0    0    0  0.00000000000E+00  0.00000000000E+00  0.45593999997E+02  0.45594000000E+02  0.51100000000E-03 0.  1.
         11   -1    0    0    0    0 -0.00000000000E+00 -0.00000000000E+00 -0.45593999997E+02  0.45594000000E+02  0.51100000000E-03 0. -1.
    9900012    2    1    2    0    0 -0.23078363964E+02  0.44433829730E+01 -0.36486543392E+02  0.47787281294E+02  0.20000046731E+02 0.  0.
        -12    1    1    2    0    0  0.23078363964E+02 -0.44433829730E+01  0.36486543392E+02  0.43400718706E+02  0.00000000000E+00 0.  1.
         11    1    3    3    0    0 -0.92571956956E+01  0.32931467607E+01 -0.73017557489E+01  0.12241573633E+02  0.51100000000E-03 0. -1.
        -11    1    3    3    0    0 -0.61255520674E+01  0.51082485518E+00 -0.26752487332E+02  0.27449570286E+02  0.51100000000E-03 0.  1.
        -12    1    3    3    0    0 -0.76956162008E+01  0.63941135714E+00 -0.24323003115E+01  0.80961373753E+01  0.00000000000E+00 0.  1.
</event>
<event>
 7    1  0.1322363E-009  0.4778727E+02  0.7816164E-02  0.1312668E+00
        -11   -1    0    0    0    0  0.00000000000E+00  0.00000000000E+00  0.45593999997E+02  0.45594000000E+02  0.51100000000E-03 0.  1.
         11   -1    0    0    0    0 -0.00000000000E+00 -0.00000000000E+00 -0.45593999997E+02  0.45594000000E+02  0.51100000000E-03 0. -1.
    9900012    2    1    2    0    0 -0.99752278108E+01 -0.33042297559E+02 -0.26312068485E+02  0.47787267911E+02  0.19999985715E+02 0.  0.
        -12    1    1    2    0    0  0.99752278108E+01  0.33042297559E+02  0.26312068485E+02  0.43400732089E+02  0.00000000000E+00 0.  1.
         11    1    3    3    0    0 -0.32002128932E+01 -0.13519294070E+02 -0.11044323575E+02  0.17747950816E+02  0.51100000000E-03 0. -1.
        -11    1    3    3    0    0 -0.18866902833E+01  0.16153863885E+01  0.12408833447E+01  0.27764843139E+01  0.51100000000E-03 0.  1.
        -12    1    3    3    0    0 -0.48883246343E+01 -0.21138389878E+02 -0.16508628255E+02  0.27262832781E+02  0.00000000000E+00 0.  1.
</event>
<event>
 7    1  0.1322363E-009  0.4778727E+02  0.7816164E-02  0.1312668E+00
        -11   -1    0    0    0    0  0.00000000000E+00  0.00000000000E+00  0.45593999997E+02  0.45594000000E+02  0.51100000000E-03 0. -1.
         11   -1    0    0    0    0 -0.00000000000E+00 -0.00000000000E+00 -0.45593999997E+02  0.45594000000E+02  0.51100000000E-03 0.  1.
    9900012    2    1    2    0    0  0.32703581024E+02 -0.27163283733E+02  0.87324326265E+01  0.47787267580E+02  0.19999984206E+02 0.  0.
        -12    1    1    2    0    0 -0.32703581024E+02  0.27163283733E+02 -0.87324326265E+01  0.43400732420E+02  0.00000000000E+00 0.  1.
         11    1    3    3    0    0  0.21985670332E+02 -0.14027341365E+02  0.18718978845E+01  0.26146510430E+02  0.51100000000E-03 0. -1.
        -11    1    3    3    0    0 -0.28189392244E-01  0.16952215774E+01 -0.68980897102E+00  0.18304118432E+01  0.51100000000E-03 0.  1.
         12    1    3    3    0    0  0.10746100084E+02 -0.14831163945E+02  0.75503437130E+01  0.19810345307E+02  0.00000000000E+00 0. -1.
</event>
<event>
 7    1  0.1322363E-009  0.4778727E+02  0.7816164E-02  0.1312668E+00
        -11   -1    0    0    0    0  0.00000000000E+00  0.00000000000E+00  0.45593999997E+02  0.45594000000E+02  0.51100000000E-03 0.  1.
         11   -1    0    0    0    0 -0.00000000000E+00 -0.00000000000E+00 -0.45593999997E+02  0.45594000000E+02  0.51100000000E-03 0. -1.
    9900012    2    1    2    0    0  0.24874679799E+02  0.20049337929E+02 -0.29375119915E+02  0.47787270553E+02  0.19999997760E+02 0.  0.
        -12    1    1    2    0    0 -0.24874679799E+02 -0.20049337929E+02  0.29375119915E+02  0.43400729447E+02  0.00000000000E+00 0.  1.
         11    1    3    3    0    0  0.26725454991E+02  0.16869432524E+02 -0.24076100383E+02  0.39730168739E+02  0.51100000000E-03 0. -1.
        -11    1    3    3    0    0 -0.66452544095E+00  0.24771807382E+01 -0.59891845820E+01  0.65152398796E+01  0.51100000000E-03 0.  1.
        -12    1    3    3    0    0 -0.11862497508E+01  0.70272466719E+00  0.69016504958E+00  0.15418619344E+01  0.00000000000E+00 0.  1.
</event>
<event>
 7    1  0.1322363E-009  0.4778728E+02  0.7816164E-02  0.1312668E+00
        -11   -1    0    0    0    0  0.00000000000E+00  0.00000000000E+00  0.45593999997E+02  0.45594000000E+02  0.51100000000E-03 0.  1.
         11   -1    0    0    0    0 -0.00000000000E+00 -0.00000000000E+00 -0.45593999997E+02  0.45594000000E+02  0.51100000000E-03 0. -1.
    9900012    2    1    2    0    0  0.15643952978E+02 -0.31012909960E+02 -0.26020928324E+02  0.47787279271E+02  0.20000037510E+02 0.  0.
        -12    1    1    2    0    0 -0.15643952978E+02  0.31012909960E+02  0.26020928324E+02  0.43400720729E+02  0.00000000000E+00 0.  1.
         11    1    3    3    0    0  0.43526748204E+01 -0.14259004875E+02 -0.16899936210E+02  0.22536034307E+02  0.51100000000E-03 0. -1.
        -11    1    3    3    0    0  0.17277016265E+01  0.19095388882E+01 -0.10292558603E+01  0.27732038445E+01  0.51100000000E-03 0.  1.
        -12    1    3    3    0    0  0.95635765306E+01 -0.18663443974E+02 -0.80917362534E+01  0.22478041120E+02  0.00000000000E+00 0.  1.
</event>
<event>
 7    1  0.1322363E-009  0.4778727E+02  0.7816164E-02  0.1312668E+00
        -11   -1    0    0    0    0  0.00000000000E+00  0.00000000000E+00  0.45593999997E+02  0.45594000000E+02  0.51100000000E-03 0.  1.
         11   -1    0    0    0    0 -0.00000000000E+00 -0.00000000000E+00 -0.45593999997E+02  0.45594000000E+02  0.51100000000E-03 0. -1.
    9900012    2    1    2    0    0 -0.18576328280E+02 -0.69543910588E+01 -0.38602851733E+02  0.47787266258E+02  0.19999978178E+02 0.  0.
        -12    1    1    2    0    0  0.18576328280E+02  0.69543910588E+01  0.38602851733E+02  0.43400733742E+02  0.00000000000E+00 0.  1.
         11    1    3    3    0    0 -0.66487038606E+01 -0.19659251543E+01 -0.13832784801E+02  0.15473075336E+02  0.51100000000E-03 0. -1.
        -11    1    3    3    0    0  0.34788174527E+01 -0.31671586790E+01 -0.29918036037E+01  0.55752985598E+01  0.51100000000E-03 0.  1.
        -12    1    3    3    0    0 -0.15406441872E+02 -0.18213072255E+01 -0.21778263328E+02  0.26738892362E+02  0.00000000000E+00 0.  1.
</event>
<event>
 7    1  0.1322363E-009  0.4778726E+02  0.7816164E-02  0.1312668E+00
        -11   -1    0    0    0    0  0.00000000000E+00  0.00000000000E+00  0.45593999997E+02  0.45594000000E+02  0.51100000000E-03 0.  1.
         11   -1    0    0    0    0 -0.00000000000E+00 -0.00000000000E+00 -0.45593999997E+02  0.45594000000E+02  0.51100000000E-03 0. -1.
    9900012    2    1    2    0    0 -0.13391462221E+02 -0.19519356727E+02 -0.36377020689E+02  0.47787260586E+02  0.19999952317E+02 0.  0.
        -12    1    1    2    0    0  0.13391462221E+02  0.19519356727E+02  0.36377020689E+02  0.43400739414E+02  0.00000000000E+00 0.  1.
         11    1    3    3    0    0 -0.49040451044E+01 -0.20273167266E+00 -0.92021440301E+01  0.10429295927E+02  0.51100000000E-03 0. -1.
        -11    1    3    3    0    0 -0.15758162838E+00 -0.62464958461E+01 -0.20496169324E+00  0.62518438786E+01  0.51100000000E-03 0.  1.
        -12    1    3    3    0    0 -0.83298354882E+01 -0.13070129208E+02 -0.26969914966E+02  0.31106120781E+02  0.00000000000E+00 0.  1.
</event>
<event>
 7    1  0.1322363E-009  0.4778727E+02  0.7816164E-02  0.1312668E+00
        -11   -1    0    0    0    0  0.00000000000E+00  0.00000000000E+00  0.45593999997E+02  0.45594000000E+02  0.51100000000E-03 0. -1.
         11   -1    0    0    0    0 -0.00000000000E+00 -0.00000000000E+00 -0.45593999997E+02  0.45594000000E+02  0.51100000000E-03 0.  1.
    9900012    2    1    2    0    0 -0.35925281138E+01  0.23408616012E+02  0.36369681390E+02  0.47787270902E+02  0.19999999350E+02 0.  0.
        -12    1    1    2    0    0  0.35925281138E+01 -0.23408616012E+02 -0.36369681390E+02  0.43400729098E+02  0.00000000000E+00 0.  1.
         11    1    3    3    0    0 -0.26621855807E+01  0.56280847109E+01  0.18961246492E+02  0.19957240249E+02  0.51100000000E-03 0. -1.
        -11    1    3    3    0    0  0.28368626337E+01  0.15263880656E+02  0.17373204581E+02  0.23299400850E+02  0.51100000000E-03 0.  1.
        -12    1    3    3    0    0 -0.37672051667E+01  0.25166506447E+01  0.35230317135E-01  0.45306298029E+01  0.00000000000E+00 0.  1.
</event>
<event>
 7    1  0.1322363E-009  0.4778727E+02  0.7816164E-02  0.1312668E+00
        -11   -1    0    0    0    0  0.00000000000E+00  0.00000000000E+00  0.45593999997E+02  0.45594000000E+02  0.51100000000E-03 0.  1.
         11   -1    0    0    0    0 -0.00000000000E+00 -0.00000000000E+00 -0.45593999997E+02  0.45594000000E+02  0.51100000000E-03 0. -1.
    9900012    2    1    2    0    0 -0.38468406096E+02 -0.11183649009E+02 -0.16695245152E+02  0.47787268631E+02  0.19999988995E+02 0.  0.
        -12    1    1    2    0    0  0.38468406096E+02  0.11183649009E+02  0.16695245152E+02  0.43400731369E+02  0.00000000000E+00 0.  1.
         11    1    3    3    0    0 -0.88408183308E+01  0.34288466192E+01 -0.47642961180E+01  0.10612048608E+02  0.51100000000E-03 0.  1.
        -11    1    3    3    0    0 -0.20645082548E+02 -0.89200637229E+01 -0.13788161913E+02  0.26379923795E+02  0.51100000000E-03 0. -1.
        -12    1    3    3    0    0 -0.89825052171E+01 -0.56924319056E+01  0.18572128790E+01  0.10795296228E+02  0.00000000000E+00 0.  1.
</event>
<event>
 7    1  0.1322363E-009  0.4778724E+02  0.7816164E-02  0.1312668E+00
        -11   -1    0    0    0    0  0.00000000000E+00  0.00000000000E+00  0.45593999997E+02  0.45594000000E+02  0.51100000000E-03 0.  1.
         11   -1    0    0    0    0 -0.00000000000E+00 -0.00000000000E+00 -0.45593999997E+02  0.45594000000E+02  0.51100000000E-03 0. -1.
    9900012    2    1    2    0    0 -0.94223405568E+01  0.24719726654E+01 -0.42293439581E+02  0.47787237541E+02  0.19999847243E+02 0.  0.
        -12    1    1    2    0    0  0.94223405568E+01 -0.24719726654E+01  0.42293439581E+02  0.43400762459E+02  0.00000000000E+00 0.  1.
         11    1    3    3    0    0 -0.65829132795E+01 -0.46218684047E-01 -0.16451400694E+02  0.17719635111E+02  0.51100000000E-03 0. -1.
        -11    1    3    3    0    0  0.49557672654E+01  0.41449739768E+01 -0.16905275484E+02  0.18097756156E+02  0.51100000000E-03 0.  1.
        -12    1    3    3    0    0 -0.77951945428E+01 -0.16267826274E+01 -0.89367634034E+01  0.11969846273E+02  0.00000000000E+00 0.  1.
</event>
<event>
 7    1  0.1322363E-009  0.4778728E+02  0.7816164E-02  0.1312668E+00
        -11   -1    0    0    0    0  0.00000000000E+00  0.00000000000E+00  0.45593999997E+02  0.45594000000E+02  0.51100000000E-03 0.  1.
         11   -1    0    0    0    0 -0.00000000000E+00 -0.00000000000E+00 -0.45593999997E+02  0.45594000000E+02  0.51100000000E-03 0. -1.
    9900012    2    1    2    0    0 -0.36001367263E+02 -0.92006439643E+01 -0.22424818258E+02  0.47787276872E+02  0.20000026568E+02 0.  0.
        -12    1    1    2    0    0  0.36001367263E+02  0.92006439643E+01  0.22424818258E+02  0.43400723128E+02  0.00000000000E+00 0.  1.
         11    1    3    3    0    0 -0.12217845799E+02 -0.13349875807E+01 -0.14906668356E+02  0.19320111530E+02  0.51100000000E-03 0. -1.
        -11    1    3    3    0    0 -0.13678348881E+02 -0.10126614590E+02 -0.57380369081E+01  0.17960251084E+02  0.51100000000E-03 0.  1.
        -12    1    3    3    0    0 -0.10105172583E+02  0.22609582063E+01 -0.17801129938E+01  0.10506914258E+02  0.00000000000E+00 0.  1.
</event>
<event>
 7    1  0.1322363E-009  0.4778727E+02  0.7816164E-02  0.1312668E+00
        -11   -1    0    0    0    0  0.00000000000E+00  0.00000000000E+00  0.45593999997E+02  0.45594000000E+02  0.51100000000E-03 0. -1.
         11   -1    0    0    0    0 -0.00000000000E+00 -0.00000000000E+00 -0.45593999997E+02  0.45594000000E+02  0.51100000000E-03 0.  1.
    9900012    2    1    2    0    0 -0.14507023563E+02 -0.26664092733E+02  0.31019281011E+02  0.47787269956E+02  0.19999995035E+02 0.  0.
        -12    1    1    2    0    0  0.14507023563E+02  0.26664092733E+02 -0.31019281011E+02  0.43400730044E+02  0.00000000000E+00 0.  1.
         11    1    3    3    0    0 -0.31656172613E+01 -0.11381042473E+02  0.44729831262E+01  0.12631581007E+02  0.51100000000E-03 0. -1.
        -11    1    3    3    0    0 -0.72507857003E+00  0.20582028317E+01  0.53786132803E+01  0.58044309720E+01  0.51100000000E-03 0.  1.
         12    1    3    3    0    0 -0.10616327732E+02 -0.17341253091E+02  0.21167684605E+02  0.29351257977E+02  0.00000000000E+00 0. -1.
</event>
<event>
 7    1  0.1322363E-009  0.4778727E+02  0.7816164E-02  0.1312668E+00
        -11   -1    0    0    0    0  0.00000000000E+00  0.00000000000E+00  0.45593999997E+02  0.45594000000E+02  0.51100000000E-03 0.  1.
         11   -1    0    0    0    0 -0.00000000000E+00 -0.00000000000E+00 -0.45593999997E+02  0.45594000000E+02  0.51100000000E-03 0. -1.
    9900012    2    1    2    0    0  0.41302295698E+02 -0.12897484078E+02 -0.33762258459E+01  0.47787266983E+02  0.19999981482E+02 0.  0.
        -12    1    1    2    0    0 -0.41302295698E+02  0.12897484078E+02  0.33762258459E+01  0.43400733017E+02  0.00000000000E+00 0.  1.
         11    1    3    3    0    0  0.19674884174E+02 -0.22825240826E+01 -0.49385128739E+01  0.20413228385E+02  0.51100000000E-03 0. -1.
        -11    1    3    3    0    0  0.17234358283E+02 -0.13319637735E+02 -0.57695424713E+00  0.21789188404E+02  0.51100000000E-03 0.  1.
         12    1    3    3    0    0  0.43930532409E+01  0.27046777399E+01  0.21392412752E+01  0.55848501938E+01  0.00000000000E+00 0. -1.
</event>
<event>
 7    1  0.1322363E-009  0.4778726E+02  0.7816164E-02  0.1312668E+00
        -11   -1    0    0    0    0  0.00000000000E+00  0.00000000000E+00  0.45593999997E+02  0.45594000000E+02  0.51100000000E-03 0.  1.
         11   -1    0    0    0    0 -0.00000000000E+00 -0.00000000000E+00 -0.45593999997E+02  0.45594000000E+02  0.51100000000E-03 0. -1.
    9900012    2    1    2    0    0  0.27224675996E+02  0.29131613814E+02 -0.17140309425E+02  0.47787261369E+02  0.19999955887E+02 0.  0.
        -12    1    1    2    0    0 -0.27224675996E+02 -0.29131613814E+02  0.17140309425E+02  0.43400738631E+02  0.00000000000E+00 0.  1.
         11    1    3    3    0    0  0.37489109037E+00  0.71168121565E+00 -0.29905346005E+01  0.30968259460E+01  0.51100000000E-03 0. -1.
        -11    1    3    3    0    0  0.28620446105E+02  0.24691198002E+02 -0.14636403392E+02  0.40534053566E+02  0.51100000000E-03 0.  1.
        -12    1    3    3    0    0 -0.17706611998E+01  0.37287345968E+01  0.48662856706E+00  0.41563818569E+01  0.00000000000E+00 0.  1.
</event>
<event>
 7    1  0.1322363E-009  0.4778727E+02  0.7816164E-02  0.1312668E+00
        -11   -1    0    0    0    0  0.00000000000E+00  0.00000000000E+00  0.45593999997E+02  0.45594000000E+02  0.51100000000E-03 0.  1.
         11   -1    0    0    0    0 -0.00000000000E+00 -0.00000000000E+00 -0.45593999997E+02  0.45594000000E+02  0.51100000000E-03 0. -1.
    9900012    2    1    2    0    0 -0.14109140486E+02 -0.22664850230E+02 -0.34217831708E+02  0.47787270882E+02  0.19999999260E+02 0.  0.
        -12    1    1    2    0    0  0.14109140486E+02  0.22664850230E+02  0.34217831708E+02  0.43400729118E+02  0.00000000000E+00 0.  1.
         11    1    3    3    0    0 -0.18946102698E+01 -0.12511524969E+02 -0.22743042266E+02  0.26026405378E+02  0.51100000000E-03 0. -1.
        -11    1    3    3    0    0 -0.91963602516E-01 -0.53229744023E+01 -0.44622715825E+01  0.69465373912E+01  0.51100000000E-03 0.  1.
        -12    1    3    3    0    0 -0.12122566613E+02 -0.48303508589E+01 -0.70125178588E+01  0.14814328113E+02  0.00000000000E+00 0.  1.
</event>
<event>
 7    1  0.1322363E-009  0.4778727E+02  0.7816164E-02  0.1312668E+00
        -11   -1    0    0    0    0  0.00000000000E+00  0.00000000000E+00  0.45593999997E+02  0.45594000000E+02  0.51100000000E-03 0.  1.
         11   -1    0    0    0    0 -0.00000000000E+00 -0.00000000000E+00 -0.45593999997E+02  0.45594000000E+02  0.51100000000E-03 0. -1.
    9900012    2    1    2    0    0  0.28768083080E+01  0.43023453269E+02 -0.49325376117E+01  0.47787268618E+02  0.19999988936E+02 0.  0.
        -12    1    1    2    0    0 -0.28768083080E+01 -0.43023453269E+02  0.49325376117E+01  0.43400731382E+02  0.00000000000E+00 0.  1.
         11    1    3    3    0    0  0.54510009295E+01  0.23353097120E+02 -0.28675076567E+01  0.24151669853E+02  0.51100000000E-03 0. -1.
        -11    1    3    3    0    0  0.22580591921E-01 -0.11284560126E+01  0.19889276061E+01  0.22868660081E+01  0.51100000000E-03 0.  1.
         12    1    3    3    0    0 -0.25967732134E+01  0.20798812161E+02 -0.40539575610E+01  0.21348732757E+02  0.00000000000E+00 0. -1.
</event>
<event>
 7    1  0.1322363E-009  0.4778727E+02  0.7816164E-02  0.1312668E+00
        -11   -1    0    0    0    0  0.00000000000E+00  0.00000000000E+00  0.45593999997E+02  0.45594000000E+02  0.51100000000E-03 0.  1.
         11   -1    0    0    0    0 -0.00000000000E+00 -0.00000000000E+00 -0.45593999997E+02  0.45594000000E+02  0.51100000000E-03 0. -1.
    9900012    2    1    2    0    0 -0.26324151366E+01 -0.10968989243E+01 -0.43306932077E+02  0.47787272326E+02  0.20000005844E+02 0.  0.
        -12    1    1    2    0    0  0.26324151366E+01  0.10968989243E+01  0.43306932077E+02  0.43400727674E+02  0.00000000000E+00 0.  1.
         11    1    3    3    0    0 -0.22952398542E+01 -0.62099682074E+01 -0.26567613104E+02  0.27380100391E+02  0.51100000000E-03 0. -1.
        -11    1    3    3    0    0 -0.39650700883E+01 -0.13262303733E+01 -0.73729152005E+01  0.84758802860E+01  0.51100000000E-03 0.  1.
        -12    1    3    3    0    0  0.36278948059E+01  0.64392996564E+01 -0.93664037720E+01  0.11931291649E+02  0.00000000000E+00 0.  1.
</event>
<event>
 7    1  0.1322363E-009  0.4778728E+02  0.7816164E-02  0.1312668E+00
        -11   -1    0    0    0    0  0.00000000000E+00  0.00000000000E+00  0.45593999997E+02  0.45594000000E+02  0.51100000000E-03 0. -1.
         11   -1    0    0    0    0 -0.00000000000E+00 -0.00000000000E+00 -0.45593999997E+02  0.45594000000E+02  0.51100000000E-03 0.  1.
    9900012    2    1    2    0    0  0.33985044787E+02 -0.19245085995E+02 -0.18927918362E+02  0.47787277683E+02  0.20000030266E+02 0.  0.
        -12    1    1    2    0    0 -0.33985044787E+02  0.19245085995E+02  0.18927918362E+02  0.43400722317E+02  0.00000000000E+00 0.  1.
         11    1    3    3    0    0  0.13143372986E+02 -0.17417632335E+02 -0.96850398702E+01  0.23873042687E+02  0.51100000000E-03 0. -1.
        -11    1    3    3    0    0  0.11559434227E+02 -0.12648659606E+01 -0.13304737580E+01  0.11704296913E+02  0.51100000000E-03 0.  1.
        -12    1    3    3    0    0  0.92822375741E+01 -0.56258769971E+00 -0.79124047336E+01  0.12209938082E+02  0.00000000000E+00 0.  1.
</event>
<event>
 7    1  0.1322363E-009  0.4778727E+02  0.7816164E-02  0.1312668E+00
        -11   -1    0    0    0    0  0.00000000000E+00  0.00000000000E+00  0.45593999997E+02  0.45594000000E+02  0.51100000000E-03 0.  1.
         11   -1    0    0    0    0 -0.00000000000E+00 -0.00000000000E+00 -0.45593999997E+02  0.45594000000E+02  0.51100000000E-03 0. -1.
    9900012    2    1    2    0    0 -0.42675453007E+02  0.77999713707E+01 -0.12606910780E+01  0.47787272072E+02  0.20000004683E+02 0.  0.
        -12    1    1    2    0    0  0.42675453007E+02 -0.77999713707E+01  0.12606910780E+01  0.43400727928E+02  0.00000000000E+00 0.  1.
         11    1    3    3    0    0 -0.27385184917E+02  0.34898248505E+01  0.17293066858E+01  0.27660761601E+02  0.51100000000E-03 0. -1.
        -11    1    3    3    0    0 -0.11536206399E+02  0.84418600745E+01 -0.16895948783E+01  0.14394575044E+02  0.51100000000E-03 0.  1.
        -12    1    3    3    0    0 -0.37540616906E+01 -0.41317135543E+01 -0.13004028856E+01  0.57319354268E+01  0.00000000000E+00 0.  1.
</event>
<event>
 7    1  0.1322363E-009  0.4778727E+02  0.7816164E-02  0.1312668E+00
        -11   -1    0    0    0    0  0.00000000000E+00  0.00000000000E+00  0.45593999997E+02  0.45594000000E+02  0.51100000000E-03 0. -1.
         11   -1    0    0    0    0 -0.00000000000E+00 -0.00000000000E+00 -0.45593999997E+02  0.45594000000E+02  0.51100000000E-03 0.  1.
    9900012    2    1    2    0    0  0.17937134903E+02 -0.34651455559E+02  0.19004198437E+02  0.47787265684E+02  0.19999975561E+02 0.  0.
        -12    1    1    2    0    0 -0.17937134903E+02  0.34651455559E+02 -0.19004198437E+02  0.43400734316E+02  0.00000000000E+00 0.  1.
         11    1    3    3    0    0  0.11259028425E+02 -0.28545044264E+02  0.13636404387E+02  0.33578814719E+02  0.51100000000E-03 0. -1.
        -11    1    3    3    0    0  0.66831871172E+01 -0.40930053629E+01 -0.64894894227E+00  0.78637661419E+01  0.51100000000E-03 0.  1.
        -12    1    3    3    0    0 -0.50806394497E-02 -0.20134059324E+01  0.60167429930E+01  0.63446848231E+01  0.00000000000E+00 0.  1.
</event>
<event>
 7    1  0.1322363E-009  0.4778727E+02  0.7816164E-02  0.1312668E+00
        -11   -1    0    0    0    0  0.00000000000E+00  0.00000000000E+00  0.45593999997E+02  0.45594000000E+02  0.51100000000E-03 0.  1.
         11   -1    0    0    0    0 -0.00000000000E+00 -0.00000000000E+00 -0.45593999997E+02  0.45594000000E+02  0.51100000000E-03 0. -1.
    9900012    2    1    2    0    0 -0.41664704176E+02 -0.12151229413E+02 -0.15228457476E+00  0.47787272576E+02  0.20000006982E+02 0.  0.
        -12    1    1    2    0    0  0.41664704176E+02  0.12151229413E+02  0.15228457476E+00  0.43400727424E+02  0.00000000000E+00 0.  1.
         11    1    3    3    0    0 -0.68224534032E+01  0.10700989507E+01  0.61063832105E+01  0.92183999901E+01  0.51100000000E-03 0.  1.
        -11    1    3    3    0    0 -0.17680553488E+02 -0.79049295029E+01  0.49913663951E+00  0.19373668205E+02  0.51100000000E-03 0. -1.
        -12    1    3    3    0    0 -0.17161697285E+02 -0.53163988608E+01 -0.67578044248E+01  0.19195204380E+02  0.00000000000E+00 0.  1.
</event>
<event>
 7    1  0.1322363E-009  0.4778727E+02  0.7816164E-02  0.1312668E+00
        -11   -1    0    0    0    0  0.00000000000E+00  0.00000000000E+00  0.45593999997E+02  0.45594000000E+02  0.51100000000E-03 0.  1.
         11   -1    0    0    0    0 -0.00000000000E+00 -0.00000000000E+00 -0.45593999997E+02  0.45594000000E+02  0.51100000000E-03 0. -1.
    9900012    2    1    2    0    0 -0.25427840160E+02  0.31557558445E+02  0.15529602007E+02  0.47787273178E+02  0.20000009727E+02 0.  0.
        -12    1    1    2    0    0  0.25427840160E+02 -0.31557558445E+02 -0.15529602007E+02  0.43400726822E+02  0.00000000000E+00 0.  1.
         11    1    3    3    0    0 -0.14492400127E+02  0.18862359786E+02  0.43153026096E+01  0.24175196276E+02  0.51100000000E-03 0. -1.
        -11    1    3    3    0    0 -0.20714881729E+01 -0.10858125330E+01 -0.15805503778E+01  0.28227985875E+01  0.51100000000E-03 0.  1.
         12    1    3    3    0    0 -0.88639518605E+01  0.13781011192E+02  0.12794849775E+02  0.20789278314E+02  0.00000000000E+00 0. -1.
</event>
<event>
 7    1  0.1322363E-009  0.4778727E+02  0.7816164E-02  0.1312668E+00
        -11   -1    0    0    0    0  0.00000000000E+00  0.00000000000E+00  0.45593999997E+02  0.45594000000E+02  0.51100000000E-03 0. -1.
         11   -1    0    0    0    0 -0.00000000000E+00 -0.00000000000E+00 -0.45593999997E+02  0.45594000000E+02  0.51100000000E-03 0.  1.
    9900012    2    1    2    0    0 -0.32984262383E+02 -0.26045076987E+02 -0.10831223611E+02  0.47787274141E+02  0.20000014119E+02 0.  0.
        -12    1    1    2    0    0  0.32984262383E+02  0.26045076987E+02  0.10831223611E+02  0.43400725859E+02  0.00000000000E+00 0.  1.
         11    1    3    3    0    0 -0.44792551117E+01  0.90455480446E+00  0.33051085693E+01  0.56396532399E+01  0.51100000000E-03 0. -1.
        -11    1    3    3    0    0 -0.16541282427E+02 -0.11923449621E+02 -0.57236312300E+01  0.21178825036E+02  0.51100000000E-03 0.  1.
        -12    1    3    3    0    0 -0.11963724845E+02 -0.15026182170E+02 -0.84127009499E+01  0.20968795865E+02  0.00000000000E+00 0.  1.
</event>
<event>
 7    1  0.1322363E-009  0.4778727E+02  0.7816164E-02  0.1312668E+00
        -11   -1    0    0    0    0  0.00000000000E+00  0.00000000000E+00  0.45593999997E+02  0.45594000000E+02  0.51100000000E-03 0.  1.
         11   -1    0    0    0    0 -0.00000000000E+00 -0.00000000000E+00 -0.45593999997E+02  0.45594000000E+02  0.51100000000E-03 0. -1.
    9900012    2    1    2    0    0 -0.30229511094E+02 -0.19025272143E+02 -0.24654383651E+02  0.47787274726E+02  0.20000016784E+02 0.  0.
        -12    1    1    2    0    0  0.30229511094E+02  0.19025272143E+02  0.24654383651E+02  0.43400725274E+02  0.00000000000E+00 0.  1.
         11    1    3    3    0    0 -0.18063192832E+02 -0.16469135655E+02 -0.24013178086E+02  0.34265785947E+02  0.51100000000E-03 0. -1.
        -11    1    3    3    0    0 -0.24029544215E+00 -0.49728662059E-01  0.11749912764E+01  0.12003414515E+01  0.51100000000E-03 0.  1.
         12    1    3    3    0    0 -0.11926022820E+02 -0.25064078262E+01 -0.18161968417E+01  0.12321147327E+02  0.00000000000E+00 0. -1.
</event>
<event>
 7    1  0.1322363E-009  0.4778727E+02  0.7816164E-02  0.1312668E+00
        -11   -1    0    0    0    0  0.00000000000E+00  0.00000000000E+00  0.45593999997E+02  0.45594000000E+02  0.51100000000E-03 0.  1.
         11   -1    0    0    0    0 -0.00000000000E+00 -0.00000000000E+00 -0.45593999997E+02  0.45594000000E+02  0.51100000000E-03 0. -1.
    9900012    2    1    2    0    0 -0.24019913014E+02  0.16936927698E+02 -0.31934420944E+02  0.47787274407E+02  0.20000015330E+02 0.  0.
        -12    1    1    2    0    0  0.24019913014E+02 -0.16936927698E+02  0.31934420944E+02  0.43400725593E+02  0.00000000000E+00 0.  1.
         11    1    3    3    0    0 -0.66618432627E+01  0.76670975020E+01 -0.22356839240E+02  0.24555911729E+02  0.51100000000E-03 0. -1.
        -11    1    3    3    0    0 -0.10980137475E+02  0.85523950406E+01 -0.94297276646E+01  0.16811503323E+02  0.51100000000E-03 0.  1.
         12    1    3    3    0    0 -0.63779322759E+01  0.71743515524E+00 -0.14785403907E+00  0.64198593547E+01  0.00000000000E+00 0. -1.
</event>
<event>
 7    1  0.1322363E-009  0.4778727E+02  0.7816164E-02  0.1312668E+00
        -11   -1    0    0    0    0  0.00000000000E+00  0.00000000000E+00  0.45593999997E+02  0.45594000000E+02  0.51100000000E-03 0.  1.
         11   -1    0    0    0    0 -0.00000000000E+00 -0.00000000000E+00 -0.45593999997E+02  0.45594000000E+02  0.51100000000E-03 0. -1.
    9900012    2    1    2    0    0  0.32168718330E+02  0.29066527170E+02 -0.19833952602E+01  0.47787270773E+02  0.19999998761E+02 0.  0.
        -12    1    1    2    0    0 -0.32168718330E+02 -0.29066527170E+02  0.19833952602E+01  0.43400729227E+02  0.00000000000E+00 0.  1.
         11    1    3    3    0    0  0.12750705406E+02  0.33144931030E+01 -0.37723963110E+01  0.13703916486E+02  0.51100000000E-03 0. -1.
        -11    1    3    3    0    0  0.64327024001E+01  0.85752031607E+01  0.57876905801E+01  0.12182410760E+02  0.51100000000E-03 0.  1.
        -12    1    3    3    0    0  0.12985310524E+02  0.17176830906E+02 -0.39986895293E+01  0.21900943526E+02  0.00000000000E+00 0.  1.
</event>
<event>
 7    1  0.1322363E-009  0.4778727E+02  0.7816164E-02  0.1312668E+00
        -11   -1    0    0    0    0  0.00000000000E+00  0.00000000000E+00  0.45593999997E+02  0.45594000000E+02  0.51100000000E-03 0.  1.
         11   -1    0    0    0    0 -0.00000000000E+00 -0.00000000000E+00 -0.45593999997E+02  0.45594000000E+02  0.51100000000E-03 0. -1.
    9900012    2    1    2    0    0 -0.94787288504E+01 -0.81266287058E+01 -0.41566034180E+02  0.47787267377E+02  0.19999983280E+02 0.  0.
        -12    1    1    2    0    0  0.94787288504E+01  0.81266287058E+01  0.41566034180E+02  0.43400732623E+02  0.00000000000E+00 0.  1.
         11    1    3    3    0    0  0.23084203943E-01 -0.45710794136E+00 -0.19158129753E+02  0.19163596125E+02  0.51100000000E-03 0. -1.
        -11    1    3    3    0    0 -0.10314403770E+02 -0.99456452839E+01 -0.21873178129E+02  0.26148397790E+02  0.51100000000E-03 0.  1.
         12    1    3    3    0    0  0.81259071612E+00  0.22761245194E+01 -0.53472629792E+00  0.24752734624E+01  0.00000000000E+00 0. -1.
</event>
<event>
 7    1  0.1322363E-009  0.4778727E+02  0.7816164E-02  0.1312668E+00
        -11   -1    0    0    0    0  0.00000000000E+00  0.00000000000E+00  0.45593999997E+02  0.45594000000E+02  0.51100000000E-03 0. -1.
         11   -1    0    0    0    0 -0.00000000000E+00 -0.00000000000E+00 -0.45593999997E+02  0.45594000000E+02  0.51100000000E-03 0.  1.
    9900012    2    1    2    0    0  0.12598490247E+02  0.17336372757E+02  0.37740581593E+02  0.47787271022E+02  0.19999999897E+02 0.  0.
        -12    1    1    2    0    0 -0.12598490247E+02 -0.17336372757E+02 -0.37740581593E+02  0.43400728978E+02  0.00000000000E+00 0.  1.
         11    1    3    3    0    0 -0.20414154417E+01 -0.16619302058E+01  0.59580521004E+01  0.65136605766E+01  0.51100000000E-03 0. -1.
        -11    1    3    3    0    0  0.87920441779E+01  0.67738643835E+01  0.21731852032E+02  0.24402021894E+02  0.51100000000E-03 0.  1.
        -12    1    3    3    0    0  0.58478615113E+01  0.12224438579E+02  0.10050677460E+02  0.16871588551E+02  0.00000000000E+00 0.  1.
</event>
<event>
 7    1  0.1322363E-009  0.4778727E+02  0.7816164E-02  0.1312668E+00
        -11   -1    0    0    0    0  0.00000000000E+00  0.00000000000E+00  0.45593999997E+02  0.45594000000E+02  0.51100000000E-03 0.  1.
         11   -1    0    0    0    0 -0.00000000000E+00 -0.00000000000E+00 -0.45593999997E+02  0.45594000000E+02  0.51100000000E-03 0. -1.
    9900012    2    1    2    0    0  0.10430082357E+02 -0.41233954412E+02  0.86369985164E+01  0.47787270078E+02  0.19999995593E+02 0.  0.
        -12    1    1    2    0    0 -0.10430082357E+02  0.41233954412E+02 -0.86369985164E+01  0.43400729922E+02  0.00000000000E+00 0.  1.
         11    1    3    3    0    0  0.15827536457E+01 -0.30058339174E+02  0.71432171575E+01  0.30935972825E+02  0.51100000000E-03 0. -1.
        -11    1    3    3    0    0  0.23859101365E-01 -0.22677068397E+00  0.27261956868E+01  0.27357151503E+01  0.51100000000E-03 0.  1.
         12    1    3    3    0    0  0.88234696099E+01 -0.10948844553E+02 -0.12324143279E+01  0.14115582102E+02  0.00000000000E+00 0. -1.
</event>
<event>
 7    1  0.1322363E-009  0.4778728E+02  0.7816164E-02  0.1312668E+00
        -11   -1    0    0    0    0  0.00000000000E+00  0.00000000000E+00  0.45593999997E+02  0.45594000000E+02  0.51100000000E-03 0. -1.
         11   -1    0    0    0    0 -0.00000000000E+00 -0.00000000000E+00 -0.45593999997E+02  0.45594000000E+02  0.51100000000E-03 0.  1.
    9900012    2    1    2    0    0 -0.37979690059E+01  0.22013049485E+02  0.37210535055E+02  0.47787276097E+02  0.20000023037E+02 0.  0.
        -12    1    1    2    0    0  0.37979690059E+01 -0.22013049485E+02 -0.37210535055E+02  0.43400723903E+02  0.00000000000E+00 0.  1.
         11    1    3    3    0    0 -0.28615060024E+01 -0.86618852193E+00  0.11492046276E+02  0.11874579026E+02  0.51100000000E-03 0. -1.
        -11    1    3    3    0    0 -0.45233722513E+01  0.83181028800E+01  0.62800068372E+01  0.11361787631E+02  0.51100000000E-03 0.  1.
         12    1    3    3    0    0  0.35869092478E+01  0.14561135127E+02  0.19438481942E+02  0.24550909440E+02  0.00000000000E+00 0. -1.
</event>
<event>
 7    1  0.1322363E-009  0.4778727E+02  0.7816164E-02  0.1312668E+00
        -11   -1    0    0    0    0  0.00000000000E+00  0.00000000000E+00  0.45593999997E+02  0.45594000000E+02  0.51100000000E-03 0.  1.
         11   -1    0    0    0    0 -0.00000000000E+00 -0.00000000000E+00 -0.45593999997E+02  0.45594000000E+02  0.51100000000E-03 0. -1.
    9900012    2    1    2    0    0 -0.15459613803E+02  0.28670222115E+02 -0.28681731121E+02  0.47787274255E+02  0.20000014639E+02 0.  0.
        -12    1    1    2    0    0  0.15459613803E+02 -0.28670222115E+02  0.28681731121E+02  0.43400725745E+02  0.00000000000E+00 0.  1.
         11    1    3    3    0    0 -0.88799496627E+01  0.36313846483E+01 -0.11541693330E+02  0.15008369187E+02  0.51100000000E-03 0. -1.
        -11    1    3    3    0    0  0.18110868406E+01  0.53482958753E+01 -0.50177137281E+00  0.56688692952E+01  0.51100000000E-03 0.  1.
        -12    1    3    3    0    0 -0.83907509808E+01  0.19690541591E+02 -0.16638266418E+02  0.27110035773E+02  0.00000000000E+00 0.  1.
</event>
<event>
 7    1  0.1322363E-009  0.4778727E+02  0.7816164E-02  0.1312668E+00
        -11   -1    0    0    0    0  0.00000000000E+00  0.00000000000E+00  0.45593999997E+02  0.45594000000E+02  0.51100000000E-03 0. -1.
         11   -1    0    0    0    0 -0.00000000000E+00 -0.00000000000E+00 -0.45593999997E+02  0.45594000000E+02  0.51100000000E-03 0.  1.
    9900012    2    1    2    0    0  0.32003343112E+02 -0.28075043226E+02 -0.84380835924E+01  0.47787271006E+02  0.19999999824E+02 0.  0.
        -12    1    1    2    0    0 -0.32003343112E+02  0.28075043226E+02  0.84380835924E+01  0.43400728994E+02  0.00000000000E+00 0.  1.
         11    1    3    3    0    0  0.12206647649E+01 -0.36227892751E+00  0.36204878195E+01  0.38378640937E+01  0.51100000000E-03 0. -1.
        -11    1    3    3    0    0  0.91374727947E+01 -0.59727574313E+01 -0.66954245024E+01  0.12806090345E+02  0.51100000000E-03 0.  1.
         12    1    3    3    0    0  0.21645205553E+02 -0.21740006867E+02 -0.53631469094E+01  0.31143316567E+02  0.00000000000E+00 0. -1.
</event>
<event>
 7    1  0.1322363E-009  0.4778727E+02  0.7816164E-02  0.1312668E+00
        -11   -1    0    0    0    0  0.00000000000E+00  0.00000000000E+00  0.45593999997E+02  0.45594000000E+02  0.51100000000E-03 0. -1.
         11   -1    0    0    0    0 -0.00000000000E+00 -0.00000000000E+00 -0.45593999997E+02  0.45594000000E+02  0.51100000000E-03 0.  1.
    9900012    2    1    2    0    0  0.39246863824E+01  0.14100121609E+02  0.40858373881E+02  0.47787270643E+02  0.19999998168E+02 0.  0.
        -12    1    1    2    0    0 -0.39246863824E+01 -0.14100121609E+02 -0.40858373881E+02  0.43400729357E+02  0.00000000000E+00 0.  1.
         11    1    3    3    0    0  0.28835353799E+01 -0.16693361512E+01  0.16122218470E+02  0.16462909467E+02  0.51100000000E-03 0. -1.
        -11    1    3    3    0    0  0.58755992403E+01  0.85201615116E+01  0.15390873799E+02  0.18547097217E+02  0.51100000000E-03 0.  1.
        -12    1    3    3    0    0 -0.48344482379E+01  0.72492962486E+01  0.93452816112E+01  0.12777263958E+02  0.00000000000E+00 0.  1.
</event>
<event>
 7    1  0.1322363E-009  0.4778734E+02  0.7816164E-02  0.1312667E+00
        -11   -1    0    0    0    0  0.00000000000E+00  0.00000000000E+00  0.45593999997E+02  0.45594000000E+02  0.51100000000E-03 0.  1.
         11   -1    0    0    0    0 -0.00000000000E+00 -0.00000000000E+00 -0.45593999997E+02  0.45594000000E+02  0.51100000000E-03 0. -1.
    9900012    2    1    2    0    0 -0.23337215657E+02  0.33399141087E+02 -0.14949560954E+02  0.47787336034E+02  0.20000296312E+02 0.  0.
        -12    1    1    2    0    0  0.23337215657E+02 -0.33399141087E+02  0.14949560954E+02  0.43400663966E+02  0.00000000000E+00 0.  1.
         11    1    3    3    0    0 -0.11000952769E+02  0.22248246633E+02 -0.32906413977E+01  0.25036648360E+02  0.51100000000E-03 0. -1.
        -11    1    3    3    0    0 -0.82534863946E+00  0.62511753992E+01 -0.69484559329E+01  0.93829331427E+01  0.51100000000E-03 0.  1.
         12    1    3    3    0    0 -0.11510914248E+02  0.48997190548E+01 -0.47104636236E+01  0.13367754531E+02  0.00000000000E+00 0. -1.
</event>
<event>
 7    1  0.1322363E-009  0.4778733E+02  0.7816164E-02  0.1312668E+00
        -11   -1    0    0    0    0  0.00000000000E+00  0.00000000000E+00  0.45593999997E+02  0.45594000000E+02  0.51100000000E-03 0.  1.
         11   -1    0    0    0    0 -0.00000000000E+00 -0.00000000000E+00 -0.45593999997E+02  0.45594000000E+02  0.51100000000E-03 0. -1.
    9900012    2    1    2    0    0 -0.14432358646E+02  0.34010854425E+02 -0.22772506253E+02  0.47787329085E+02  0.20000264630E+02 0.  0.
        -12    1    1    2    0    0  0.14432358646E+02 -0.34010854425E+02  0.22772506253E+02  0.43400670915E+02  0.00000000000E+00 0.  1.
         11    1    3    3    0    0 -0.15768162878E+01  0.14093367890E+02 -0.99245772821E+01  0.17309147945E+02  0.51100000000E-03 0. -1.
        -11    1    3    3    0    0 -0.52080442223E+01  0.18562916783E+02 -0.61915309989E+01  0.20249460745E+02  0.51100000000E-03 0.  1.
         12    1    3    3    0    0 -0.76474981363E+01  0.13545697519E+01 -0.66563979718E+01  0.10228720395E+02  0.00000000000E+00 0. -1.
</event>
<event>
 7    1  0.1322363E-009  0.4778725E+02  0.7816164E-02  0.1312668E+00
        -11   -1    0    0    0    0  0.00000000000E+00  0.00000000000E+00  0.45593999997E+02  0.45594000000E+02  0.51100000000E-03 0.  1.
         11   -1    0    0    0    0 -0.00000000000E+00 -0.00000000000E+00 -0.45593999997E+02  0.45594000000E+02  0.51100000000E-03 0. -1.
    9900012    2    1    2    0    0  0.11961150476E+02 -0.30081495092E+02 -0.28907775612E+02  0.47787251636E+02  0.19999911510E+02 0.  0.
        -12    1    1    2    0    0 -0.11961150476E+02  0.30081495092E+02  0.28907775612E+02  0.43400748364E+02  0.00000000000E+00 0.  1.
         11    1    3    3    0    0  0.14271133075E+02 -0.25867259382E+02 -0.27074398232E+02  0.40072476677E+02  0.51100000000E-03 0. -1.
        -11    1    3    3    0    0  0.11554883209E+01 -0.28008414076E+01  0.80586741868E+00  0.31351695979E+01  0.51100000000E-03 0.  1.
         12    1    3    3    0    0 -0.34654709204E+01 -0.14133943032E+01 -0.26392447987E+01  0.45796053612E+01  0.00000000000E+00 0. -1.
</event>
<event>
 7    1  0.1322363E-009  0.4778727E+02  0.7816164E-02  0.1312668E+00
        -11   -1    0    0    0    0  0.00000000000E+00  0.00000000000E+00  0.45593999997E+02  0.45594000000E+02  0.51100000000E-03 0. -1.
         11   -1    0    0    0    0 -0.00000000000E+00 -0.00000000000E+00 -0.45593999997E+02  0.45594000000E+02  0.51100000000E-03 0.  1.
    9900012    2    1    2    0    0 -0.20784524046E+02  0.16370792875E+01  0.38065034354E+02  0.47787270642E+02  0.19999998167E+02 0.  0.
        -12    1    1    2    0    0  0.20784524046E+02 -0.16370792875E+01 -0.38065034354E+02  0.43400729358E+02  0.00000000000E+00 0.  1.
         11    1    3    3    0    0 -0.90258949674E+01  0.99503009235E+01  0.19015496233E+02  0.23282275784E+02  0.51100000000E-03 0. -1.
        -11    1    3    3    0    0 -0.64013338544E+01 -0.31116699477E+01  0.53551541802E+01  0.89071455323E+01  0.51100000000E-03 0.  1.
        -12    1    3    3    0    0 -0.53572952242E+01 -0.52015516883E+01  0.13694383941E+02  0.15597849326E+02  0.00000000000E+00 0.  1.
</event>
<event>
 7    1  0.1322363E-009  0.4778727E+02  0.7816164E-02  0.1312668E+00
        -11   -1    0    0    0    0  0.00000000000E+00  0.00000000000E+00  0.45593999997E+02  0.45594000000E+02  0.51100000000E-03 0.  1.
         11   -1    0    0    0    0 -0.00000000000E+00 -0.00000000000E+00 -0.45593999997E+02  0.45594000000E+02  0.51100000000E-03 0. -1.
    9900012    2    1    2    0    0 -0.12604781582E+02  0.40166199794E+02 -0.10555546517E+02  0.47787266286E+02  0.19999978306E+02 0.  0.
        -12    1    1    2    0    0  0.12604781582E+02 -0.40166199794E+02  0.10555546517E+02  0.43400733714E+02  0.00000000000E+00 0.  1.
         11    1    3    3    0    0 -0.30639979005E+01  0.10165928168E+01  0.15758173762E+01  0.35923174629E+01  0.51100000000E-03 0.  1.
        -11    1    3    3    0    0 -0.10471431242E+02  0.19442762907E+02 -0.10342447663E+02  0.24385203006E+02  0.51100000000E-03 0. -1.
         12    1    3    3    0    0  0.93064756027E+00  0.19706844070E+02 -0.17889162294E+01  0.19809745817E+02  0.00000000000E+00 0. -1.
</event>
<event>
 7    1  0.1322363E-009  0.4778727E+02  0.7816164E-02  0.1312668E+00
        -11   -1    0    0    0    0  0.00000000000E+00  0.00000000000E+00  0.45593999997E+02  0.45594000000E+02  0.51100000000E-03 0.  1.
         11   -1    0    0    0    0 -0.00000000000E+00 -0.00000000000E+00 -0.45593999997E+02  0.45594000000E+02  0.51100000000E-03 0. -1.
    9900012    2    1    2    0    0  0.43279623018E+02  0.29589280529E+01 -0.13199265012E+01  0.47787271553E+02  0.20000002317E+02 0.  0.
        -12    1    1    2    0    0 -0.43279623018E+02 -0.29589280529E+01  0.13199265012E+01  0.43400728447E+02  0.00000000000E+00 0.  1.
         11    1    3    3    0    0  0.21234148289E+02  0.24280902077E+00  0.48913164408E+01  0.21791580635E+02  0.51100000000E-03 0. -1.
        -11    1    3    3    0    0  0.60666476503E-01 -0.23638051197E+01 -0.18772543711E+01  0.30191620195E+01  0.51100000000E-03 0.  1.
         12    1    3    3    0    0  0.21984808252E+02  0.50799241518E+01 -0.43339885709E+01  0.22976528898E+02  0.00000000000E+00 0. -1.
</event>
<event>
 7    1  0.1322363E-009  0.4778727E+02  0.7816164E-02  0.1312668E+00
        -11   -1    0    0    0    0  0.00000000000E+00  0.00000000000E+00  0.45593999997E+02  0.45594000000E+02  0.51100000000E-03 0.  1.
         11   -1    0    0    0    0 -0.00000000000E+00 -0.00000000000E+00 -0.45593999997E+02  0.45594000000E+02  0.51100000000E-03 0. -1.
    9900012    2    1    2    0    0 -0.43216771733E+02  0.26127411118E+01 -0.30179108406E+01  0.47787267737E+02  0.19999984920E+02 0.  0.
        -12    1    1    2    0    0  0.43216771733E+02 -0.26127411118E+01  0.30179108406E+01  0.43400732263E+02  0.00000000000E+00 0.  1.
         11    1    3    3    0    0 -0.14047095493E+02  0.54303085854E+01  0.24069976961E+01  0.15251320640E+02  0.51100000000E-03 0. -1.
        -11    1    3    3    0    0 -0.29346030815E+02 -0.33926890229E+01 -0.26089746167E+01  0.29656476733E+02  0.51100000000E-03 0.  1.
        -12    1    3    3    0    0  0.17635457493E+00  0.57512154931E+00 -0.28159339200E+01  0.28794703635E+01  0.00000000000E+00 0.  1.
</event>
<event>
 7    1  0.1322363E-009  0.4778727E+02  0.7816164E-02  0.1312668E+00
        -11   -1    0    0    0    0  0.00000000000E+00  0.00000000000E+00  0.45593999997E+02  0.45594000000E+02  0.51100000000E-03 0.  1.
         11   -1    0    0    0    0 -0.00000000000E+00 -0.00000000000E+00 -0.45593999997E+02  0.45594000000E+02  0.51100000000E-03 0. -1.
    9900012    2    1    2    0    0 -0.41720936704E+02 -0.17388832892E+01  0.11830613063E+02  0.47787266366E+02  0.19999978669E+02 0.  0.
        -12    1    1    2    0    0  0.41720936704E+02  0.17388832892E+01 -0.11830613063E+02  0.43400733634E+02  0.00000000000E+00 0.  1.
         11    1    3    3    0    0 -0.35286914809E+02  0.59311127576E+01  0.10303681048E+02  0.37235873814E+02  0.51100000000E-03 0. -1.
        -11    1    3    3    0    0 -0.16958449466E+01 -0.27053578986E+01  0.18331838762E+01  0.36817678943E+01  0.51100000000E-03 0.  1.
        -12    1    3    3    0    0 -0.47381769483E+01 -0.49646381482E+01 -0.30625186175E+00  0.68696246578E+01  0.00000000000E+00 0.  1.
</event>
<event>
 7    1  0.1322363E-009  0.4778727E+02  0.7816164E-02  0.1312668E+00
        -11   -1    0    0    0    0  0.00000000000E+00  0.00000000000E+00  0.45593999997E+02  0.45594000000E+02  0.51100000000E-03 0.  1.
         11   -1    0    0    0    0 -0.00000000000E+00 -0.00000000000E+00 -0.45593999997E+02  0.45594000000E+02  0.51100000000E-03 0. -1.
    9900012    2    1    2    0    0 -0.71956133811E+00  0.42468860520E+02  0.89163667731E+01  0.47787268684E+02  0.19999989237E+02 0.  0.
        -12    1    1    2    0    0  0.71956133811E+00 -0.42468860520E+02 -0.89163667731E+01  0.43400731316E+02  0.00000000000E+00 0.  1.
         11    1    3    3    0    0  0.40936875933E+01  0.87605593173E+01 -0.21219755788E+01  0.98999221351E+01  0.51100000000E-03 0. -1.
        -11    1    3    3    0    0  0.11151231082E+01  0.26890363771E+02  0.10318769173E+02  0.28823812391E+02  0.51100000000E-03 0.  1.
         12    1    3    3    0    0 -0.59283720396E+01  0.68179374314E+01  0.71957317931E+00  0.90635341573E+01  0.00000000000E+00 0. -1.
</event>
<event>
 7    1  0.1322363E-009  0.4778727E+02  0.7816164E-02  0.1312668E+00
        -11   -1    0    0    0    0  0.00000000000E+00  0.00000000000E+00  0.45593999997E+02  0.45594000000E+02  0.51100000000E-03 0. -1.
         11   -1    0    0    0    0 -0.00000000000E+00 -0.00000000000E+00 -0.45593999997E+02  0.45594000000E+02  0.51100000000E-03 0.  1.
    9900012    2    1    2    0    0  0.14304877049E+02 -0.12125936780E+02  0.39140203256E+02  0.47787270040E+02  0.19999995420E+02 0.  0.
        -12    1    1    2    0    0 -0.14304877049E+02  0.12125936780E+02 -0.39140203256E+02  0.43400729960E+02  0.00000000000E+00 0.  1.
         11    1    3    3    0    0  0.91884957459E+01 -0.37695487841E+01  0.15732606317E+02  0.18605183522E+02  0.51100000000E-03 0. -1.
        -11    1    3    3    0    0  0.20838924463E+01 -0.11989605128E+02  0.19761404769E+02  0.23207894293E+02  0.51100000000E-03 0.  1.
         12    1    3    3    0    0  0.30324888567E+01  0.36332171316E+01  0.36461921702E+01  0.59741922243E+01  0.00000000000E+00 0. -1.
</event>
<event>
 7    1  0.1322363E-009  0.4778727E+02  0.7816164E-02  0.1312668E+00
        -11   -1    0    0    0    0  0.00000000000E+00  0.00000000000E+00  0.45593999997E+02  0.45594000000E+02  0.51100000000E-03 0.  1.
         11   -1    0    0    0    0 -0.00000000000E+00 -0.00000000000E+00 -0.45593999997E+02  0.45594000000E+02  0.51100000000E-03 0. -1.
    9900012    2    1    2    0    0  0.26275270691E+01  0.21245392129E+02 -0.37753840887E+02  0.47787273198E+02  0.20000009819E+02 0.  0.
        -12    1    1    2    0    0 -0.26275270691E+01 -0.21245392129E+02  0.37753840887E+02  0.43400726802E+02  0.00000000000E+00 0.  1.
         11    1    3    3    0    0 -0.63709435190E+01  0.23716145189E+01 -0.10193826719E+02  0.12252656047E+02  0.51100000000E-03 0.  1.
        -11    1    3    3    0    0  0.11796904011E+01  0.11404708197E+02 -0.16246113420E+02  0.19884547770E+02  0.51100000000E-03 0. -1.
        -12    1    3    3    0    0  0.78187801870E+01  0.74690694138E+01 -0.11313900747E+02  0.15650069381E+02  0.00000000000E+00 0.  1.
</event>
<event>
 7    1  0.1322363E-009  0.4778727E+02  0.7816164E-02  0.1312668E+00
        -11   -1    0    0    0    0  0.00000000000E+00  0.00000000000E+00  0.45593999997E+02  0.45594000000E+02  0.51100000000E-03 0.  1.
         11   -1    0    0    0    0 -0.00000000000E+00 -0.00000000000E+00 -0.45593999997E+02  0.45594000000E+02  0.51100000000E-03 0. -1.
    9900012    2    1    2    0    0  0.38903820529E+01  0.33930711424E+02 -0.26780504261E+02  0.47787266611E+02  0.19999979785E+02 0.  0.
        -12    1    1    2    0    0 -0.38903820529E+01 -0.33930711424E+02  0.26780504261E+02  0.43400733389E+02  0.00000000000E+00 0.  1.
         11    1    3    3    0    0 -0.33998464683E+01  0.48006644919E+01 -0.59509779054E+00  0.59126539907E+01  0.51100000000E-03 0. -1.
        -11    1    3    3    0    0  0.12986604658E+01  0.15998929185E+01  0.13625124972E+01  0.24703475307E+01  0.51100000000E-03 0.  1.
         12    1    3    3    0    0  0.59915680555E+01  0.27530154014E+02 -0.27547918968E+02  0.39404265089E+02  0.00000000000E+00 0. -1.
</event>
<event>
 7    1  0.1322363E-009  0.4778730E+02  0.7816164E-02  0.1312668E+00
        -11   -1    0    0    0    0  0.00000000000E+00  0.00000000000E+00  0.45593999997E+02  0.45594000000E+02  0.51100000000E-03 0. -1.
         11   -1    0    0    0    0 -0.00000000000E+00 -0.00000000000E+00 -0.45593999997E+02  0.45594000000E+02  0.51100000000E-03 0.  1.
    9900012    2    1    2    0    0 -0.32033166564E+02 -0.26163572523E+02  0.13151594388E+02  0.47787300441E+02  0.20000134029E+02 0.  0.
        -12    1    1    2    0    0  0.32033166564E+02  0.26163572523E+02 -0.13151594388E+02  0.43400699559E+02  0.00000000000E+00 0.  1.
         11    1    3    3    0    0 -0.47079018868E+01 -0.73440159738E+01  0.60178312954E+01  0.10597792438E+02  0.51100000000E-03 0. -1.
        -11    1    3    3    0    0 -0.18555403267E+02 -0.90919112142E+01  0.11164037282E+02  0.23486199535E+02  0.51100000000E-03 0.  1.
        -12    1    3    3    0    0 -0.87698614108E+01 -0.97276453346E+01 -0.40302741888E+01  0.13703308468E+02  0.00000000000E+00 0.  1.
</event>
<event>
 7    1  0.1322363E-009  0.4778727E+02  0.7816164E-02  0.1312668E+00
        -11   -1    0    0    0    0  0.00000000000E+00  0.00000000000E+00  0.45593999997E+02  0.45594000000E+02  0.51100000000E-03 0.  1.
         11   -1    0    0    0    0 -0.00000000000E+00 -0.00000000000E+00 -0.45593999997E+02  0.45594000000E+02  0.51100000000E-03 0. -1.
    9900012    2    1    2    0    0  0.59199719500E+01 -0.42052723699E+02 -0.89524088571E+01  0.47787271173E+02  0.20000000584E+02 0.  0.
        -12    1    1    2    0    0 -0.59199719500E+01  0.42052723699E+02  0.89524088571E+01  0.43400728827E+02  0.00000000000E+00 0.  1.
         11    1    3    3    0    0  0.22520449621E+01 -0.19018633381E+01 -0.62085256584E+01  0.68727419404E+01  0.51100000000E-03 0. -1.
        -11    1    3    3    0    0  0.24834815405E+01 -0.10345983405E+02  0.16405610015E+01  0.10765616278E+02  0.51100000000E-03 0.  1.
         12    1    3    3    0    0  0.11844454474E+01 -0.29804876956E+02 -0.43844442002E+01  0.30148912954E+02  0.00000000000E+00 0. -1.
</event>
<event>
 7    1  0.1322363E-009  0.4778727E+02  0.7816164E-02  0.1312668E+00
        -11   -1    0    0    0    0  0.00000000000E+00  0.00000000000E+00  0.45593999997E+02  0.45594000000E+02  0.51100000000E-03 0.  1.
         11   -1    0    0    0    0 -0.00000000000E+00 -0.00000000000E+00 -0.45593999997E+02  0.45594000000E+02  0.51100000000E-03 0. -1.
    9900012    2    1    2    0    0 -0.34095084157E+02 -0.88765961281E+01  0.25344719090E+02  0.47787268344E+02  0.19999987690E+02 0.  0.
        -12    1    1    2    0    0  0.34095084157E+02  0.88765961281E+01 -0.25344719090E+02  0.43400731656E+02  0.00000000000E+00 0.  1.
         11    1    3    3    0    0 -0.10489984838E+02 -0.10551902873E+02  0.97220004296E+01  0.17773568262E+02  0.51100000000E-03 0. -1.
        -11    1    3    3    0    0 -0.16898382415E+01  0.27766387985E+01  0.40911962653E+01  0.52252429075E+01  0.51100000000E-03 0.  1.
         12    1    3    3    0    0 -0.21915261077E+02 -0.11013320537E+01  0.11531522395E+02  0.24788457175E+02  0.00000000000E+00 0. -1.
</event>
<event>
 7    1  0.1322363E-009  0.4778727E+02  0.7816164E-02  0.1312668E+00
        -11   -1    0    0    0    0  0.00000000000E+00  0.00000000000E+00  0.45593999997E+02  0.45594000000E+02  0.51100000000E-03 0.  1.
         11   -1    0    0    0    0 -0.00000000000E+00 -0.00000000000E+00 -0.45593999997E+02  0.45594000000E+02  0.51100000000E-03 0. -1.
    9900012    2    1    2    0    0 -0.15608335817E+02  0.24387922251E+02 -0.32330049851E+02  0.47787273945E+02  0.20000013227E+02 0.  0.
        -12    1    1    2    0    0  0.15608335817E+02 -0.24387922251E+02  0.32330049851E+02  0.43400726055E+02  0.00000000000E+00 0.  1.
         11    1    3    3    0    0 -0.47127772046E+01  0.43914311185E+01 -0.10696053019E+02  0.12486011641E+02  0.51100000000E-03 0. -1.
        -11    1    3    3    0    0 -0.31103191171E+01  0.15702639647E+02 -0.55848278513E+01  0.16953975324E+02  0.51100000000E-03 0.  1.
        -12    1    3    3    0    0 -0.77852394956E+01  0.42938514854E+01 -0.16049168980E+02  0.18347286980E+02  0.00000000000E+00 0.  1.
</event>
<event>
 7    1  0.1322363E-009  0.4778727E+02  0.7816164E-02  0.1312668E+00
        -11   -1    0    0    0    0  0.00000000000E+00  0.00000000000E+00  0.45593999997E+02  0.45594000000E+02  0.51100000000E-03 0.  1.
         11   -1    0    0    0    0 -0.00000000000E+00 -0.00000000000E+00 -0.45593999997E+02  0.45594000000E+02  0.51100000000E-03 0. -1.
    9900012    2    1    2    0    0  0.18761921752E+01 -0.26169256789E+02 -0.34572722883E+02  0.47787271141E+02  0.20000000439E+02 0.  0.
        -12    1    1    2    0    0 -0.18761921752E+01  0.26169256789E+02  0.34572722883E+02  0.43400728859E+02  0.00000000000E+00 0.  1.
         11    1    3    3    0    0 -0.47091642353E+01 -0.16446791757E+02 -0.11620850648E+02  0.20681328704E+02  0.51100000000E-03 0. -1.
        -11    1    3    3    0    0  0.51445363493E+01 -0.10089630923E+02 -0.13885881421E+02  0.17918833932E+02  0.51100000000E-03 0.  1.
        -12    1    3    3    0    0  0.14408200611E+01  0.36716589026E+00 -0.90659908142E+01  0.91871085050E+01  0.00000000000E+00 0.  1.
</event>
<event>
 7    1  0.1322363E-009  0.4778728E+02  0.7816164E-02  0.1312668E+00
        -11   -1    0    0    0    0  0.00000000000E+00  0.00000000000E+00  0.45593999997E+02  0.45594000000E+02  0.51100000000E-03 0.  1.
         11   -1    0    0    0    0 -0.00000000000E+00 -0.00000000000E+00 -0.45593999997E+02  0.45594000000E+02  0.51100000000E-03 0. -1.
    9900012    2    1    2    0    0  0.40184773052E+02 -0.15383376819E+02 -0.56708498081E+01  0.47787276445E+02  0.20000024623E+02 0.  0.
        -12    1    1    2    0    0 -0.40184773052E+02  0.15383376819E+02  0.56708498081E+01  0.43400723555E+02  0.00000000000E+00 0.  1.
         11    1    3    3    0    0  0.11429665465E+02  0.25281154358E+01 -0.67096963351E+01  0.13492540364E+02  0.51100000000E-03 0.  1.
        -11    1    3    3    0    0  0.13381848374E+02 -0.64215922418E+01 -0.15699736262E+01  0.14925666829E+02  0.51100000000E-03 0. -1.
        -12    1    3    3    0    0  0.15373259213E+02 -0.11489900013E+02  0.26088201532E+01  0.19369069253E+02  0.00000000000E+00 0.  1.
</event>
<event>
 7    1  0.1322363E-009  0.4778727E+02  0.7816164E-02  0.1312668E+00
        -11   -1    0    0    0    0  0.00000000000E+00  0.00000000000E+00  0.45593999997E+02  0.45594000000E+02  0.51100000000E-03 0.  1.
         11   -1    0    0    0    0 -0.00000000000E+00 -0.00000000000E+00 -0.45593999997E+02  0.45594000000E+02  0.51100000000E-03 0. -1.
    9900012    2    1    2    0    0  0.39234021335E+02  0.18219748048E+02 -0.35150347755E+01  0.47787272834E+02  0.20000008161E+02 0.  0.
        -12    1    1    2    0    0 -0.39234021335E+02 -0.18219748048E+02  0.35150347755E+01  0.43400727166E+02  0.00000000000E+00 0.  1.
         11    1    3    3    0    0  0.96792725623E+01  0.53806067262E+01  0.20587342785E+01  0.11263997211E+02  0.51100000000E-03 0. -1.
        -11    1    3    3    0    0  0.26997099696E+01  0.42530126997E+01  0.43274384647E+01  0.66410296544E+01  0.51100000000E-03 0.  1.
         12    1    3    3    0    0  0.26855038803E+02  0.85861286225E+01 -0.99012075187E+01  0.29882245969E+02  0.00000000000E+00 0. -1.
</event>
<event>
 7    1  0.1322363E-009  0.4778727E+02  0.7816164E-02  0.1312668E+00
        -11   -1    0    0    0    0  0.00000000000E+00  0.00000000000E+00  0.45593999997E+02  0.45594000000E+02  0.51100000000E-03 0. -1.
         11   -1    0    0    0    0 -0.00000000000E+00 -0.00000000000E+00 -0.45593999997E+02  0.45594000000E+02  0.51100000000E-03 0.  1.
    9900012    2    1    2    0    0  0.15977140484E+02 -0.36092694767E+02  0.18046374745E+02  0.47787271031E+02  0.19999999938E+02 0.  0.
        -12    1    1    2    0    0 -0.15977140484E+02  0.36092694767E+02 -0.18046374745E+02  0.43400728969E+02  0.00000000000E+00 0.  1.
         11    1    3    3    0    0  0.10023024360E+02 -0.34633463576E+02  0.96906956274E+01  0.37334265743E+02  0.51100000000E-03 0. -1.
        -11    1    3    3    0    0  0.27589873779E+01 -0.29433492629E+00  0.28201754143E+01  0.39562651616E+01  0.51100000000E-03 0.  1.
         12    1    3    3    0    0  0.31951287468E+01 -0.11648962650E+01  0.55355037032E+01  0.64967401260E+01  0.00000000000E+00 0. -1.
</event>
<event>
 7    1  0.1483439E-009  0.4778728E+02  0.7816164E-02  0.1312668E+00
        -11   -1    0    0    0    0  0.00000000000E+00  0.00000000000E+00  0.45593999997E+02  0.45594000000E+02  0.51100000000E-03 0. -1.
         11   -1    0    0    0    0 -0.00000000000E+00 -0.00000000000E+00 -0.45593999997E+02  0.45594000000E+02  0.51100000000E-03 0.  1.
    9900012    2    1    2    0    0 -0.18064690380E+02  0.35894009343E+02  0.16398472740E+02  0.47787275888E+02  0.20000022082E+02 0.  0.
        -12    1    1    2    0    0  0.18064690380E+02 -0.35894009343E+02 -0.16398472740E+02  0.43400724112E+02  0.00000000000E+00 0.  1.
         11    1    3    3    0    0 -0.12767543378E+02  0.31351424972E+02  0.14405800442E+02  0.36789252484E+02  0.51100000000E-03 0. -1.
        -11    1    3    3    0    0  0.18373383783E+01  0.15156114450E+01  0.22040105041E+01  0.32450813445E+01  0.51100000000E-03 0.  1.
         12    1    3    3    0    0 -0.71344853801E+01  0.30269729265E+01 -0.21133820593E+00  0.77529420592E+01  0.00000000000E+00 0. -1.
</event>
<event>
 7    1  0.1322363E-009  0.4778727E+02  0.7816164E-02  0.1312668E+00
        -11   -1    0    0    0    0  0.00000000000E+00  0.00000000000E+00  0.45593999997E+02  0.45594000000E+02  0.51100000000E-03 0.  1.
         11   -1    0    0    0    0 -0.00000000000E+00 -0.00000000000E+00 -0.45593999997E+02  0.45594000000E+02  0.51100000000E-03 0. -1.
    9900012    2    1    2    0    0 -0.66590516557E+01  0.34512906531E+02 -0.25458590628E+02  0.47787268175E+02  0.19999986916E+02 0.  0.
        -12    1    1    2    0    0  0.66590516557E+01 -0.34512906531E+02  0.25458590628E+02  0.43400731825E+02  0.00000000000E+00 0.  1.
         11    1    3    3    0    0  0.57609037607E+01  0.19737009966E+02 -0.15517097773E+02  0.25758841163E+02  0.51100000000E-03 0. -1.
        -11    1    3    3    0    0 -0.48161340998E+01  0.78538883396E+01 -0.61112676893E+01  0.11055600515E+02  0.51100000000E-03 0.  1.
         12    1    3    3    0    0 -0.76038213166E+01  0.69220082261E+01 -0.38302251656E+01  0.10972826496E+02  0.00000000000E+00 0. -1.
</event>
<event>
 7    1  0.1322363E-009  0.4778727E+02  0.7816164E-02  0.1312668E+00
        -11   -1    0    0    0    0  0.00000000000E+00  0.00000000000E+00  0.45593999997E+02  0.45594000000E+02  0.51100000000E-03 0.  1.
         11   -1    0    0    0    0 -0.00000000000E+00 -0.00000000000E+00 -0.45593999997E+02  0.45594000000E+02  0.51100000000E-03 0. -1.
    9900012    2    1    2    0    0  0.21540979654E+02 -0.25842306180E+02 -0.27418695500E+02  0.47787268945E+02  0.19999990429E+02 0.  0.
        -12    1    1    2    0    0 -0.21540979654E+02  0.25842306180E+02  0.27418695500E+02  0.43400731055E+02  0.00000000000E+00 0.  1.
         11    1    3    3    0    0  0.57411479280E+01 -0.21844356340E+01 -0.28555300801E+01  0.67739641916E+01  0.51100000000E-03 0. -1.
        -11    1    3    3    0    0  0.10728292225E+02 -0.24534474559E+02 -0.23770164866E+02  0.35805829609E+02  0.51100000000E-03 0.  1.
         12    1    3    3    0    0  0.50715395010E+01  0.87660401285E+00 -0.79300055379E+00  0.52074751448E+01  0.00000000000E+00 0. -1.
</event>
<event>
 7    1  0.1322363E-009  0.4778727E+02  0.7816164E-02  0.1312668E+00
        -11   -1    0    0    0    0  0.00000000000E+00  0.00000000000E+00  0.45593999997E+02  0.45594000000E+02  0.51100000000E-03 0.  1.
         11   -1    0    0    0    0 -0.00000000000E+00 -0.00000000000E+00 -0.45593999997E+02  0.45594000000E+02  0.51100000000E-03 0. -1.
    9900012    2    1    2    0    0  0.42541947183E+01  0.42397186887E+02  0.82464175548E+01  0.47787273841E+02  0.20000012753E+02 0.  0.
        -12    1    1    2    0    0 -0.42541947183E+01 -0.42397186887E+02 -0.82464175548E+01  0.43400726159E+02  0.00000000000E+00 0.  1.
         11    1    3    3    0    0 -0.66587590666E+01  0.24239476072E+02  0.73715439843E+01  0.26196009878E+02  0.51100000000E-03 0.  1.
        -11    1    3    3    0    0  0.24478640055E+01  0.22696698751E+01 -0.10170893505E+01  0.34896863096E+01  0.51100000000E-03 0. -1.
        -12    1    3    3    0    0  0.84650897793E+01  0.15888040939E+02  0.18919629210E+01  0.18101577654E+02  0.00000000000E+00 0.  1.
</event>
<event>
 7    1  0.1322363E-009  0.4778727E+02  0.7816164E-02  0.1312668E+00
        -11   -1    0    0    0    0  0.00000000000E+00  0.00000000000E+00  0.45593999997E+02  0.45594000000E+02  0.51100000000E-03 0.  1.
         11   -1    0    0    0    0 -0.00000000000E+00 -0.00000000000E+00 -0.45593999997E+02  0.45594000000E+02  0.51100000000E-03 0. -1.
    9900012    2    1    2    0    0  0.16609300095E+02  0.11947450673E+02 -0.38275487945E+02  0.47787269538E+02  0.19999993131E+02 0.  0.
        -12    1    1    2    0    0 -0.16609300095E+02 -0.11947450673E+02  0.38275487945E+02  0.43400730462E+02  0.00000000000E+00 0.  1.
         11    1    3    3    0    0  0.12053790915E+02  0.36047523727E+01 -0.28771590249E+02  0.31402110133E+02  0.51100000000E-03 0. -1.
        -11    1    3    3    0    0  0.44349972453E+01  0.45963744665E+01 -0.10690792566E+02  0.12453469587E+02  0.51100000000E-03 0.  1.
        -12    1    3    3    0    0  0.12051193515E+00  0.37463238343E+01  0.11868948697E+01  0.39316898186E+01  0.00000000000E+00 0.  1.
</event>
<event>
 7    1  0.1322363E-009  0.4778727E+02  0.7816164E-02  0.1312668E+00
        -11   -1    0    0    0    0  0.00000000000E+00  0.00000000000E+00  0.45593999997E+02  0.45594000000E+02  0.51100000000E-03 0. -1.
         11   -1    0    0    0    0 -0.00000000000E+00 -0.00000000000E+00 -0.45593999997E+02  0.45594000000E+02  0.51100000000E-03 0.  1.
    9900012    2    1    2    0    0  0.15371487751E+02 -0.88699162189E+00  0.40577751356E+02  0.47787270802E+02  0.19999998893E+02 0.  0.
        -12    1    1    2    0    0 -0.15371487751E+02  0.88699162189E+00 -0.40577751356E+02  0.43400729198E+02  0.00000000000E+00 0.  1.
         11    1    3    3    0    0  0.11361224114E+02  0.65802198018E+01  0.15118434412E+02  0.20023580233E+02  0.51100000000E-03 0. -1.
        -11    1    3    3    0    0  0.20866068388E+01 -0.37793393969E+01  0.39356492243E+01  0.58418036132E+01  0.51100000000E-03 0.  1.
         12    1    3    3    0    0  0.19236567975E+01 -0.36878720268E+01  0.21523667721E+02  0.21921886956E+02  0.00000000000E+00 0. -1.
</event>
<event>
 7    1  0.1322363E-009  0.4778727E+02  0.7816164E-02  0.1312668E+00
        -11   -1    0    0    0    0  0.00000000000E+00  0.00000000000E+00  0.45593999997E+02  0.45594000000E+02  0.51100000000E-03 0.  1.
         11   -1    0    0    0    0 -0.00000000000E+00 -0.00000000000E+00 -0.45593999997E+02  0.45594000000E+02  0.51100000000E-03 0. -1.
    9900012    2    1    2    0    0 -0.14375233924E+02  0.39840264521E+01 -0.40756638503E+02  0.47787269600E+02  0.19999993416E+02 0.  0.
        -12    1    1    2    0    0  0.14375233924E+02 -0.39840264521E+01  0.40756638503E+02  0.43400730400E+02  0.00000000000E+00 0.  1.
         11    1    3    3    0    0 -0.96259282148E+01  0.77002357744E+01 -0.16258204087E+02  0.20402973444E+02  0.51100000000E-03 0. -1.
        -11    1    3    3    0    0  0.75001673035E+00 -0.10407647184E+01  0.69513605341E+00  0.14590855659E+01  0.51100000000E-03 0.  1.
         12    1    3    3    0    0 -0.54993224400E+01 -0.26754446039E+01 -0.25193570470E+02  0.25925210590E+02  0.00000000000E+00 0. -1.
</event>
<event>
 7    1  0.1322363E-009  0.4778730E+02  0.7816164E-02  0.1312668E+00
        -11   -1    0    0    0    0  0.00000000000E+00  0.00000000000E+00  0.45593999997E+02  0.45594000000E+02  0.51100000000E-03 0. -1.
         11   -1    0    0    0    0 -0.00000000000E+00 -0.00000000000E+00 -0.45593999997E+02  0.45594000000E+02  0.51100000000E-03 0.  1.
    9900012    2    1    2    0    0  0.12921923820E+02 -0.37855860171E+02 -0.16839801101E+02  0.47787295333E+02  0.20000110739E+02 0.  0.
        -12    1    1    2    0    0 -0.12921923820E+02  0.37855860171E+02  0.16839801101E+02  0.43400704667E+02  0.00000000000E+00 0.  1.
         11    1    3    3    0    0  0.85504675810E+01 -0.33083468204E+02 -0.76316616746E+01  0.35012406722E+02  0.51100000000E-03 0. -1.
        -11    1    3    3    0    0  0.24184621183E+01 -0.64757171798E-01 -0.20342631833E+00  0.24278663548E+01  0.51100000000E-03 0.  1.
        -12    1    3    3    0    0  0.19529941203E+01 -0.47076347950E+01 -0.90047131084E+01  0.10347022256E+02  0.00000000000E+00 0.  1.
</event>
<event>
 7    1  0.1322363E-009  0.4778727E+02  0.7816164E-02  0.1312668E+00
        -11   -1    0    0    0    0  0.00000000000E+00  0.00000000000E+00  0.45593999997E+02  0.45594000000E+02  0.51100000000E-03 0.  1.
         11   -1    0    0    0    0 -0.00000000000E+00 -0.00000000000E+00 -0.45593999997E+02  0.45594000000E+02  0.51100000000E-03 0. -1.
    9900012    2    1    2    0    0 -0.86904524494E+01 -0.36508907615E+02 -0.21799058331E+02  0.47787271399E+02  0.20000001615E+02 0.  0.
        -12    1    1    2    0    0  0.86904524494E+01  0.36508907615E+02  0.21799058331E+02  0.43400728601E+02  0.00000000000E+00 0.  1.
         11    1    3    3    0    0 -0.90469155186E+01 -0.11749521285E+02 -0.36306390007E+01  0.15266940448E+02  0.51100000000E-03 0. -1.
        -11    1    3    3    0    0  0.25468828606E+01 -0.10842289768E+02 -0.24339378043E+01  0.11400259349E+02  0.51100000000E-03 0.  1.
         12    1    3    3    0    0 -0.21904197915E+01 -0.13917096562E+02 -0.15734481526E+02  0.21120071602E+02  0.00000000000E+00 0. -1.
</event>
<event>
 7    1  0.1322363E-009  0.4778727E+02  0.7816164E-02  0.1312668E+00
        -11   -1    0    0    0    0  0.00000000000E+00  0.00000000000E+00  0.45593999997E+02  0.45594000000E+02  0.51100000000E-03 0.  1.
         11   -1    0    0    0    0 -0.00000000000E+00 -0.00000000000E+00 -0.45593999997E+02  0.45594000000E+02  0.51100000000E-03 0. -1.
    9900012    2    1    2    0    0  0.37264193405E+01 -0.84881326603E+01 -0.42399163930E+02  0.47787266145E+02  0.19999977662E+02 0.  0.
        -12    1    1    2    0    0 -0.37264193405E+01  0.84881326603E+01  0.42399163930E+02  0.43400733855E+02  0.00000000000E+00 0.  1.
         11    1    3    3    0    0 -0.25587493279E+01 -0.74694502087E+01 -0.78298629205E+01  0.11119650991E+02  0.51100000000E-03 0.  1.
        -11    1    3    3    0    0  0.42501154704E+01  0.11892826828E+01 -0.40159163293E+01  0.59670310068E+01  0.51100000000E-03 0. -1.
        -12    1    3    3    0    0  0.20350531979E+01 -0.22079651344E+01 -0.30553384681E+02  0.30700584147E+02  0.00000000000E+00 0.  1.
</event>
<event>
 7    1  0.1322363E-009  0.4778727E+02  0.7816164E-02  0.1312668E+00
        -11   -1    0    0    0    0  0.00000000000E+00  0.00000000000E+00  0.45593999997E+02  0.45594000000E+02  0.51100000000E-03 0.  1.
         11   -1    0    0    0    0 -0.00000000000E+00 -0.00000000000E+00 -0.45593999997E+02  0.45594000000E+02  0.51100000000E-03 0. -1.
    9900012    2    1    2    0    0  0.21067851183E+02 -0.88425854566E+01 -0.36899562037E+02  0.47787270173E+02  0.19999996025E+02 0.  0.
        -12    1    1    2    0    0 -0.21067851183E+02  0.88425854566E+01  0.36899562037E+02  0.43400729827E+02  0.00000000000E+00 0.  1.
         11    1    3    3    0    0  0.14950760279E+01 -0.81248022608E+01 -0.93251343486E+01  0.12458161782E+02  0.51100000000E-03 0.  1.
        -11    1    3    3    0    0  0.13151969163E+02 -0.45556997955E+01 -0.21863145474E+02  0.25917673965E+02  0.51100000000E-03 0. -1.
        -12    1    3    3    0    0  0.64208059919E+01  0.38379165998E+01 -0.57112822146E+01  0.94114344256E+01  0.00000000000E+00 0.  1.
</event>
<event>
 7    1  0.1338821E-009  0.4778727E+02  0.7816164E-02  0.1312668E+00
        -11   -1    0    0    0    0  0.00000000000E+00  0.00000000000E+00  0.45593999997E+02  0.45594000000E+02  0.51100000000E-03 0. -1.
         11   -1    0    0    0    0 -0.00000000000E+00 -0.00000000000E+00 -0.45593999997E+02  0.45594000000E+02  0.51100000000E-03 0.  1.
    9900012    2    1    2    0    0  0.16463377876E+02  0.14427322431E+02  0.37475767172E+02  0.47787267648E+02  0.19999984513E+02 0.  0.
        -12    1    1    2    0    0 -0.16463377876E+02 -0.14427322431E+02 -0.37475767172E+02  0.43400732352E+02  0.00000000000E+00 0.  1.
         11    1    3    3    0    0  0.63955728657E+01  0.10390302419E+02  0.25469452490E+02  0.28241011792E+02  0.51100000000E-03 0. -1.
        -11    1    3    3    0    0 -0.17441322532E+01 -0.15480546333E+01  0.22424105002E+01  0.32352551023E+01  0.51100000000E-03 0.  1.
         12    1    3    3    0    0  0.11811937263E+02  0.55850746447E+01  0.97639041813E+01  0.16311000753E+02  0.00000000000E+00 0. -1.
</event>
<event>
 7    1  0.1322363E-009  0.4778727E+02  0.7816164E-02  0.1312668E+00
        -11   -1    0    0    0    0  0.00000000000E+00  0.00000000000E+00  0.45593999997E+02  0.45594000000E+02  0.51100000000E-03 0.  1.
         11   -1    0    0    0    0 -0.00000000000E+00 -0.00000000000E+00 -0.45593999997E+02  0.45594000000E+02  0.51100000000E-03 0. -1.
    9900012    2    1    2    0    0 -0.40901567733E+02 -0.10164276915E+02 -0.10362060913E+02  0.47787273340E+02  0.20000010468E+02 0.  0.
        -12    1    1    2    0    0  0.40901567733E+02  0.10164276915E+02  0.10362060913E+02  0.43400726660E+02  0.00000000000E+00 0.  1.
         11    1    3    3    0    0 -0.10585618455E+02  0.21535327585E+01 -0.34430916777E+01  0.11337896718E+02  0.51100000000E-03 0. -1.
        -11    1    3    3    0    0 -0.35577016262E+01 -0.77164060670E+01 -0.29573499033E+00  0.85022128236E+01  0.51100000000E-03 0.  1.
        -12    1    3    3    0    0 -0.26758247652E+02 -0.46014036065E+01 -0.66232342449E+01  0.27947163799E+02  0.00000000000E+00 0.  1.
</event>
<event>
 7    1  0.1322363E-009  0.4778727E+02  0.7816164E-02  0.1312668E+00
        -11   -1    0    0    0    0  0.00000000000E+00  0.00000000000E+00  0.45593999997E+02  0.45594000000E+02  0.51100000000E-03 0.  1.
         11   -1    0    0    0    0 -0.00000000000E+00 -0.00000000000E+00 -0.45593999997E+02  0.45594000000E+02  0.51100000000E-03 0. -1.
    9900012    2    1    2    0    0  0.43283662414E+02  0.19318141876E+01 -0.25329650025E+01  0.47787271323E+02  0.20000001270E+02 0.  0.
        -12    1    1    2    0    0 -0.43283662414E+02 -0.19318141876E+01  0.25329650025E+01  0.43400728677E+02  0.00000000000E+00 0.  1.
         11    1    3    3    0    0  0.42601207400E+02  0.12854148717E+01 -0.68718411895E+01  0.43171024599E+02  0.51100000000E-03 0. -1.
        -11    1    3    3    0    0  0.55551866343E+00 -0.29303148520E+00  0.17291992600E+01  0.18397279089E+01  0.51100000000E-03 0.  1.
        -12    1    3    3    0    0  0.12693635004E+00  0.93943080105E+00  0.26096769269E+01  0.27765188150E+01  0.00000000000E+00 0.  1.
</event>
<event>
 7    1  0.1322363E-009  0.4778727E+02  0.7816164E-02  0.1312668E+00
        -11   -1    0    0    0    0  0.00000000000E+00  0.00000000000E+00  0.45593999997E+02  0.45594000000E+02  0.51100000000E-03 0. -1.
         11   -1    0    0    0    0 -0.00000000000E+00 -0.00000000000E+00 -0.45593999997E+02  0.45594000000E+02  0.51100000000E-03 0.  1.
    9900012    2    1    2    0    0 -0.37995590081E+02 -0.79622677786E+01  0.19405172191E+02  0.47787270956E+02  0.19999999598E+02 0.  0.
        -12    1    1    2    0    0  0.37995590081E+02  0.79622677786E+01 -0.19405172191E+02  0.43400729044E+02  0.00000000000E+00 0.  1.
         11    1    3    3    0    0 -0.91400108545E+01  0.32780341776E+01  0.42773565030E+01  0.10610423432E+02  0.51100000000E-03 0. -1.
        -11    1    3    3    0    0 -0.29967566346E+02 -0.87935879861E+01  0.13418248501E+02  0.33991640377E+02  0.51100000000E-03 0.  1.
        -12    1    3    3    0    0  0.11119871201E+01 -0.24467139701E+01  0.17095671868E+01  0.31852071475E+01  0.00000000000E+00 0.  1.
</event>
<event>
 7    1  0.1322363E-009  0.4778727E+02  0.7816164E-02  0.1312668E+00
        -11   -1    0    0    0    0  0.00000000000E+00  0.00000000000E+00  0.45593999997E+02  0.45594000000E+02  0.51100000000E-03 0.  1.
         11   -1    0    0    0    0 -0.00000000000E+00 -0.00000000000E+00 -0.45593999997E+02  0.45594000000E+02  0.51100000000E-03 0. -1.
    9900012    2    1    2    0    0  0.15681729025E+02  0.35509473189E+02 -0.19410923349E+02  0.47787271243E+02  0.20000000906E+02 0.  0.
        -12    1    1    2    0    0 -0.15681729025E+02 -0.35509473189E+02  0.19410923349E+02  0.43400728757E+02  0.00000000000E+00 0.  1.
         11    1    3    3    0    0  0.72148029453E+01  0.13814755908E+02 -0.49306803148E+01  0.16346634851E+02  0.51100000000E-03 0. -1.
        -11    1    3    3    0    0  0.13362174638E+01 -0.24173427585E+01 -0.15213490002E+01  0.31533357202E+01  0.51100000000E-03 0.  1.
        -12    1    3    3    0    0  0.71307086160E+01  0.24112060039E+02 -0.12958894034E+02  0.28287300672E+02  0.00000000000E+00 0.  1.
</event>
<event>
 7    1  0.1322363E-009  0.4778728E+02  0.7816164E-02  0.1312668E+00
        -11   -1    0    0    0    0  0.00000000000E+00  0.00000000000E+00  0.45593999997E+02  0.45594000000E+02  0.51100000000E-03 0. -1.
         11   -1    0    0    0    0 -0.00000000000E+00 -0.00000000000E+00 -0.45593999997E+02  0.45594000000E+02  0.51100000000E-03 0.  1.
    9900012    2    1    2    0    0  0.37222494871E+01 -0.38685383820E+02  0.19318613792E+02  0.47787275336E+02  0.20000019565E+02 0.  0.
        -12    1    1    2    0    0 -0.37222494871E+01  0.38685383820E+02 -0.19318613792E+02  0.43400724664E+02  0.00000000000E+00 0.  1.
         11    1    3    3    0    0 -0.38952214218E+01 -0.13663681784E+02  0.29189190446E+01  0.14504793638E+02  0.51100000000E-03 0. -1.
        -11    1    3    3    0    0  0.59800866330E+01 -0.76988274777E+01  0.57961384696E+00  0.97657223564E+01  0.51100000000E-03 0.  1.
        -12    1    3    3    0    0  0.16373842759E+01 -0.17322874559E+02  0.15820080900E+02  0.23516759341E+02  0.00000000000E+00 0.  1.
</event>
<event>
 7    1  0.1446956E-009  0.4778727E+02  0.7816164E-02  0.1312668E+00
        -11   -1    0    0    0    0  0.00000000000E+00  0.00000000000E+00  0.45593999997E+02  0.45594000000E+02  0.51100000000E-03 0.  1.
         11   -1    0    0    0    0 -0.00000000000E+00 -0.00000000000E+00 -0.45593999997E+02  0.45594000000E+02  0.51100000000E-03 0. -1.
    9900012    2    1    2    0    0 -0.29636542668E+02  0.30085093472E+02  0.10009301210E+02  0.47787267043E+02  0.19999981756E+02 0.  0.
        -12    1    1    2    0    0  0.29636542668E+02 -0.30085093472E+02 -0.10009301210E+02  0.43400732957E+02  0.00000000000E+00 0.  1.
         11    1    3    3    0    0 -0.16611280541E+02  0.10401728097E+02  0.12995129346E+02  0.23516036563E+02  0.51100000000E-03 0. -1.
        -11    1    3    3    0    0 -0.40187468336E+01  0.36001223342E+01 -0.21831413197E+01  0.58204220824E+01  0.51100000000E-03 0.  1.
         12    1    3    3    0    0 -0.90065152927E+01  0.16083243041E+02 -0.80268681617E+00  0.18450808398E+02  0.00000000000E+00 0. -1.
</event>
<event>
 7    1  0.1322363E-009  0.4778727E+02  0.7816164E-02  0.1312668E+00
        -11   -1    0    0    0    0  0.00000000000E+00  0.00000000000E+00  0.45593999997E+02  0.45594000000E+02  0.51100000000E-03 0.  1.
         11   -1    0    0    0    0 -0.00000000000E+00 -0.00000000000E+00 -0.45593999997E+02  0.45594000000E+02  0.51100000000E-03 0. -1.
    9900012    2    1    2    0    0 -0.43262030190E+02  0.44780387629E-01  0.34667045239E+01  0.47787270724E+02  0.19999998539E+02 0.  0.
        -12    1    1    2    0    0  0.43262030190E+02 -0.44780387629E-01 -0.34667045239E+01  0.43400729276E+02  0.00000000000E+00 0.  1.
         11    1    3    3    0    0 -0.16594914425E+02  0.50538490724E+01  0.64275713491E+01  0.18499898619E+02  0.51100000000E-03 0. -1.
        -11    1    3    3    0    0 -0.78149290414E+00 -0.29082623498E+01  0.60913070418E+00  0.30724194913E+01  0.51100000000E-03 0.  1.
        -12    1    3    3    0    0 -0.25885622861E+02 -0.21008063350E+01 -0.35699975295E+01  0.26214952613E+02  0.00000000000E+00 0.  1.
</event>
<event>
 7    1  0.1322363E-009  0.4778727E+02  0.7816164E-02  0.1312668E+00
        -11   -1    0    0    0    0  0.00000000000E+00  0.00000000000E+00  0.45593999997E+02  0.45594000000E+02  0.51100000000E-03 0.  1.
         11   -1    0    0    0    0 -0.00000000000E+00 -0.00000000000E+00 -0.45593999997E+02  0.45594000000E+02  0.51100000000E-03 0. -1.
    9900012    2    1    2    0    0  0.23475807195E+02  0.35758593209E+02 -0.73370843393E+01  0.47787270532E+02  0.19999997664E+02 0.  0.
        -12    1    1    2    0    0 -0.23475807195E+02 -0.35758593209E+02  0.73370843393E+01  0.43400729468E+02  0.00000000000E+00 0.  1.
         11    1    3    3    0    0  0.17743022782E+02  0.19765146751E+02 -0.30683181743E+01  0.26737435558E+02  0.51100000000E-03 0. -1.
        -11    1    3    3    0    0  0.71208060150E+01  0.14750948268E+02  0.13662336517E-01  0.16379760072E+02  0.51100000000E-03 0.  1.
         12    1    3    3    0    0 -0.13880216021E+01  0.12424981901E+01 -0.42824285015E+01  0.46700749020E+01  0.00000000000E+00 0. -1.
</event>
<event>
 7    1  0.1322363E-009  0.4778727E+02  0.7816164E-02  0.1312668E+00
        -11   -1    0    0    0    0  0.00000000000E+00  0.00000000000E+00  0.45593999997E+02  0.45594000000E+02  0.51100000000E-03 0.  1.
         11   -1    0    0    0    0 -0.00000000000E+00 -0.00000000000E+00 -0.45593999997E+02  0.45594000000E+02  0.51100000000E-03 0. -1.
    9900012    2    1    2    0    0  0.86524378181E+01 -0.29238257076E+01 -0.42428879446E+02  0.47787271342E+02  0.20000001357E+02 0.  0.
        -12    1    1    2    0    0 -0.86524378181E+01  0.29238257076E+01  0.42428879446E+02  0.43400728658E+02  0.00000000000E+00 0.  1.
         11    1    3    3    0    0  0.12335540649E+02 -0.37617009957E-01 -0.36857734705E+02  0.38867204504E+02  0.51100000000E-03 0. -1.
        -11    1    3    3    0    0 -0.59815947301E+00  0.58550228898E+00  0.71742522293E+00  0.11024095868E+01  0.51100000000E-03 0.  1.
         12    1    3    3    0    0 -0.30849433579E+01 -0.34717109867E+01 -0.62885699645E+01  0.78176572510E+01  0.00000000000E+00 0. -1.
</event>
<event>
 7    1  0.1322363E-009  0.4778727E+02  0.7816164E-02  0.1312668E+00
        -11   -1    0    0    0    0  0.00000000000E+00  0.00000000000E+00  0.45593999997E+02  0.45594000000E+02  0.51100000000E-03 0.  1.
         11   -1    0    0    0    0 -0.00000000000E+00 -0.00000000000E+00 -0.45593999997E+02  0.45594000000E+02  0.51100000000E-03 0. -1.
    9900012    2    1    2    0    0  0.37495470229E+02  0.26705674899E+01 -0.21692876744E+02  0.47787272819E+02  0.20000008089E+02 0.  0.
        -12    1    1    2    0    0 -0.37495470229E+02 -0.26705674899E+01  0.21692876744E+02  0.43400727181E+02  0.00000000000E+00 0.  1.
         11    1    3    3    0    0  0.26488889907E+02 -0.43109962087E+01 -0.17953420890E+02  0.32288872677E+02  0.51100000000E-03 0. -1.
        -11    1    3    3    0    0 -0.42253217399E+00  0.19008452744E+01 -0.21329537259E+01  0.28881201590E+01  0.51100000000E-03 0.  1.
        -12    1    3    3    0    0  0.11429112496E+02  0.50807184243E+01 -0.16065021284E+01  0.12610279983E+02  0.00000000000E+00 0.  1.
</event>
<event>
 7    1  0.1322363E-009  0.4778726E+02  0.7816164E-02  0.1312668E+00
        -11   -1    0    0    0    0  0.00000000000E+00  0.00000000000E+00  0.45593999997E+02  0.45594000000E+02  0.51100000000E-03 0. -1.
         11   -1    0    0    0    0 -0.00000000000E+00 -0.00000000000E+00 -0.45593999997E+02  0.45594000000E+02  0.51100000000E-03 0.  1.
    9900012    2    1    2    0    0  0.10459784467E+02  0.40929235770E+02  0.99506390030E+01  0.47787255209E+02  0.19999927800E+02 0.  0.
        -12    1    1    2    0    0 -0.10459784467E+02 -0.40929235770E+02 -0.99506390030E+01  0.43400744791E+02  0.00000000000E+00 0.  1.
         11    1    3    3    0    0  0.20998152322E+01  0.16816474672E+02  0.73160024874E+01  0.18458790238E+02  0.51100000000E-03 0. -1.
        -11    1    3    3    0    0  0.41712189203E+01  0.38565647944E+01  0.61220919280E+01  0.83517764057E+01  0.51100000000E-03 0.  1.
         12    1    3    3    0    0  0.41887503143E+01  0.20256196305E+02 -0.34874554125E+01  0.20976688566E+02  0.00000000000E+00 0. -1.
</event>
<event>
 7    1  0.1322363E-009  0.4778727E+02  0.7816164E-02  0.1312668E+00
        -11   -1    0    0    0    0  0.00000000000E+00  0.00000000000E+00  0.45593999997E+02  0.45594000000E+02  0.51100000000E-03 0. -1.
         11   -1    0    0    0    0 -0.00000000000E+00 -0.00000000000E+00 -0.45593999997E+02  0.45594000000E+02  0.51100000000E-03 0.  1.
    9900012    2    1    2    0    0 -0.25461408863E+02  0.55000764087E+01  0.34714393964E+02  0.47787270397E+02  0.19999997049E+02 0.  0.
        -12    1    1    2    0    0  0.25461408863E+02 -0.55000764087E+01 -0.34714393964E+02  0.43400729603E+02  0.00000000000E+00 0.  1.
         11    1    3    3    0    0 -0.13813375298E+02  0.11994441744E+02  0.16526563094E+02  0.24653666215E+02  0.51100000000E-03 0. -1.
        -11    1    3    3    0    0 -0.88037995198E+00 -0.23725438910E+01  0.18392063310E+01  0.31283723505E+01  0.51100000000E-03 0.  1.
         12    1    3    3    0    0 -0.10767653613E+02 -0.41218214441E+01  0.16348624538E+02  0.20005231832E+02  0.00000000000E+00 0. -1.
</event>
<event>
 7    1  0.1322363E-009  0.4778726E+02  0.7816164E-02  0.1312668E+00
        -11   -1    0    0    0    0  0.00000000000E+00  0.00000000000E+00  0.45593999997E+02  0.45594000000E+02  0.51100000000E-03 0. -1.
         11   -1    0    0    0    0 -0.00000000000E+00 -0.00000000000E+00 -0.45593999997E+02  0.45594000000E+02  0.51100000000E-03 0.  1.
    9900012    2    1    2    0    0  0.27545272332E+02 -0.33373912397E+02 -0.33262232317E+01  0.47787264782E+02  0.19999971446E+02 0.  0.
        -12    1    1    2    0    0 -0.27545272332E+02  0.33373912397E+02  0.33262232317E+01  0.43400735218E+02  0.00000000000E+00 0.  1.
         11    1    3    3    0    0  0.25046575751E+02 -0.29521950088E+02 -0.59117182633E+01  0.39164076741E+02  0.51100000000E-03 0. -1.
        -11    1    3    3    0    0  0.45656491253E+01 -0.95927098450E+00  0.16281465523E+01  0.49412765773E+01  0.51100000000E-03 0.  1.
         12    1    3    3    0    0 -0.20669525444E+01 -0.28926913238E+01  0.95734847926E+00  0.36819114637E+01  0.00000000000E+00 0. -1.
</event>
<event>
 7    1  0.1322363E-009  0.4778727E+02  0.7816164E-02  0.1312668E+00
        -11   -1    0    0    0    0  0.00000000000E+00  0.00000000000E+00  0.45593999997E+02  0.45594000000E+02  0.51100000000E-03 0. -1.
         11   -1    0    0    0    0 -0.00000000000E+00 -0.00000000000E+00 -0.45593999997E+02  0.45594000000E+02  0.51100000000E-03 0.  1.
    9900012    2    1    2    0    0 -0.73124455361E+01 -0.12064573106E+02  0.41043852256E+02  0.47787267380E+02  0.19999983291E+02 0.  0.
        -12    1    1    2    0    0  0.73124455361E+01  0.12064573106E+02 -0.41043852256E+02  0.43400732620E+02  0.00000000000E+00 0.  1.
         11    1    3    3    0    0 -0.72905842101E+00  0.37820128072E+01  0.16056856019E+02  0.16512352120E+02  0.51100000000E-03 0. -1.
        -11    1    3    3    0    0 -0.28072778405E+01 -0.59194469124E+01  0.37971744535E+01  0.75722648339E+01  0.51100000000E-03 0.  1.
         12    1    3    3    0    0 -0.37761092746E+01 -0.99271390003E+01  0.21189821783E+02  0.23702650426E+02  0.00000000000E+00 0. -1.
</event>
<event>
 7    1  0.1790834E-009  0.4778727E+02  0.7816164E-02  0.1312668E+00
        -11   -1    0    0    0    0  0.00000000000E+00  0.00000000000E+00  0.45593999997E+02  0.45594000000E+02  0.51100000000E-03 0.  1.
         11   -1    0    0    0    0 -0.00000000000E+00 -0.00000000000E+00 -0.45593999997E+02  0.45594000000E+02  0.51100000000E-03 0. -1.
    9900012    2    1    2    0    0 -0.75984291471E+00  0.37870574579E+02 -0.21186451181E+02  0.47787268511E+02  0.19999988447E+02 0.  0.
        -12    1    1    2    0    0  0.75984291471E+00 -0.37870574579E+02  0.21186451181E+02  0.43400731489E+02  0.00000000000E+00 0.  1.
         11    1    3    3    0    0  0.15822336492E+01  0.20570886785E+02 -0.43413269602E+01  0.21083452432E+02  0.51100000000E-03 0. -1.
        -11    1    3    3    0    0 -0.50224108234E+01  0.37438822936E+01 -0.23853036137E+01  0.67030544305E+01  0.51100000000E-03 0.  1.
         12    1    3    3    0    0  0.26803342595E+01  0.13555805500E+02 -0.14459820607E+02  0.20000761648E+02  0.00000000000E+00 0. -1.
</event>
<event>
 7    1  0.1322363E-009  0.4778728E+02  0.7816164E-02  0.1312668E+00
        -11   -1    0    0    0    0  0.00000000000E+00  0.00000000000E+00  0.45593999997E+02  0.45594000000E+02  0.51100000000E-03 0. -1.
         11   -1    0    0    0    0 -0.00000000000E+00 -0.00000000000E+00 -0.45593999997E+02  0.45594000000E+02  0.51100000000E-03 0.  1.
    9900012    2    1    2    0    0 -0.90860524455E+01  0.34084409029E+02  0.25284770067E+02  0.47787275522E+02  0.20000020415E+02 0.  0.
        -12    1    1    2    0    0  0.90860524455E+01 -0.34084409029E+02 -0.25284770067E+02  0.43400724478E+02  0.00000000000E+00 0.  1.
         11    1    3    3    0    0  0.30801581912E+01  0.42533880649E+01  0.80945582014E+01  0.96488630030E+01  0.51100000000E-03 0.  1.
        -11    1    3    3    0    0 -0.83484693481E+01  0.12440922862E+02  0.13027091284E+02  0.19853931845E+02  0.51100000000E-03 0. -1.
        -12    1    3    3    0    0 -0.38177412887E+01  0.17390098102E+02  0.41631205809E+01  0.18284480674E+02  0.00000000000E+00 0.  1.
</event>
<event>
 7    1  0.1322363E-009  0.4778727E+02  0.7816164E-02  0.1312668E+00
        -11   -1    0    0    0    0  0.00000000000E+00  0.00000000000E+00  0.45593999997E+02  0.45594000000E+02  0.51100000000E-03 0. -1.
         11   -1    0    0    0    0 -0.00000000000E+00 -0.00000000000E+00 -0.45593999997E+02  0.45594000000E+02  0.51100000000E-03 0.  1.
    9900012    2    1    2    0    0  0.85779991444E+01  0.34541864267E+02  0.24837492968E+02  0.47787268287E+02  0.19999987426E+02 0.  0.
        -12    1    1    2    0    0 -0.85779991444E+01 -0.34541864267E+02 -0.24837492968E+02  0.43400731713E+02  0.00000000000E+00 0.  1.
         11    1    3    3    0    0  0.70766842745E+00  0.54020854436E+01  0.40050436477E+01  0.67619299482E+01  0.51100000000E-03 0. -1.
        -11    1    3    3    0    0  0.44381386552E+01 -0.12749234105E+01  0.39121201251E+01  0.60520400329E+01  0.51100000000E-03 0.  1.
        -12    1    3    3    0    0  0.34321920618E+01  0.30414702234E+02  0.16920329195E+02  0.34973298306E+02  0.00000000000E+00 0.  1.
</event>
<event>
 7    1  0.1322363E-009  0.4778728E+02  0.7816164E-02  0.1312668E+00
        -11   -1    0    0    0    0  0.00000000000E+00  0.00000000000E+00  0.45593999997E+02  0.45594000000E+02  0.51100000000E-03 0.  1.
         11   -1    0    0    0    0 -0.00000000000E+00 -0.00000000000E+00 -0.45593999997E+02  0.45594000000E+02  0.51100000000E-03 0. -1.
    9900012    2    1    2    0    0  0.34980630718E+02  0.15941170935E+02 -0.20145902363E+02  0.47787276063E+02  0.20000022882E+02 0.  0.
        -12    1    1    2    0    0 -0.34980630718E+02 -0.15941170935E+02  0.20145902363E+02  0.43400723937E+02  0.00000000000E+00 0.  1.
         11    1    3    3    0    0  0.82254879126E+01  0.10002548120E+02 -0.13741425327E+02  0.18882171236E+02  0.51100000000E-03 0. -1.
        -11    1    3    3    0    0  0.96152964056E+01  0.49318035675E+01 -0.76545914557E+00  0.10833399252E+02  0.51100000000E-03 0.  1.
         12    1    3    3    0    0  0.17139846400E+02  0.10068192477E+01 -0.56390178903E+01  0.18071705575E+02  0.00000000000E+00 0. -1.
</event>
<event>
 7    1  0.1322363E-009  0.4778727E+02  0.7816164E-02  0.1312668E+00
        -11   -1    0    0    0    0  0.00000000000E+00  0.00000000000E+00  0.45593999997E+02  0.45594000000E+02  0.51100000000E-03 0.  1.
         11   -1    0    0    0    0 -0.00000000000E+00 -0.00000000000E+00 -0.45593999997E+02  0.45594000000E+02  0.51100000000E-03 0. -1.
    9900012    2    1    2    0    0 -0.18940130062E+02  0.14999452048E+02 -0.36054279952E+02  0.47787271995E+02  0.20000004334E+02 0.  0.
        -12    1    1    2    0    0  0.18940130062E+02 -0.14999452048E+02  0.36054279952E+02  0.43400728005E+02  0.00000000000E+00 0.  1.
         11    1    3    3    0    0 -0.66467211244E+01  0.21429914606E+01 -0.15855894970E+02  0.17325724218E+02  0.51100000000E-03 0. -1.
        -11    1    3    3    0    0 -0.42019039367E+01  0.14011692491E+02 -0.13028667228E+02  0.19589019709E+02  0.51100000000E-03 0.  1.
         12    1    3    3    0    0 -0.80915050012E+01 -0.11552319035E+01 -0.71697177538E+01  0.10872528069E+02  0.00000000000E+00 0. -1.
</event>
<event>
 7    1  0.1322363E-009  0.4778728E+02  0.7816164E-02  0.1312668E+00
        -11   -1    0    0    0    0  0.00000000000E+00  0.00000000000E+00  0.45593999997E+02  0.45594000000E+02  0.51100000000E-03 0. -1.
         11   -1    0    0    0    0 -0.00000000000E+00 -0.00000000000E+00 -0.45593999997E+02  0.45594000000E+02  0.51100000000E-03 0.  1.
    9900012    2    1    2    0    0 -0.59416042070E+01 -0.41792093211E+02 -0.10086661451E+02  0.47787280482E+02  0.20000043028E+02 0.  0.
        -12    1    1    2    0    0  0.59416042070E+01  0.41792093211E+02  0.10086661451E+02  0.43400719518E+02  0.00000000000E+00 0.  1.
         11    1    3    3    0    0  0.11869596207E+01 -0.23068325681E+02 -0.62249255837E+01  0.23922922515E+02  0.51100000000E-03 0. -1.
        -11    1    3    3    0    0  0.14758515353E+01  0.11284296018E+01 -0.75673139833E+00  0.20060243744E+01  0.51100000000E-03 0.  1.
         12    1    3    3    0    0 -0.86044153630E+01 -0.19852197131E+02 -0.31050044691E+01  0.21858333592E+02  0.00000000000E+00 0. -1.
</event>
<event>
 7    1  0.1322363E-009  0.4778727E+02  0.7816164E-02  0.1312668E+00
        -11   -1    0    0    0    0  0.00000000000E+00  0.00000000000E+00  0.45593999997E+02  0.45594000000E+02  0.51100000000E-03 0. -1.
         11   -1    0    0    0    0 -0.00000000000E+00 -0.00000000000E+00 -0.45593999997E+02  0.45594000000E+02  0.51100000000E-03 0.  1.
    9900012    2    1    2    0    0 -0.62808934218E+01 -0.29246484266E+02 -0.31445456899E+02  0.47787271623E+02  0.20000002636E+02 0.  0.
        -12    1    1    2    0    0  0.62808934218E+01  0.29246484266E+02  0.31445456899E+02  0.43400728377E+02  0.00000000000E+00 0.  1.
         11    1    3    3    0    0  0.32331476405E+01 -0.69040161202E+01 -0.49324459371E+01  0.90800718850E+01  0.51100000000E-03 0.  1.
        -11    1    3    3    0    0 -0.88752722404E+01 -0.11603952791E+02 -0.65075170987E+01  0.15992809534E+02  0.51100000000E-03 0. -1.
         12    1    3    3    0    0 -0.63876882192E+00 -0.10738515355E+02 -0.20005493863E+02  0.22714390204E+02  0.00000000000E+00 0. -1.
</event>
<event>
 7    1  0.1322363E-009  0.4778728E+02  0.7816164E-02  0.1312668E+00
        -11   -1    0    0    0    0  0.00000000000E+00  0.00000000000E+00  0.45593999997E+02  0.45594000000E+02  0.51100000000E-03 0. -1.
         11   -1    0    0    0    0 -0.00000000000E+00 -0.00000000000E+00 -0.45593999997E+02  0.45594000000E+02  0.51100000000E-03 0.  1.
    9900012    2    1    2    0    0 -0.39850731230E+02  0.43845888323E+01  0.16622780971E+02  0.47787282886E+02  0.20000053990E+02 0.  0.
        -12    1    1    2    0    0  0.39850731230E+02 -0.43845888323E+01 -0.16622780971E+02  0.43400717114E+02  0.00000000000E+00 0.  1.
         11    1    3    3    0    0 -0.27869062034E+02  0.15277375609E+01  0.75388225397E+01  0.28911112850E+02  0.51100000000E-03 0. -1.
        -11    1    3    3    0    0 -0.12357194461E+02  0.32891909147E+01  0.11005396018E+02  0.16871211385E+02  0.51100000000E-03 0.  1.
         12    1    3    3    0    0  0.37552526522E+00 -0.43233964329E+00 -0.19214375864E+01  0.20049586505E+01  0.00000000000E+00 0. -1.
</event>
<event>
 7    1  0.1322363E-009  0.4778727E+02  0.7816164E-02  0.1312668E+00
        -11   -1    0    0    0    0  0.00000000000E+00  0.00000000000E+00  0.45593999997E+02  0.45594000000E+02  0.51100000000E-03 0.  1.
         11   -1    0    0    0    0 -0.00000000000E+00 -0.00000000000E+00 -0.45593999997E+02  0.45594000000E+02  0.51100000000E-03 0. -1.
    9900012    2    1    2    0    0 -0.43740588162E+01  0.20866727604E+02 -0.37803052004E+02  0.47787268989E+02  0.19999990628E+02 0.  0.
        -12    1    1    2    0    0  0.43740588162E+01 -0.20866727604E+02  0.37803052004E+02  0.43400731011E+02  0.00000000000E+00 0.  1.
         11    1    3    3    0    0  0.77562369310E+00  0.10759051928E+02 -0.26744819408E+02  0.28838241207E+02  0.51100000000E-03 0. -1.
        -11    1    3    3    0    0 -0.45426710548E+01  0.12278374647E+02 -0.99090691474E+01  0.16419013244E+02  0.51100000000E-03 0.  1.
        -12    1    3    3    0    0 -0.60701145444E+00 -0.21706989708E+01 -0.11491634492E+01  0.25300145376E+01  0.00000000000E+00 0.  1.
</event>
<event>
 7    1  0.1322363E-009  0.4778727E+02  0.7816164E-02  0.1312668E+00
        -11   -1    0    0    0    0  0.00000000000E+00  0.00000000000E+00  0.45593999997E+02  0.45594000000E+02  0.51100000000E-03 0.  1.
         11   -1    0    0    0    0 -0.00000000000E+00 -0.00000000000E+00 -0.45593999997E+02  0.45594000000E+02  0.51100000000E-03 0. -1.
    9900012    2    1    2    0    0 -0.12086835449E+02  0.22453311263E+01 -0.41623190217E+02  0.47787273429E+02  0.20000010872E+02 0.  0.
        -12    1    1    2    0    0  0.12086835449E+02 -0.22453311263E+01  0.41623190217E+02  0.43400726571E+02  0.00000000000E+00 0.  1.
         11    1    3    3    0    0  0.31792909338E+01  0.21078744236E+01 -0.28430658153E+01  0.47575255037E+01  0.51100000000E-03 0. -1.
        -11    1    3    3    0    0 -0.17164079872E+01  0.18483855049E+01 -0.76512275695E+00  0.26359056220E+01  0.51100000000E-03 0.  1.
         12    1    3    3    0    0 -0.13549718395E+02 -0.17109288023E+01 -0.38015001645E+02  0.40393842303E+02  0.00000000000E+00 0. -1.
</event>
<event>
 7    1  0.1322363E-009  0.4778728E+02  0.7816164E-02  0.1312668E+00
        -11   -1    0    0    0    0  0.00000000000E+00  0.00000000000E+00  0.45593999997E+02  0.45594000000E+02  0.51100000000E-03 0. -1.
         11   -1    0    0    0    0 -0.00000000000E+00 -0.00000000000E+00 -0.45593999997E+02  0.45594000000E+02  0.51100000000E-03 0.  1.
    9900012    2    1    2    0    0  0.42720310069E+02  0.53796532108E+01 -0.54458364449E+01  0.47787277706E+02  0.20000030371E+02 0.  0.
        -12    1    1    2    0    0 -0.42720310069E+02 -0.53796532108E+01  0.54458364449E+01  0.43400722294E+02  0.00000000000E+00 0.  1.
         11    1    3    3    0    0  0.16929785777E+02  0.13859693206E+01 -0.43722001791E+01  0.17540088143E+02  0.51100000000E-03 0. -1.
        -11    1    3    3    0    0  0.12253968126E+02  0.31800659259E+01 -0.80444078772E+01  0.14999501742E+02  0.51100000000E-03 0.  1.
         12    1    3    3    0    0  0.13536556166E+02  0.81361796423E+00  0.69707716114E+01  0.15247687821E+02  0.00000000000E+00 0. -1.
</event>
<event>
 7    1  0.1322363E-009  0.4778726E+02  0.7816164E-02  0.1312668E+00
        -11   -1    0    0    0    0  0.00000000000E+00  0.00000000000E+00  0.45593999997E+02  0.45594000000E+02  0.51100000000E-03 0.  1.
         11   -1    0    0    0    0 -0.00000000000E+00 -0.00000000000E+00 -0.45593999997E+02  0.45594000000E+02  0.51100000000E-03 0. -1.
    9900012    2    1    2    0    0 -0.23160894517E+02  0.28359690107E+02 -0.23300751514E+02  0.47787261770E+02  0.19999957713E+02 0.  0.
        -12    1    1    2    0    0  0.23160894517E+02 -0.28359690107E+02  0.23300751514E+02  0.43400738230E+02  0.00000000000E+00 0.  1.
         11    1    3    3    0    0 -0.16145559685E+02  0.13433434379E+02 -0.15363813417E+02  0.26022740435E+02  0.51100000000E-03 0. -1.
        -11    1    3    3    0    0  0.49754862286E+00 -0.17781557118E+01 -0.13986717428E+01  0.23163927285E+01  0.51100000000E-03 0.  1.
         12    1    3    3    0    0 -0.75128834546E+01  0.16704411440E+02 -0.65382663542E+01  0.19448128606E+02  0.00000000000E+00 0. -1.
</event>
<event>
 7    1  0.1322363E-009  0.4778727E+02  0.7816164E-02  0.1312668E+00
        -11   -1    0    0    0    0  0.00000000000E+00  0.00000000000E+00  0.45593999997E+02  0.45594000000E+02  0.51100000000E-03 0. -1.
         11   -1    0    0    0    0 -0.00000000000E+00 -0.00000000000E+00 -0.45593999997E+02  0.45594000000E+02  0.51100000000E-03 0.  1.
    9900012    2    1    2    0    0 -0.40180382833E+02  0.10208250301E+02  0.12843358753E+02  0.47787269559E+02  0.19999993226E+02 0.  0.
        -12    1    1    2    0    0  0.40180382833E+02 -0.10208250301E+02 -0.12843358753E+02  0.43400730441E+02  0.00000000000E+00 0.  1.
         11    1    3    3    0    0 -0.15390662918E+02  0.10273517339E+02  0.34336587857E+01  0.18820405853E+02  0.51100000000E-03 0. -1.
        -11    1    3    3    0    0 -0.28215846579E+01  0.13528492466E-01 -0.26801170211E+01  0.38915999935E+01  0.51100000000E-03 0.  1.
         12    1    3    3    0    0 -0.21968135257E+02 -0.78795530941E-01  0.12089816988E+02  0.25075263712E+02  0.00000000000E+00 0. -1.
</event>
<event>
 7    1  0.1322363E-009  0.4778727E+02  0.7816164E-02  0.1312668E+00
        -11   -1    0    0    0    0  0.00000000000E+00  0.00000000000E+00  0.45593999997E+02  0.45594000000E+02  0.51100000000E-03 0.  1.
         11   -1    0    0    0    0 -0.00000000000E+00 -0.00000000000E+00 -0.45593999997E+02  0.45594000000E+02  0.51100000000E-03 0. -1.
    9900012    2    1    2    0    0 -0.11001802913E+02 -0.21276030588E+02 -0.36192740033E+02  0.47787267563E+02  0.19999984128E+02 0.  0.
        -12    1    1    2    0    0  0.11001802913E+02  0.21276030588E+02  0.36192740033E+02  0.43400732437E+02  0.00000000000E+00 0.  1.
         11    1    3    3    0    0 -0.23569006457E+01 -0.14492813030E+02 -0.16143263858E+02  0.21822043406E+02  0.51100000000E-03 0. -1.
        -11    1    3    3    0    0 -0.92323258449E+01 -0.13536816927E+01 -0.17722611915E+02  0.20028960732E+02  0.51100000000E-03 0.  1.
         12    1    3    3    0    0  0.58742357754E+00 -0.54295358648E+01 -0.23268642605E+01  0.59362634252E+01  0.00000000000E+00 0. -1.
</event>
<event>
 7    1  0.1322363E-009  0.4778727E+02  0.7816164E-02  0.1312668E+00
        -11   -1    0    0    0    0  0.00000000000E+00  0.00000000000E+00  0.45593999997E+02  0.45594000000E+02  0.51100000000E-03 0. -1.
         11   -1    0    0    0    0 -0.00000000000E+00 -0.00000000000E+00 -0.45593999997E+02  0.45594000000E+02  0.51100000000E-03 0.  1.
    9900012    2    1    2    0    0 -0.21033449362E+01 -0.14577887400E+02  0.40825046134E+02  0.47787271287E+02  0.20000001107E+02 0.  0.
        -12    1    1    2    0    0  0.21033449362E+01  0.14577887400E+02 -0.40825046134E+02  0.43400728713E+02  0.00000000000E+00 0.  1.
         11    1    3    3    0    0 -0.47273755139E+01 -0.62979705637E+01  0.79315143830E+01  0.11176825718E+02  0.51100000000E-03 0. -1.
        -11    1    3    3    0    0  0.79281192866E+01 -0.60472241864E+01  0.17017564001E+02  0.19723627470E+02  0.51100000000E-03 0.  1.
         12    1    3    3    0    0 -0.53040887089E+01 -0.22326926497E+01  0.15875967751E+02  0.16886818099E+02  0.00000000000E+00 0. -1.
</event>
<event>
 7    1  0.1322363E-009  0.4778727E+02  0.7816164E-02  0.1312668E+00
        -11   -1    0    0    0    0  0.00000000000E+00  0.00000000000E+00  0.45593999997E+02  0.45594000000E+02  0.51100000000E-03 0.  1.
         11   -1    0    0    0    0 -0.00000000000E+00 -0.00000000000E+00 -0.45593999997E+02  0.45594000000E+02  0.51100000000E-03 0. -1.
    9900012    2    1    2    0    0 -0.39395302791E+02 -0.17996325261E+02 -0.27866713502E+01  0.47787272562E+02  0.20000006919E+02 0.  0.
        -12    1    1    2    0    0  0.39395302791E+02  0.17996325261E+02  0.27866713502E+01  0.43400727438E+02  0.00000000000E+00 0.  1.
         11    1    3    3    0    0 -0.12357168971E+02 -0.76036034037E+01 -0.57827490195E+01  0.15619045944E+02  0.51100000000E-03 0. -1.
        -11    1    3    3    0    0 -0.34993917720E+01 -0.11984391751E+01 -0.44849258611E+01  0.58134808395E+01  0.51100000000E-03 0.  1.
        -12    1    3    3    0    0 -0.23538742048E+02 -0.91942826823E+01  0.74810035304E+01  0.26354745779E+02  0.00000000000E+00 0.  1.
</event>
<event>
 7    1  0.1322363E-009  0.4778727E+02  0.7816164E-02  0.1312668E+00
        -11   -1    0    0    0    0  0.00000000000E+00  0.00000000000E+00  0.45593999997E+02  0.45594000000E+02  0.51100000000E-03 0.  1.
         11   -1    0    0    0    0 -0.00000000000E+00 -0.00000000000E+00 -0.45593999997E+02  0.45594000000E+02  0.51100000000E-03 0. -1.
    9900012    2    1    2    0    0 -0.12972130531E+02  0.34285159562E+02 -0.23235207324E+02  0.47787271941E+02  0.20000004087E+02 0.  0.
        -12    1    1    2    0    0  0.12972130531E+02 -0.34285159562E+02  0.23235207324E+02  0.43400728059E+02  0.00000000000E+00 0.  1.
         11    1    3    3    0    0 -0.18964988556E+01  0.44460585341E+01 -0.10990044922E+01  0.49570107457E+01  0.51100000000E-03 0. -1.
        -11    1    3    3    0    0 -0.13859784138E+02  0.23568402867E+02 -0.10433591884E+02  0.29264706899E+02  0.51100000000E-03 0.  1.
         12    1    3    3    0    0  0.27841524623E+01  0.62706981610E+01 -0.11702610948E+02  0.13565554296E+02  0.00000000000E+00 0. -1.
</event>
<event>
 7    1  0.1322363E-009  0.4778727E+02  0.7816164E-02  0.1312668E+00
        -11   -1    0    0    0    0  0.00000000000E+00  0.00000000000E+00  0.45593999997E+02  0.45594000000E+02  0.51100000000E-03 0. -1.
         11   -1    0    0    0    0 -0.00000000000E+00 -0.00000000000E+00 -0.45593999997E+02  0.45594000000E+02  0.51100000000E-03 0.  1.
    9900012    2    1    2    0    0  0.91907390296E+01 -0.13526668106E+02  0.40201782431E+02  0.47787265622E+02  0.19999975275E+02 0.  0.
        -12    1    1    2    0    0 -0.91907390296E+01  0.13526668106E+02 -0.40201782431E+02  0.43400734378E+02  0.00000000000E+00 0.  1.
         11    1    3    3    0    0  0.49472232665E+01 -0.85191054140E+01  0.30990141836E+02  0.32518288183E+02  0.51100000000E-03 0. -1.
        -11    1    3    3    0    0  0.60871322894E+01 -0.70914510422E+01  0.76561976582E+01  0.12081358377E+02  0.51100000000E-03 0.  1.
         12    1    3    3    0    0 -0.18436165262E+01  0.20838883498E+01  0.15554429368E+01  0.31876190613E+01  0.00000000000E+00 0. -1.
</event>
<event>
 7    1  0.1322363E-009  0.4778727E+02  0.7816164E-02  0.1312668E+00
        -11   -1    0    0    0    0  0.00000000000E+00  0.00000000000E+00  0.45593999997E+02  0.45594000000E+02  0.51100000000E-03 0. -1.
         11   -1    0    0    0    0 -0.00000000000E+00 -0.00000000000E+00 -0.45593999997E+02  0.45594000000E+02  0.51100000000E-03 0.  1.
    9900012    2    1    2    0    0 -0.32763018406E+02 -0.21423041947E+02  0.18741971021E+02  0.47787267529E+02  0.19999983970E+02 0.  0.
        -12    1    1    2    0    0  0.32763018406E+02  0.21423041947E+02 -0.18741971021E+02  0.43400732471E+02  0.00000000000E+00 0.  1.
         11    1    3    3    0    0 -0.22788248337E+02 -0.12269353893E+02  0.12062905040E+02  0.28554421470E+02  0.51100000000E-03 0. -1.
        -11    1    3    3    0    0 -0.29386003882E+01 -0.89733093690E+01  0.76177930882E+01  0.12132041257E+02  0.51100000000E-03 0.  1.
         12    1    3    3    0    0 -0.70361696803E+01 -0.18037868466E+00 -0.93872710769E+00  0.71008048010E+01  0.00000000000E+00 0. -1.
</event>
<event>
 7    1  0.1322363E-009  0.4778726E+02  0.7816164E-02  0.1312668E+00
        -11   -1    0    0    0    0  0.00000000000E+00  0.00000000000E+00  0.45593999997E+02  0.45594000000E+02  0.51100000000E-03 0.  1.
         11   -1    0    0    0    0 -0.00000000000E+00 -0.00000000000E+00 -0.45593999997E+02  0.45594000000E+02  0.51100000000E-03 0. -1.
    9900012    2    1    2    0    0  0.26605524888E+02 -0.43848428229E+01 -0.34007987334E+02  0.47787262637E+02  0.19999961666E+02 0.  0.
        -12    1    1    2    0    0 -0.26605524888E+02  0.43848428229E+01  0.34007987334E+02  0.43400737363E+02  0.00000000000E+00 0.  1.
         11    1    3    3    0    0  0.89343064049E+01 -0.41737131113E+01 -0.20499230567E+02  0.22747750794E+02  0.51100000000E-03 0. -1.
        -11    1    3    3    0    0  0.13925929100E+02  0.41474416286E+01 -0.12577502232E+02  0.19217865022E+02  0.51100000000E-03 0.  1.
        -12    1    3    3    0    0  0.37452893834E+01 -0.43585713402E+01 -0.93125453477E+00  0.58216468204E+01  0.00000000000E+00 0.  1.
</event>
<event>
 7    1  0.1322363E-009  0.4778727E+02  0.7816164E-02  0.1312668E+00
        -11   -1    0    0    0    0  0.00000000000E+00  0.00000000000E+00  0.45593999997E+02  0.45594000000E+02  0.51100000000E-03 0.  1.
         11   -1    0    0    0    0 -0.00000000000E+00 -0.00000000000E+00 -0.45593999997E+02  0.45594000000E+02  0.51100000000E-03 0. -1.
    9900012    2    1    2    0    0  0.20415740013E+02  0.26693180384E+02 -0.27464433268E+02  0.47787269430E+02  0.19999992638E+02 0.  0.
        -12    1    1    2    0    0 -0.20415740013E+02 -0.26693180384E+02  0.27464433268E+02  0.43400730570E+02  0.00000000000E+00 0.  1.
         11    1    3    3    0    0  0.61946586677E+01  0.34152610687E+01 -0.61551545794E+01  0.93767655583E+01  0.51100000000E-03 0. -1.
        -11    1    3    3    0    0 -0.24485580297E+01  0.27436798160E+01  0.99831857143E+00  0.38104928276E+01  0.51100000000E-03 0.  1.
        -12    1    3    3    0    0  0.16669639375E+02  0.20534239500E+02 -0.22307597260E+02  0.34600011044E+02  0.00000000000E+00 0.  1.
</event>
<event>
 7    1  0.1322363E-009  0.4778727E+02  0.7816164E-02  0.1312668E+00
        -11   -1    0    0    0    0  0.00000000000E+00  0.00000000000E+00  0.45593999997E+02  0.45594000000E+02  0.51100000000E-03 0. -1.
         11   -1    0    0    0    0 -0.00000000000E+00 -0.00000000000E+00 -0.45593999997E+02  0.45594000000E+02  0.51100000000E-03 0.  1.
    9900012    2    1    2    0    0  0.42801545810E+02  0.52337788990E+01  0.49253005235E+01  0.47787270162E+02  0.19999995975E+02 0.  0.
        -12    1    1    2    0    0 -0.42801545810E+02 -0.52337788990E+01 -0.49253005235E+01  0.43400729838E+02  0.00000000000E+00 0.  1.
         11    1    3    3    0    0  0.21718028019E+02 -0.13718151977E+01  0.33204956852E+01  0.22013184909E+02  0.51100000000E-03 0. -1.
        -11    1    3    3    0    0  0.15637039181E+02  0.56483896244E+00 -0.36803094799E+01  0.16074225193E+02  0.51100000000E-03 0.  1.
         12    1    3    3    0    0  0.54464786095E+01  0.60407551342E+01  0.52851143182E+01  0.96998600604E+01  0.00000000000E+00 0. -1.
</event>
<event>
 7    1  0.1322363E-009  0.4778728E+02  0.7816164E-02  0.1312668E+00
        -11   -1    0    0    0    0  0.00000000000E+00  0.00000000000E+00  0.45593999997E+02  0.45594000000E+02  0.51100000000E-03 0.  1.
         11   -1    0    0    0    0 -0.00000000000E+00 -0.00000000000E+00 -0.45593999997E+02  0.45594000000E+02  0.51100000000E-03 0. -1.
    9900012    2    1    2    0    0  0.21652314706E+02 -0.76654929311E+01 -0.36824448866E+02  0.47787279403E+02  0.20000038111E+02 0.  0.
        -12    1    1    2    0    0 -0.21652314706E+02  0.76654929311E+01  0.36824448866E+02  0.43400720597E+02  0.00000000000E+00 0.  1.
         11    1    3    3    0    0  0.94085130245E+01 -0.40480385013E+00 -0.44562205194E+01  0.10418343682E+02  0.51100000000E-03 0. -1.
        -11    1    3    3    0    0  0.11811432333E+02 -0.18789899706E+01 -0.15020210074E+02  0.19200188749E+02  0.51100000000E-03 0.  1.
        -12    1    3    3    0    0  0.43236934905E+00 -0.53816991103E+01 -0.17348018273E+02  0.18168746973E+02  0.00000000000E+00 0.  1.
</event>
<event>
 7    1  0.1322363E-009  0.4778726E+02  0.7816164E-02  0.1312668E+00
        -11   -1    0    0    0    0  0.00000000000E+00  0.00000000000E+00  0.45593999997E+02  0.45594000000E+02  0.51100000000E-03 0.  1.
         11   -1    0    0    0    0 -0.00000000000E+00 -0.00000000000E+00 -0.45593999997E+02  0.45594000000E+02  0.51100000000E-03 0. -1.
    9900012    2    1    2    0    0  0.40393078471E+02 -0.11869052945E+02 -0.10542704717E+02  0.47787264649E+02  0.19999970843E+02 0.  0.
        -12    1    1    2    0    0 -0.40393078471E+02  0.11869052945E+02  0.10542704717E+02  0.43400735351E+02  0.00000000000E+00 0.  1.
         11    1    3    3    0    0  0.80400839828E+01 -0.55038009757E+01  0.28475403313E+01  0.10151022699E+02  0.51100000000E-03 0.  1.
        -11    1    3    3    0    0  0.27835689748E+02 -0.83889189157E+01 -0.76607841024E+01  0.30064716823E+02  0.51100000000E-03 0. -1.
        -12    1    3    3    0    0  0.45173047408E+01  0.20236669462E+01 -0.57294609461E+01  0.75715251279E+01  0.00000000000E+00 0.  1.
</event>
<event>
 7    1  0.1322363E-009  0.4778727E+02  0.7816164E-02  0.1312668E+00
        -11   -1    0    0    0    0  0.00000000000E+00  0.00000000000E+00  0.45593999997E+02  0.45594000000E+02  0.51100000000E-03 0.  1.
         11   -1    0    0    0    0 -0.00000000000E+00 -0.00000000000E+00 -0.45593999997E+02  0.45594000000E+02  0.51100000000E-03 0. -1.
    9900012    2    1    2    0    0 -0.15441444694E+01  0.28209516225E+02 -0.32946354588E+02  0.47787268803E+02  0.19999989778E+02 0.  0.
        -12    1    1    2    0    0  0.15441444694E+01 -0.28209516225E+02  0.32946354588E+02  0.43400731197E+02  0.00000000000E+00 0.  1.
         11    1    3    3    0    0 -0.21259139110E+01  0.27011083932E+02 -0.22834869040E+02  0.35433732649E+02  0.51100000000E-03 0. -1.
        -11    1    3    3    0    0 -0.22382393217E+01  0.14633131764E+01 -0.10725484349E+01  0.28812082743E+01  0.51100000000E-03 0.  1.
        -12    1    3    3    0    0  0.28200087633E+01 -0.26488088283E+00 -0.90389371134E+01  0.94723278790E+01  0.00000000000E+00 0.  1.
</event>
<event>
 7    1  0.1322363E-009  0.4778725E+02  0.7816164E-02  0.1312668E+00
        -11   -1    0    0    0    0  0.00000000000E+00  0.00000000000E+00  0.45593999997E+02  0.45594000000E+02  0.51100000000E-03 0.  1.
         11   -1    0    0    0    0 -0.00000000000E+00 -0.00000000000E+00 -0.45593999997E+02  0.45594000000E+02  0.51100000000E-03 0. -1.
    9900012    2    1    2    0    0 -0.65065320351E+01  0.41527454269E+02 -0.10805568663E+02  0.47787254253E+02  0.19999923443E+02 0.  0.
        -12    1    1    2    0    0  0.65065320351E+01 -0.41527454269E+02  0.10805568663E+02  0.43400745747E+02  0.00000000000E+00 0.  1.
         11    1    3    3    0    0  0.16606296370E+01  0.10244738006E+02 -0.17708161637E+01  0.10528444222E+02  0.51100000000E-03 0. -1.
        -11    1    3    3    0    0 -0.11346906120E+02  0.15120807830E+02 -0.99821510208E+00  0.18931126263E+02  0.51100000000E-03 0.  1.
        -12    1    3    3    0    0  0.31797444479E+01  0.16161908433E+02 -0.80365373971E+01  0.18327683768E+02  0.00000000000E+00 0.  1.
</event>
<event>
 7    1  0.1322363E-009  0.4778728E+02  0.7816164E-02  0.1312668E+00
        -11   -1    0    0    0    0  0.00000000000E+00  0.00000000000E+00  0.45593999997E+02  0.45594000000E+02  0.51100000000E-03 0. -1.
         11   -1    0    0    0    0 -0.00000000000E+00 -0.00000000000E+00 -0.45593999997E+02  0.45594000000E+02  0.51100000000E-03 0.  1.
    9900012    2    1    2    0    0  0.28518901549E+02 -0.16608739454E+02  0.28185895765E+02  0.47787277750E+02  0.20000030573E+02 0.  0.
        -12    1    1    2    0    0 -0.28518901549E+02  0.16608739454E+02 -0.28185895765E+02  0.43400722250E+02  0.00000000000E+00 0.  1.
         11    1    3    3    0    0  0.98500461873E+00 -0.26982612626E+01 -0.45451612164E+00  0.29081666228E+01  0.51100000000E-03 0.  1.
        -11    1    3    3    0    0  0.23496572454E+02 -0.13072285640E+02  0.30231984495E+02  0.40459194946E+02  0.51100000000E-03 0. -1.
         12    1    3    3    0    0  0.40373244759E+01 -0.83819255075E+00 -0.15915726087E+01  0.44199161807E+01  0.00000000000E+00 0. -1.
</event>
<event>
 7    1  0.1322363E-009  0.4778727E+02  0.7816164E-02  0.1312668E+00
        -11   -1    0    0    0    0  0.00000000000E+00  0.00000000000E+00  0.45593999997E+02  0.45594000000E+02  0.51100000000E-03 0. -1.
         11   -1    0    0    0    0 -0.00000000000E+00 -0.00000000000E+00 -0.45593999997E+02  0.45594000000E+02  0.51100000000E-03 0.  1.
    9900012    2    1    2    0    0  0.19473347602E+02 -0.32858376708E+02  0.20609205401E+02  0.47787268048E+02  0.19999986340E+02 0.  0.
        -12    1    1    2    0    0 -0.19473347602E+02  0.32858376708E+02 -0.20609205401E+02  0.43400731952E+02  0.00000000000E+00 0.  1.
         11    1    3    3    0    0  0.91948941836E+01 -0.71816154046E+01  0.87892369284E+01  0.14607270960E+02  0.51100000000E-03 0. -1.
        -11    1    3    3    0    0  0.11634283044E+02 -0.12575360212E+02  0.31708379383E+01  0.17422698985E+02  0.51100000000E-03 0.  1.
         12    1    3    3    0    0 -0.13558296261E+01 -0.13101401091E+02  0.86491305339E+01  0.15757298103E+02  0.00000000000E+00 0. -1.
</event>
<event>
 7    1  0.1322363E-009  0.4778727E+02  0.7816164E-02  0.1312668E+00
        -11   -1    0    0    0    0  0.00000000000E+00  0.00000000000E+00  0.45593999997E+02  0.45594000000E+02  0.51100000000E-03 0.  1.
         11   -1    0    0    0    0 -0.00000000000E+00 -0.00000000000E+00 -0.45593999997E+02  0.45594000000E+02  0.51100000000E-03 0. -1.
    9900012    2    1    2    0    0  0.21153308732E+02  0.19327357092E+02 -0.32597763016E+02  0.47787270097E+02  0.19999995681E+02 0.  0.
        -12    1    1    2    0    0 -0.21153308732E+02 -0.19327357092E+02  0.32597763016E+02  0.43400729903E+02  0.00000000000E+00 0.  1.
         11    1    3    3    0    0  0.70551657447E+01  0.61106443071E+00 -0.65929820567E+01  0.96755452603E+01  0.51100000000E-03 0. -1.
        -11    1    3    3    0    0  0.49136393213E+01  0.16092529357E+02 -0.10294009061E+02  0.19725110273E+02  0.51100000000E-03 0.  1.
         12    1    3    3    0    0  0.91845036661E+01  0.26237633036E+01 -0.15710771898E+02  0.18386614563E+02  0.00000000000E+00 0. -1.
</event>
<event>
 7    1  0.1322363E-009  0.4778727E+02  0.7816164E-02  0.1312668E+00
        -11   -1    0    0    0    0  0.00000000000E+00  0.00000000000E+00  0.45593999997E+02  0.45594000000E+02  0.51100000000E-03 0. -1.
         11   -1    0    0    0    0 -0.00000000000E+00 -0.00000000000E+00 -0.45593999997E+02  0.45594000000E+02  0.51100000000E-03 0.  1.
    9900012    2    1    2    0    0 -0.17306111016E+02 -0.95950811979E+01  0.38627144245E+02  0.47787270349E+02  0.19999996830E+02 0.  0.
        -12    1    1    2    0    0  0.17306111016E+02  0.95950811979E+01 -0.38627144245E+02  0.43400729651E+02  0.00000000000E+00 0.  1.
         11    1    3    3    0    0 -0.99317292191E+00  0.14580396847E+01  0.41356998440E-01  0.17646480775E+01  0.51100000000E-03 0. -1.
        -11    1    3    3    0    0 -0.88165558386E+01  0.11111827741E+01  0.24053110208E+02  0.25642123449E+02  0.51100000000E-03 0.  1.
         12    1    3    3    0    0 -0.74963822554E+01 -0.12164303657E+02  0.14532677038E+02  0.20380498823E+02  0.00000000000E+00 0. -1.
</event>
<event>
 7    1  0.1322363E-009  0.4778727E+02  0.7816164E-02  0.1312668E+00
        -11   -1    0    0    0    0  0.00000000000E+00  0.00000000000E+00  0.45593999997E+02  0.45594000000E+02  0.51100000000E-03 0. -1.
         11   -1    0    0    0    0 -0.00000000000E+00 -0.00000000000E+00 -0.45593999997E+02  0.45594000000E+02  0.51100000000E-03 0.  1.
    9900012    2    1    2    0    0 -0.31167407550E+02  0.10466668086E+02  0.28331338245E+02  0.47787272346E+02  0.20000005933E+02 0.  0.
        -12    1    1    2    0    0  0.31167407550E+02 -0.10466668086E+02 -0.28331338245E+02  0.43400727654E+02  0.00000000000E+00 0.  1.
         11    1    3    3    0    0 -0.16078432924E+02  0.30264148356E+01  0.16293232319E+02  0.23089924464E+02  0.51100000000E-03 0. -1.
        -11    1    3    3    0    0  0.29889694405E-01  0.42783310420E+01  0.74383588188E+01  0.85810367717E+01  0.51100000000E-03 0.  1.
        -12    1    3    3    0    0 -0.15118864319E+02  0.31619222089E+01  0.45997471065E+01  0.16116311110E+02  0.00000000000E+00 0.  1.
</event>
<event>
 7    1  0.1322363E-009  0.4778727E+02  0.7816164E-02  0.1312668E+00
        -11   -1    0    0    0    0  0.00000000000E+00  0.00000000000E+00  0.45593999997E+02  0.45594000000E+02  0.51100000000E-03 0.  1.
         11   -1    0    0    0    0 -0.00000000000E+00 -0.00000000000E+00 -0.45593999997E+02  0.45594000000E+02  0.51100000000E-03 0. -1.
    9900012    2    1    2    0    0 -0.30925714893E+01  0.31351368610E+02 -0.29852151045E+02  0.47787271502E+02  0.20000002085E+02 0.  0.
        -12    1    1    2    0    0  0.30925714893E+01 -0.31351368610E+02  0.29852151045E+02  0.43400728498E+02  0.00000000000E+00 0.  1.
         11    1    3    3    0    0 -0.47375273302E+01  0.81502453241E+01 -0.56503006164E+01  0.10990748899E+02  0.51100000000E-03 0. -1.
        -11    1    3    3    0    0 -0.58805700885E+01  0.15286699345E+02 -0.11328834080E+02  0.19914988408E+02  0.51100000000E-03 0.  1.
         12    1    3    3    0    0  0.75255259294E+01  0.79144239410E+01 -0.12873016349E+02  0.16881534194E+02  0.00000000000E+00 0. -1.
</event>
<event>
 7    1  0.1322363E-009  0.4778728E+02  0.7816164E-02  0.1312668E+00
        -11   -1    0    0    0    0  0.00000000000E+00  0.00000000000E+00  0.45593999997E+02  0.45594000000E+02  0.51100000000E-03 0. -1.
         11   -1    0    0    0    0 -0.00000000000E+00 -0.00000000000E+00 -0.45593999997E+02  0.45594000000E+02  0.51100000000E-03 0.  1.
    9900012    2    1    2    0    0  0.18908553181E+02  0.38931663286E+02  0.32272131200E+01  0.47787277723E+02  0.20000030451E+02 0.  0.
        -12    1    1    2    0    0 -0.18908553181E+02 -0.38931663286E+02 -0.32272131200E+01  0.43400722277E+02  0.00000000000E+00 0.  1.
         11    1    3    3    0    0  0.30408238056E+01  0.64948262160E+00  0.33373933904E+01  0.45614287231E+01  0.51100000000E-03 0.  1.
        -11    1    3    3    0    0  0.10220100153E+02  0.35373791716E+02  0.66227543972E+00  0.36826542011E+02  0.51100000000E-03 0. -1.
         12    1    3    3    0    0  0.56476292225E+01  0.29083889489E+01 -0.77245571020E+00  0.63993069888E+01  0.00000000000E+00 0. -1.
</event>
<event>
 7    1  0.1322363E-009  0.4778727E+02  0.7816164E-02  0.1312668E+00
        -11   -1    0    0    0    0  0.00000000000E+00  0.00000000000E+00  0.45593999997E+02  0.45594000000E+02  0.51100000000E-03 0. -1.
         11   -1    0    0    0    0 -0.00000000000E+00 -0.00000000000E+00 -0.45593999997E+02  0.45594000000E+02  0.51100000000E-03 0.  1.
    9900012    2    1    2    0    0 -0.28936211736E+02 -0.26907413293E+02  0.17952998200E+02  0.47787269774E+02  0.19999994208E+02 0.  0.
        -12    1    1    2    0    0  0.28936211736E+02  0.26907413293E+02 -0.17952998200E+02  0.43400730226E+02  0.00000000000E+00 0.  1.
         11    1    3    3    0    0  0.15405551872E+00 -0.25218627068E+01 -0.61394732450E+00  0.26000877280E+01  0.51100000000E-03 0. -1.
        -11    1    3    3    0    0  0.80265227943E+00 -0.11674959594E+00  0.39013014392E+01  0.39847251261E+01  0.51100000000E-03 0.  1.
         12    1    3    3    0    0 -0.29892919534E+02 -0.24268800990E+02  0.14665644085E+02  0.41202456920E+02  0.00000000000E+00 0. -1.
</event>
<event>
 7    1  0.1322363E-009  0.4778727E+02  0.7816164E-02  0.1312668E+00
        -11   -1    0    0    0    0  0.00000000000E+00  0.00000000000E+00  0.45593999997E+02  0.45594000000E+02  0.51100000000E-03 0. -1.
         11   -1    0    0    0    0 -0.00000000000E+00 -0.00000000000E+00 -0.45593999997E+02  0.45594000000E+02  0.51100000000E-03 0.  1.
    9900012    2    1    2    0    0 -0.12847751300E+01  0.21949789887E+02  0.37418969507E+02  0.47787271870E+02  0.20000003765E+02 0.  0.
        -12    1    1    2    0    0  0.12847751300E+01 -0.21949789887E+02 -0.37418969507E+02  0.43400728130E+02  0.00000000000E+00 0.  1.
         11    1    3    3    0    0 -0.90189306724E+00  0.13505463378E+02  0.15085681414E+02  0.20267923824E+02  0.51100000000E-03 0. -1.
        -11    1    3    3    0    0  0.51581836185E+01  0.51633322606E+01  0.18815794165E+02  0.20181698853E+02  0.51100000000E-03 0.  1.
         12    1    3    3    0    0 -0.55410656813E+01  0.32809942491E+01  0.35174939279E+01  0.73376491930E+01  0.00000000000E+00 0. -1.
</event>
<event>
 7    1  0.1322363E-009  0.4778727E+02  0.7816164E-02  0.1312668E+00
        -11   -1    0    0    0    0  0.00000000000E+00  0.00000000000E+00  0.45593999997E+02  0.45594000000E+02  0.51100000000E-03 0.  1.
         11   -1    0    0    0    0 -0.00000000000E+00 -0.00000000000E+00 -0.45593999997E+02  0.45594000000E+02  0.51100000000E-03 0. -1.
    9900012    2    1    2    0    0 -0.38090664823E+02 -0.19184832500E+02  0.80415789337E+01  0.47787268020E+02  0.19999986208E+02 0.  0.
        -12    1    1    2    0    0  0.38090664823E+02  0.19184832500E+02 -0.80415789337E+01  0.43400731980E+02  0.00000000000E+00 0.  1.
         11    1    3    3    0    0 -0.34093422405E+02 -0.12971192203E+02  0.19867754414E+01  0.36531637732E+02  0.51100000000E-03 0. -1.
        -11    1    3    3    0    0 -0.99600250420E-01 -0.22471208918E+01 -0.83700939962E+00  0.24000119809E+01  0.51100000000E-03 0.  1.
         12    1    3    3    0    0 -0.38976421668E+01 -0.39665194054E+01  0.68918128919E+01  0.88556183065E+01  0.00000000000E+00 0. -1.
</event>
<event>
 7    1  0.1322363E-009  0.4778727E+02  0.7816164E-02  0.1312668E+00
        -11   -1    0    0    0    0  0.00000000000E+00  0.00000000000E+00  0.45593999997E+02  0.45594000000E+02  0.51100000000E-03 0.  1.
         11   -1    0    0    0    0 -0.00000000000E+00 -0.00000000000E+00 -0.45593999997E+02  0.45594000000E+02  0.51100000000E-03 0. -1.
    9900012    2    1    2    0    0 -0.19474547186E+02 -0.29547751233E+01 -0.38673434261E+02  0.47787271876E+02  0.20000003794E+02 0.  0.
        -12    1    1    2    0    0  0.19474547186E+02  0.29547751233E+01  0.38673434261E+02  0.43400728124E+02  0.00000000000E+00 0.  1.
         11    1    3    3    0    0 -0.90418622438E+01 -0.44609362213E+01 -0.27195971790E+02  0.29004760069E+02  0.51100000000E-03 0. -1.
        -11    1    3    3    0    0  0.87436220722E+00 -0.22884244546E+01 -0.35695165433E+00  0.24756434514E+01  0.51100000000E-03 0.  1.
        -12    1    3    3    0    0 -0.11307047150E+02  0.37945855526E+01 -0.11120510816E+02  0.16306868356E+02  0.00000000000E+00 0.  1.
</event>
<event>
 7    1  0.1322363E-009  0.4778727E+02  0.7816164E-02  0.1312668E+00
        -11   -1    0    0    0    0  0.00000000000E+00  0.00000000000E+00  0.45593999997E+02  0.45594000000E+02  0.51100000000E-03 0. -1.
         11   -1    0    0    0    0 -0.00000000000E+00 -0.00000000000E+00 -0.45593999997E+02  0.45594000000E+02  0.51100000000E-03 0.  1.
    9900012    2    1    2    0    0  0.26276355494E+02 -0.34465120218E+02 -0.23091256646E+01  0.47787269234E+02  0.19999991747E+02 0.  0.
        -12    1    1    2    0    0 -0.26276355494E+02  0.34465120218E+02  0.23091256646E+01  0.43400730766E+02  0.00000000000E+00 0.  1.
         11    1    3    3    0    0 -0.99267445952E+00  0.99612394022E+00 -0.61606154277E+00  0.15353167662E+01  0.51100000000E-03 0.  1.
        -11    1    3    3    0    0  0.10689923598E+02 -0.19941232469E+02  0.36594946961E+01  0.22919841200E+02  0.51100000000E-03 0. -1.
        -12    1    3    3    0    0  0.16579106355E+02 -0.15520011688E+02 -0.53525588179E+01  0.23332111268E+02  0.00000000000E+00 0.  1.
</event>
<event>
 7    1  0.1322363E-009  0.4778727E+02  0.7816164E-02  0.1312668E+00
        -11   -1    0    0    0    0  0.00000000000E+00  0.00000000000E+00  0.45593999997E+02  0.45594000000E+02  0.51100000000E-03 0.  1.
         11   -1    0    0    0    0 -0.00000000000E+00 -0.00000000000E+00 -0.45593999997E+02  0.45594000000E+02  0.51100000000E-03 0. -1.
    9900012    2    1    2    0    0 -0.18037165986E+02 -0.10830623080E+02 -0.37960264989E+02  0.47787268772E+02  0.19999989638E+02 0.  0.
        -12    1    1    2    0    0  0.18037165986E+02  0.10830623080E+02  0.37960264989E+02  0.43400731228E+02  0.00000000000E+00 0.  1.
         11    1    3    3    0    0 -0.52066842417E+01  0.34952223497E+00 -0.53697363668E+00  0.52459572561E+01  0.51100000000E-03 0. -1.
        -11    1    3    3    0    0  0.31713711196E-01 -0.10361254585E+01 -0.13543061982E+02  0.13582676093E+02  0.51100000000E-03 0.  1.
         12    1    3    3    0    0 -0.12862195456E+02 -0.10144019857E+02 -0.23880229370E+02  0.28958635423E+02  0.00000000000E+00 0. -1.
</event>
<event>
 7    1  0.1322363E-009  0.4778727E+02  0.7816164E-02  0.1312668E+00
        -11   -1    0    0    0    0  0.00000000000E+00  0.00000000000E+00  0.45593999997E+02  0.45594000000E+02  0.51100000000E-03 0.  1.
         11   -1    0    0    0    0 -0.00000000000E+00 -0.00000000000E+00 -0.45593999997E+02  0.45594000000E+02  0.51100000000E-03 0. -1.
    9900012    2    1    2    0    0 -0.26146482549E+02 -0.14863513126E+02 -0.31289952400E+02  0.47787266212E+02  0.19999977968E+02 0.  0.
        -12    1    1    2    0    0  0.26146482549E+02  0.14863513126E+02  0.31289952400E+02  0.43400733788E+02  0.00000000000E+00 0.  1.
         11    1    3    3    0    0 -0.10249023818E+02 -0.11977818394E+02 -0.18275677506E+02  0.24135264889E+02  0.51100000000E-03 0. -1.
        -11    1    3    3    0    0 -0.16993194616E+02 -0.26138766601E+01 -0.13985382045E+02  0.22162850125E+02  0.51100000000E-03 0.  1.
         12    1    3    3    0    0  0.10957358848E+01 -0.27181807134E+00  0.97110715104E+00  0.14891511985E+01  0.00000000000E+00 0. -1.
</event>
<event>
 7    1  0.1376424E-009  0.4778727E+02  0.7816164E-02  0.1312668E+00
        -11   -1    0    0    0    0  0.00000000000E+00  0.00000000000E+00  0.45593999997E+02  0.45594000000E+02  0.51100000000E-03 0. -1.
         11   -1    0    0    0    0 -0.00000000000E+00 -0.00000000000E+00 -0.45593999997E+02  0.45594000000E+02  0.51100000000E-03 0.  1.
    9900012    2    1    2    0    0 -0.18925194575E+02  0.25201167684E+02  0.29838925536E+02  0.47787270520E+02  0.19999997607E+02 0.  0.
        -12    1    1    2    0    0  0.18925194575E+02 -0.25201167684E+02 -0.29838925536E+02  0.43400729480E+02  0.00000000000E+00 0.  1.
         11    1    3    3    0    0 -0.10770600093E+02  0.10475194285E+02  0.63690050583E+01  0.16318693188E+02  0.51100000000E-03 0. -1.
        -11    1    3    3    0    0 -0.33967861335E+00 -0.22479459135E+01  0.27045295475E+01  0.35331462926E+01  0.51100000000E-03 0.  1.
         12    1    3    3    0    0 -0.78149158679E+01  0.16973919312E+02  0.20765390930E+02  0.27935431039E+02  0.00000000000E+00 0. -1.
</event>
<event>
 7    1  0.1322363E-009  0.4778727E+02  0.7816164E-02  0.1312668E+00
        -11   -1    0    0    0    0  0.00000000000E+00  0.00000000000E+00  0.45593999997E+02  0.45594000000E+02  0.51100000000E-03 0.  1.
         11   -1    0    0    0    0 -0.00000000000E+00 -0.00000000000E+00 -0.45593999997E+02  0.45594000000E+02  0.51100000000E-03 0. -1.
    9900012    2    1    2    0    0 -0.27912223228E+02  0.17411981147E+02 -0.28308190829E+02  0.47787274649E+02  0.20000016433E+02 0.  0.
        -12    1    1    2    0    0  0.27912223228E+02 -0.17411981147E+02  0.28308190829E+02  0.43400725351E+02  0.00000000000E+00 0.  1.
         11    1    3    3    0    0 -0.11249963108E+01  0.32572403151E+01 -0.95913797859E+01  0.10191653331E+02  0.51100000000E-03 0. -1.
        -11    1    3    3    0    0 -0.11065399589E+02 -0.19302589849E+00 -0.42260259494E+01  0.11846502549E+02  0.51100000000E-03 0.  1.
         12    1    3    3    0    0 -0.15721827328E+02  0.14347766730E+02 -0.14490785094E+02  0.25749118768E+02  0.00000000000E+00 0. -1.
</event>
<event>
 7    1  0.1322363E-009  0.4778727E+02  0.7816164E-02  0.1312668E+00
        -11   -1    0    0    0    0  0.00000000000E+00  0.00000000000E+00  0.45593999997E+02  0.45594000000E+02  0.51100000000E-03 0.  1.
         11   -1    0    0    0    0 -0.00000000000E+00 -0.00000000000E+00 -0.45593999997E+02  0.45594000000E+02  0.51100000000E-03 0. -1.
    9900012    2    1    2    0    0  0.13239661247E+02  0.35251180822E+02 -0.21579821076E+02  0.47787273543E+02  0.20000011394E+02 0.  0.
        -12    1    1    2    0    0 -0.13239661247E+02 -0.35251180822E+02  0.21579821076E+02  0.43400726457E+02  0.00000000000E+00 0.  1.
         11    1    3    3    0    0  0.63562091198E+01  0.99871171988E+01 -0.82786122732E-02  0.11838241977E+02  0.51100000000E-03 0. -1.
        -11    1    3    3    0    0  0.49742857056E+01  0.22804922184E+02 -0.12754715764E+02  0.26598698625E+02  0.51100000000E-03 0.  1.
        -12    1    3    3    0    0  0.19091664216E+01  0.24591414395E+01 -0.88168266999E+01  0.93503329406E+01  0.00000000000E+00 0.  1.
</event>
<event>
 7    1  0.1322363E-009  0.4778726E+02  0.7816164E-02  0.1312668E+00
        -11   -1    0    0    0    0  0.00000000000E+00  0.00000000000E+00  0.45593999997E+02  0.45594000000E+02  0.51100000000E-03 0.  1.
         11   -1    0    0    0    0 -0.00000000000E+00 -0.00000000000E+00 -0.45593999997E+02  0.45594000000E+02  0.51100000000E-03 0. -1.
    9900012    2    1    2    0    0  0.13405674200E+02  0.31486192079E+02 -0.26693290784E+02  0.47787260775E+02  0.19999953177E+02 0.  0.
        -12    1    1    2    0    0 -0.13405674200E+02 -0.31486192079E+02  0.26693290784E+02  0.43400739225E+02  0.00000000000E+00 0.  1.
         11    1    3    3    0    0  0.12933757688E+01  0.63173679910E+00 -0.37350282132E+01  0.40027925599E+01  0.51100000000E-03 0. -1.
        -11    1    3    3    0    0 -0.16785700402E+01  0.41397171462E+01 -0.10180451440E+02  0.11117393904E+02  0.51100000000E-03 0.  1.
         12    1    3    3    0    0  0.13790868472E+02  0.26714738134E+02 -0.12777811131E+02  0.32667074311E+02  0.00000000000E+00 0. -1.
</event>
<event>
 7    1  0.1322363E-009  0.4778727E+02  0.7816164E-02  0.1312668E+00
        -11   -1    0    0    0    0  0.00000000000E+00  0.00000000000E+00  0.45593999997E+02  0.45594000000E+02  0.51100000000E-03 0. -1.
         11   -1    0    0    0    0 -0.00000000000E+00 -0.00000000000E+00 -0.45593999997E+02  0.45594000000E+02  0.51100000000E-03 0.  1.
    9900012    2    1    2    0    0 -0.99485327324E+01  0.42163222433E+02  0.26292645254E+01  0.47787266579E+02  0.19999979642E+02 0.  0.
        -12    1    1    2    0    0  0.99485327324E+01 -0.42163222433E+02 -0.26292645254E+01  0.43400733421E+02  0.00000000000E+00 0.  1.
         11    1    3    3    0    0 -0.38009680938E+01  0.24589418244E+02  0.60864690715E+01  0.25615072791E+02  0.51100000000E-03 0. -1.
        -11    1    3    3    0    0 -0.60216262149E+01  0.18870916569E+02 -0.47141449806E+01  0.20361597128E+02  0.51100000000E-03 0.  1.
         12    1    3    3    0    0 -0.12593842373E+00 -0.12971123802E+01  0.12569404345E+01  0.18105966611E+01  0.00000000000E+00 0. -1.
</event>
<event>
 7    1  0.1322363E-009  0.4778727E+02  0.7816164E-02  0.1312668E+00
        -11   -1    0    0    0    0  0.00000000000E+00  0.00000000000E+00  0.45593999997E+02  0.45594000000E+02  0.51100000000E-03 0.  1.
         11   -1    0    0    0    0 -0.00000000000E+00 -0.00000000000E+00 -0.45593999997E+02  0.45594000000E+02  0.51100000000E-03 0. -1.
    9900012    2    1    2    0    0 -0.29171589447E+02  0.50762067700E+01 -0.31731275207E+02  0.47787270372E+02  0.19999996932E+02 0.  0.
        -12    1    1    2    0    0  0.29171589447E+02 -0.50762067700E+01  0.31731275207E+02  0.43400729628E+02  0.00000000000E+00 0.  1.
         11    1    3    3    0    0 -0.48440560213E+01 -0.41562229698E+01 -0.71841766455E+01  0.96099668286E+01  0.51100000000E-03 0. -1.
        -11    1    3    3    0    0 -0.20984482762E+02  0.56530173274E+01 -0.12264998105E+02  0.24954664904E+02  0.51100000000E-03 0.  1.
         12    1    3    3    0    0 -0.33430506635E+01  0.35794124124E+01 -0.12282100456E+02  0.13222638639E+02  0.00000000000E+00 0. -1.
</event>
<event>
 7    1  0.1322363E-009  0.4778727E+02  0.7816164E-02  0.1312668E+00
        -11   -1    0    0    0    0  0.00000000000E+00  0.00000000000E+00  0.45593999997E+02  0.45594000000E+02  0.51100000000E-03 0.  1.
         11   -1    0    0    0    0 -0.00000000000E+00 -0.00000000000E+00 -0.45593999997E+02  0.45594000000E+02  0.51100000000E-03 0. -1.
    9900012    2    1    2    0    0 -0.11127819318E+02  0.13517463770E+02 -0.39712378029E+02  0.47787272376E+02  0.20000006073E+02 0.  0.
        -12    1    1    2    0    0  0.11127819318E+02 -0.13517463770E+02  0.39712378029E+02  0.43400727624E+02  0.00000000000E+00 0.  1.
         11    1    3    3    0    0  0.13635080195E+00  0.76277031666E+01 -0.74047565704E+01  0.10631597588E+02  0.51100000000E-03 0.  1.
        -11    1    3    3    0    0 -0.88471381077E+01 -0.17013955636E+01 -0.99581136004E+01  0.13428723927E+02  0.51100000000E-03 0. -1.
         12    1    3    3    0    0 -0.24170320122E+01  0.75911561668E+01 -0.22349507858E+02  0.23726950862E+02  0.00000000000E+00 0. -1.
</event>
<event>
 7    1  0.1322363E-009  0.4778727E+02  0.7816164E-02  0.1312668E+00
        -11   -1    0    0    0    0  0.00000000000E+00  0.00000000000E+00  0.45593999997E+02  0.45594000000E+02  0.51100000000E-03 0.  1.
         11   -1    0    0    0    0 -0.00000000000E+00 -0.00000000000E+00 -0.45593999997E+02  0.45594000000E+02  0.51100000000E-03 0. -1.
    9900012    2    1    2    0    0 -0.33259814460E+02 -0.27565088627E+02 -0.41921270494E+01  0.47787270765E+02  0.19999998725E+02 0.  0.
        -12    1    1    2    0    0  0.33259814460E+02  0.27565088627E+02  0.41921270494E+01  0.43400729235E+02  0.00000000000E+00 0.  1.
         11    1    3    3    0    0 -0.96193939183E+01 -0.17219471084E+02  0.45530343951E+01  0.20242851731E+02  0.51100000000E-03 0. -1.
        -11    1    3    3    0    0 -0.11991801956E+02 -0.74356767083E+01 -0.45278463576E+01  0.14818704234E+02  0.51100000000E-03 0.  1.
         12    1    3    3    0    0 -0.11648618585E+02 -0.29099408353E+01 -0.42173150869E+01  0.12725714799E+02  0.00000000000E+00 0. -1.
</event>
<event>
 7    1  0.1322363E-009  0.4778728E+02  0.7816164E-02  0.1312668E+00
        -11   -1    0    0    0    0  0.00000000000E+00  0.00000000000E+00  0.45593999997E+02  0.45594000000E+02  0.51100000000E-03 0.  1.
         11   -1    0    0    0    0 -0.00000000000E+00 -0.00000000000E+00 -0.45593999997E+02  0.45594000000E+02  0.51100000000E-03 0. -1.
    9900012    2    1    2    0    0  0.27758339068E+02  0.21795145213E+02 -0.25260023283E+02  0.47787279742E+02  0.20000039655E+02 0.  0.
        -12    1    1    2    0    0 -0.27758339068E+02 -0.21795145213E+02  0.25260023283E+02  0.43400720258E+02  0.00000000000E+00 0.  1.
         11    1    3    3    0    0  0.42317322028E+01  0.13765782409E+01 -0.71294455771E+01  0.84042560401E+01  0.51100000000E-03 0. -1.
        -11    1    3    3    0    0  0.10794274197E+02  0.12948554727E+02 -0.11702864125E+01  0.16898254215E+02  0.51100000000E-03 0.  1.
        -12    1    3    3    0    0  0.12732332668E+02  0.74700122453E+01 -0.16960291293E+02  0.22484769487E+02  0.00000000000E+00 0.  1.
</event>
<event>
 7    1  0.1322363E-009  0.4778727E+02  0.7816164E-02  0.1312668E+00
        -11   -1    0    0    0    0  0.00000000000E+00  0.00000000000E+00  0.45593999997E+02  0.45594000000E+02  0.51100000000E-03 0.  1.
         11   -1    0    0    0    0 -0.00000000000E+00 -0.00000000000E+00 -0.45593999997E+02  0.45594000000E+02  0.51100000000E-03 0. -1.
    9900012    2    1    2    0    0  0.12001224452E+02 -0.14875704159E+02 -0.38965461389E+02  0.47787272543E+02  0.20000006832E+02 0.  0.
        -12    1    1    2    0    0 -0.12001224452E+02  0.14875704159E+02  0.38965461389E+02  0.43400727457E+02  0.00000000000E+00 0.  1.
         11    1    3    3    0    0  0.94682786558E+01 -0.52687222674E+01 -0.78749281725E+01  0.13394858305E+02  0.51100000000E-03 0. -1.
        -11    1    3    3    0    0 -0.26033469419E+01 -0.89320232294E+01 -0.16993231858E+02  0.19373393702E+02  0.51100000000E-03 0.  1.
         12    1    3    3    0    0  0.51362927383E+01 -0.67495866232E+00 -0.14097301358E+02  0.15019020536E+02  0.00000000000E+00 0. -1.
</event>
<event>
 7    1  0.1322363E-009  0.4778727E+02  0.7816164E-02  0.1312668E+00
        -11   -1    0    0    0    0  0.00000000000E+00  0.00000000000E+00  0.45593999997E+02  0.45594000000E+02  0.51100000000E-03 0.  1.
         11   -1    0    0    0    0 -0.00000000000E+00 -0.00000000000E+00 -0.45593999997E+02  0.45594000000E+02  0.51100000000E-03 0. -1.
    9900012    2    1    2    0    0  0.26717503464E+02 -0.34125378341E+02  0.22927438071E+01  0.47787272904E+02  0.20000008480E+02 0.  0.
        -12    1    1    2    0    0 -0.26717503464E+02  0.34125378341E+02 -0.22927438071E+01  0.43400727096E+02  0.00000000000E+00 0.  1.
         11    1    3    3    0    0  0.10452908945E+01 -0.76948409321E+01  0.43739293860E+01  0.89126016718E+01  0.51100000000E-03 0. -1.
        -11    1    3    3    0    0  0.15227260300E+02 -0.75149453440E+01  0.11824012967E+01  0.17021807568E+02  0.51100000000E-03 0.  1.
         12    1    3    3    0    0  0.10444952269E+02 -0.18915592065E+02 -0.32635868756E+01  0.21852863665E+02  0.00000000000E+00 0. -1.
</event>
<event>
 7    1  0.1322363E-009  0.4778727E+02  0.7816164E-02  0.1312668E+00
        -11   -1    0    0    0    0  0.00000000000E+00  0.00000000000E+00  0.45593999997E+02  0.45594000000E+02  0.51100000000E-03 0. -1.
         11   -1    0    0    0    0 -0.00000000000E+00 -0.00000000000E+00 -0.45593999997E+02  0.45594000000E+02  0.51100000000E-03 0.  1.
    9900012    2    1    2    0    0  0.29670036608E+02  0.20193169430E+02  0.24403854829E+02  0.47787270807E+02  0.19999998917E+02 0.  0.
        -12    1    1    2    0    0 -0.29670036608E+02 -0.20193169430E+02 -0.24403854829E+02  0.43400729193E+02  0.00000000000E+00 0.  1.
         11    1    3    3    0    0 -0.11645164582E+01  0.31017892077E+01  0.19631938913E+01  0.38511459835E+01  0.51100000000E-03 0. -1.
        -11    1    3    3    0    0  0.29322515337E+01 -0.20519872600E+01  0.51538899675E+00  0.36158507783E+01  0.51100000000E-03 0.  1.
         12    1    3    3    0    0  0.27902301533E+02  0.19143367482E+02  0.21925271941E+02  0.40320274045E+02  0.00000000000E+00 0. -1.
</event>
<event>
 7    1  0.1322363E-009  0.4778727E+02  0.7816164E-02  0.1312668E+00
        -11   -1    0    0    0    0  0.00000000000E+00  0.00000000000E+00  0.45593999997E+02  0.45594000000E+02  0.51100000000E-03 0. -1.
         11   -1    0    0    0    0 -0.00000000000E+00 -0.00000000000E+00 -0.45593999997E+02  0.45594000000E+02  0.51100000000E-03 0.  1.
    9900012    2    1    2    0    0  0.81436289226E+01 -0.38682776648E+02  0.17914995760E+02  0.47787274496E+02  0.20000015735E+02 0.  0.
        -12    1    1    2    0    0 -0.81436289226E+01  0.38682776648E+02 -0.17914995760E+02  0.43400725504E+02  0.00000000000E+00 0.  1.
         11    1    3    3    0    0  0.74584748750E+00 -0.16698118172E+02  0.11520699923E+02  0.20300491766E+02  0.51100000000E-03 0. -1.
        -11    1    3    3    0    0 -0.23117878071E+01 -0.23298552162E+00 -0.10223647261E+01  0.25384788777E+01  0.51100000000E-03 0.  1.
        -12    1    3    3    0    0  0.97095692422E+01 -0.21751672955E+02  0.74166605628E+01  0.24948303852E+02  0.00000000000E+00 0.  1.
</event>
<event>
 7    1  0.1322363E-009  0.4778727E+02  0.7816164E-02  0.1312668E+00
        -11   -1    0    0    0    0  0.00000000000E+00  0.00000000000E+00  0.45593999997E+02  0.45594000000E+02  0.51100000000E-03 0.  1.
         11   -1    0    0    0    0 -0.00000000000E+00 -0.00000000000E+00 -0.45593999997E+02  0.45594000000E+02  0.51100000000E-03 0. -1.
    9900012    2    1    2    0    0 -0.20237043738E+02 -0.92679746105E+01 -0.37258417140E+02  0.47787274886E+02  0.20000017516E+02 0.  0.
        -12    1    1    2    0    0  0.20237043738E+02  0.92679746105E+01  0.37258417140E+02  0.43400725114E+02  0.00000000000E+00 0.  1.
         11    1    3    3    0    0 -0.16138368070E+02 -0.76907163044E+01 -0.13713574400E+02  0.22531226427E+02  0.51100000000E-03 0.  1.
        -11    1    3    3    0    0 -0.64722552855E+01 -0.14616878681E+01 -0.19036517261E+02  0.20159752221E+02  0.51100000000E-03 0. -1.
        -12    1    3    3    0    0  0.23735796171E+01 -0.11557043803E+00 -0.45083254784E+01  0.50962962378E+01  0.00000000000E+00 0.  1.
</event>
<event>
 7    1  0.1322363E-009  0.4778727E+02  0.7816164E-02  0.1312668E+00
        -11   -1    0    0    0    0  0.00000000000E+00  0.00000000000E+00  0.45593999997E+02  0.45594000000E+02  0.51100000000E-03 0.  1.
         11   -1    0    0    0    0 -0.00000000000E+00 -0.00000000000E+00 -0.45593999997E+02  0.45594000000E+02  0.51100000000E-03 0. -1.
    9900012    2    1    2    0    0  0.13756664937E+01 -0.98322877853E+01 -0.42249934252E+02  0.47787270909E+02  0.19999999381E+02 0.  0.
        -12    1    1    2    0    0 -0.13756664937E+01  0.98322877853E+01  0.42249934252E+02  0.43400729091E+02  0.00000000000E+00 0.  1.
         11    1    3    3    0    0 -0.14636157900E+01  0.62455292922E+00 -0.64902170293E+00  0.17185653826E+01  0.51100000000E-03 0.  1.
        -11    1    3    3    0    0  0.88270190119E+01 -0.83621775353E+01 -0.34329294655E+02  0.36418988859E+02  0.51100000000E-03 0. -1.
        -12    1    3    3    0    0 -0.59877367281E+01 -0.20946631792E+01 -0.72716178940E+01  0.96497166672E+01  0.00000000000E+00 0.  1.
</event>
<event>
 7    1  0.1322363E-009  0.4778725E+02  0.7816164E-02  0.1312668E+00
        -11   -1    0    0    0    0  0.00000000000E+00  0.00000000000E+00  0.45593999997E+02  0.45594000000E+02  0.51100000000E-03 0.  1.
         11   -1    0    0    0    0 -0.00000000000E+00 -0.00000000000E+00 -0.45593999997E+02  0.45594000000E+02  0.51100000000E-03 0. -1.
    9900012    2    1    2    0    0 -0.13701873369E+02  0.13836830765E+02 -0.38786930765E+02  0.47787248652E+02  0.19999897905E+02 0.  0.
        -12    1    1    2    0    0  0.13701873369E+02 -0.13836830765E+02  0.38786930765E+02  0.43400751348E+02  0.00000000000E+00 0.  1.
         11    1    3    3    0    0  0.20551725272E+01  0.32985282172E+01 -0.12472174688E+02  0.13063658149E+02  0.51100000000E-03 0.  1.
        -11    1    3    3    0    0 -0.97638866037E+01  0.12563387382E+02 -0.21628886005E+02  0.26851087394E+02  0.51100000000E-03 0. -1.
        -12    1    3    3    0    0 -0.59931592921E+01 -0.20250848349E+01 -0.46858700710E+01  0.78725031097E+01  0.00000000000E+00 0.  1.
</event>
<event>
 7    1  0.1322363E-009  0.4778727E+02  0.7816164E-02  0.1312668E+00
        -11   -1    0    0    0    0  0.00000000000E+00  0.00000000000E+00  0.45593999997E+02  0.45594000000E+02  0.51100000000E-03 0. -1.
         11   -1    0    0    0    0 -0.00000000000E+00 -0.00000000000E+00 -0.45593999997E+02  0.45594000000E+02  0.51100000000E-03 0.  1.
    9900012    2    1    2    0    0  0.29328667466E+02  0.26894924313E+02  0.17323843401E+02  0.47787271442E+02  0.20000001814E+02 0.  0.
        -12    1    1    2    0    0 -0.29328667466E+02 -0.26894924313E+02 -0.17323843401E+02  0.43400728558E+02  0.00000000000E+00 0.  1.
         11    1    3    3    0    0  0.18954289102E+02  0.20381437913E+02  0.14241541855E+02  0.31264830104E+02  0.51100000000E-03 0. -1.
        -11    1    3    3    0    0  0.29823313499E+01  0.79163538286E+01  0.30673991607E+01  0.89984385363E+01  0.51100000000E-03 0.  1.
         12    1    3    3    0    0  0.73920470141E+01 -0.14028674283E+01  0.14902384936E-01  0.75240028018E+01  0.00000000000E+00 0. -1.
</event>
<event>
 7    1  0.1322363E-009  0.4778727E+02  0.7816164E-02  0.1312668E+00
        -11   -1    0    0    0    0  0.00000000000E+00  0.00000000000E+00  0.45593999997E+02  0.45594000000E+02  0.51100000000E-03 0.  1.
         11   -1    0    0    0    0 -0.00000000000E+00 -0.00000000000E+00 -0.45593999997E+02  0.45594000000E+02  0.51100000000E-03 0. -1.
    9900012    2    1    2    0    0 -0.59353858757E+01  0.26227322462E+02 -0.34066436661E+02  0.47787270101E+02  0.19999995698E+02 0.  0.
        -12    1    1    2    0    0  0.59353858757E+01 -0.26227322462E+02  0.34066436661E+02  0.43400729899E+02  0.00000000000E+00 0.  1.
         11    1    3    3    0    0 -0.53726488609E+01  0.15073249518E+02 -0.13569792387E+02  0.20981121812E+02  0.51100000000E-03 0. -1.
        -11    1    3    3    0    0 -0.10444752973E+01  0.10887727065E+02 -0.63471323083E+01  0.12645932867E+02  0.51100000000E-03 0.  1.
        -12    1    3    3    0    0  0.48173828248E+00  0.26634587851E+00 -0.14149511966E+02  0.14160215421E+02  0.00000000000E+00 0.  1.
</event>
<event>
 7    1  0.1322363E-009  0.4778727E+02  0.7816164E-02  0.1312668E+00
        -11   -1    0    0    0    0  0.00000000000E+00  0.00000000000E+00  0.45593999997E+02  0.45594000000E+02  0.51100000000E-03 0.  1.
         11   -1    0    0    0    0 -0.00000000000E+00 -0.00000000000E+00 -0.45593999997E+02  0.45594000000E+02  0.51100000000E-03 0. -1.
    9900012    2    1    2    0    0  0.26507823199E+02  0.82292334842E+01 -0.33365226909E+02  0.47787270269E+02  0.19999996464E+02 0.  0.
        -12    1    1    2    0    0 -0.26507823199E+02 -0.82292334842E+01  0.33365226909E+02  0.43400729731E+02  0.00000000000E+00 0.  1.
         11    1    3    3    0    0  0.18738758047E+02  0.42482472542E+01 -0.29759334335E+02  0.35423249966E+02  0.51100000000E-03 0. -1.
        -11    1    3    3    0    0 -0.15245725582E+01 -0.17573041426E+00 -0.10737059263E+01  0.18729782009E+01  0.51100000000E-03 0.  1.
        -12    1    3    3    0    0  0.92936377104E+01  0.41567166443E+01 -0.25321866481E+01  0.10491042101E+02  0.00000000000E+00 0.  1.
</event>
<event>
 7    1  0.1322363E-009  0.4778727E+02  0.7816164E-02  0.1312668E+00
        -11   -1    0    0    0    0  0.00000000000E+00  0.00000000000E+00  0.45593999997E+02  0.45594000000E+02  0.51100000000E-03 0.  1.
         11   -1    0    0    0    0 -0.00000000000E+00 -0.00000000000E+00 -0.45593999997E+02  0.45594000000E+02  0.51100000000E-03 0. -1.
    9900012    2    1    2    0    0 -0.22511004067E+02 -0.29683998739E+02 -0.22265172612E+02  0.47787274238E+02  0.20000014561E+02 0.  0.
        -12    1    1    2    0    0  0.22511004067E+02  0.29683998739E+02  0.22265172612E+02  0.43400725762E+02  0.00000000000E+00 0.  1.
         11    1    3    3    0    0  0.38105261033E+00 -0.90139862319E+01 -0.24907668600E+01  0.93595442567E+01  0.51100000000E-03 0. -1.
        -11    1    3    3    0    0 -0.18768360423E+02 -0.12940670534E+02 -0.89227107093E+01  0.24481157520E+02  0.51100000000E-03 0.  1.
         12    1    3    3    0    0 -0.41236962545E+01 -0.77293419729E+01 -0.10851695042E+02  0.13946572462E+02  0.00000000000E+00 0. -1.
</event>
<event>
 7    1  0.1322363E-009  0.4778727E+02  0.7816164E-02  0.1312668E+00
        -11   -1    0    0    0    0  0.00000000000E+00  0.00000000000E+00  0.45593999997E+02  0.45594000000E+02  0.51100000000E-03 0. -1.
         11   -1    0    0    0    0 -0.00000000000E+00 -0.00000000000E+00 -0.45593999997E+02  0.45594000000E+02  0.51100000000E-03 0.  1.
    9900012    2    1    2    0    0 -0.32199633103E+02  0.28566316281E+02  0.55472961748E+01  0.47787270828E+02  0.19999999011E+02 0.  0.
        -12    1    1    2    0    0  0.32199633103E+02 -0.28566316281E+02 -0.55472961748E+01  0.43400729172E+02  0.00000000000E+00 0.  1.
         11    1    3    3    0    0 -0.85799989003E+01  0.88385378610E+01  0.46801417603E+01  0.13177247809E+02  0.51100000000E-03 0. -1.
        -11    1    3    3    0    0 -0.41353992392E+01 -0.38514419312E+00 -0.44714128657E+01  0.61027367790E+01  0.51100000000E-03 0.  1.
        -12    1    3    3    0    0 -0.19484234964E+02  0.20112922613E+02  0.53385672802E+01  0.28507286240E+02  0.00000000000E+00 0.  1.
</event>
<event>
 7    1  0.1322363E-009  0.4778727E+02  0.7816164E-02  0.1312668E+00
        -11   -1    0    0    0    0  0.00000000000E+00  0.00000000000E+00  0.45593999997E+02  0.45594000000E+02  0.51100000000E-03 0.  1.
         11   -1    0    0    0    0 -0.00000000000E+00 -0.00000000000E+00 -0.45593999997E+02  0.45594000000E+02  0.51100000000E-03 0. -1.
    9900012    2    1    2    0    0 -0.16918391108E+02  0.34232751260E+02 -0.20627889305E+02  0.47787273811E+02  0.20000012616E+02 0.  0.
        -12    1    1    2    0    0  0.16918391108E+02 -0.34232751260E+02  0.20627889305E+02  0.43400726189E+02  0.00000000000E+00 0.  1.
         11    1    3    3    0    0 -0.15117590592E+02  0.20874675924E+02 -0.42967612559E+01  0.26129596205E+02  0.51100000000E-03 0. -1.
        -11    1    3    3    0    0 -0.10150871794E+01  0.14826798605E+01 -0.46349554666E+01  0.49710717143E+01  0.51100000000E-03 0.  1.
         12    1    3    3    0    0 -0.78571333658E+00  0.11875395475E+02 -0.11696172583E+02  0.16686605893E+02  0.00000000000E+00 0. -1.
</event>
<event>
 7    1  0.1322363E-009  0.4778727E+02  0.7816164E-02  0.1312668E+00
        -11   -1    0    0    0    0  0.00000000000E+00  0.00000000000E+00  0.45593999997E+02  0.45594000000E+02  0.51100000000E-03 0.  1.
         11   -1    0    0    0    0 -0.00000000000E+00 -0.00000000000E+00 -0.45593999997E+02  0.45594000000E+02  0.51100000000E-03 0. -1.
    9900012    2    1    2    0    0  0.13307565874E+02  0.33666876818E+01 -0.41172774299E+02  0.47787271447E+02  0.20000001836E+02 0.  0.
        -12    1    1    2    0    0 -0.13307565874E+02 -0.33666876818E+01  0.41172774299E+02  0.43400728553E+02  0.00000000000E+00 0.  1.
         11    1    3    3    0    0 -0.11641805458E+01 -0.16701229693E+01 -0.34327892517E+01  0.39910737131E+01  0.51100000000E-03 0. -1.
        -11    1    3    3    0    0  0.12760858655E+02  0.10481919993E+02 -0.27985285932E+02  0.32494405508E+02  0.51100000000E-03 0.  1.
        -12    1    3    3    0    0  0.17108877650E+01 -0.54451093419E+01 -0.97546991152E+01  0.11301792226E+02  0.00000000000E+00 0.  1.
</event>
<event>
 7    1  0.1322363E-009  0.4778727E+02  0.7816164E-02  0.1312668E+00
        -11   -1    0    0    0    0  0.00000000000E+00  0.00000000000E+00  0.45593999997E+02  0.45594000000E+02  0.51100000000E-03 0.  1.
         11   -1    0    0    0    0 -0.00000000000E+00 -0.00000000000E+00 -0.45593999997E+02  0.45594000000E+02  0.51100000000E-03 0. -1.
    9900012    2    1    2    0    0 -0.18199750137E+02  0.19257681493E+02 -0.34373448227E+02  0.47787272534E+02  0.20000006793E+02 0.  0.
        -12    1    1    2    0    0  0.18199750137E+02 -0.19257681493E+02  0.34373448227E+02  0.43400727466E+02  0.00000000000E+00 0.  1.
         11    1    3    3    0    0 -0.40935186488E+01  0.19625677817E+01 -0.98288065695E+01  0.10826541741E+02  0.51100000000E-03 0. -1.
        -11    1    3    3    0    0 -0.11853520653E+02  0.16850553574E+02 -0.11258568765E+02  0.23477701730E+02  0.51100000000E-03 0.  1.
        -12    1    3    3    0    0 -0.22527108353E+01  0.44456013733E+00 -0.13286072892E+02  0.13483029063E+02  0.00000000000E+00 0.  1.
</event>
<event>
 7    1  0.1322363E-009  0.4778727E+02  0.7816164E-02  0.1312668E+00
        -11   -1    0    0    0    0  0.00000000000E+00  0.00000000000E+00  0.45593999997E+02  0.45594000000E+02  0.51100000000E-03 0.  1.
         11   -1    0    0    0    0 -0.00000000000E+00 -0.00000000000E+00 -0.45593999997E+02  0.45594000000E+02  0.51100000000E-03 0. -1.
    9900012    2    1    2    0    0  0.36214574897E+00 -0.36824556732E+02 -0.22966152014E+02  0.47787271130E+02  0.20000000392E+02 0.  0.
        -12    1    1    2    0    0 -0.36214574897E+00  0.36824556732E+02  0.22966152014E+02  0.43400728870E+02  0.00000000000E+00 0.  1.
         11    1    3    3    0    0  0.45355175184E+01 -0.20012250332E+02 -0.99074823157E+01  0.22786383842E+02  0.51100000000E-03 0. -1.
        -11    1    3    3    0    0 -0.15791250390E+01  0.18643659611E+01 -0.18540651801E+01  0.30670921537E+01  0.51100000000E-03 0.  1.
         12    1    3    3    0    0 -0.25942467304E+01 -0.18676672362E+02 -0.11204604518E+02  0.21933795135E+02  0.00000000000E+00 0. -1.
</event>
<event>
 7    1  0.1521608E-009  0.4778727E+02  0.7816164E-02  0.1312668E+00
        -11   -1    0    0    0    0  0.00000000000E+00  0.00000000000E+00  0.45593999997E+02  0.45594000000E+02  0.51100000000E-03 0. -1.
         11   -1    0    0    0    0 -0.00000000000E+00 -0.00000000000E+00 -0.45593999997E+02  0.45594000000E+02  0.51100000000E-03 0.  1.
    9900012    2    1    2    0    0 -0.24800976769E+02 -0.32436175041E+02  0.14711537194E+02  0.47787271590E+02  0.20000002485E+02 0.  0.
        -12    1    1    2    0    0  0.24800976769E+02  0.32436175041E+02 -0.14711537194E+02  0.43400728410E+02  0.00000000000E+00 0.  1.
         11    1    3    3    0    0 -0.11544343594E+02 -0.90069448638E+01  0.10250336698E+02  0.17873620995E+02  0.51100000000E-03 0. -1.
        -11    1    3    3    0    0  0.41235968072E+00 -0.47616930989E+00 -0.22766547146E+01  0.23621885337E+01  0.51100000000E-03 0.  1.
         12    1    3    3    0    0 -0.13668992856E+02 -0.22953060867E+02  0.67378552103E+01  0.27551462061E+02  0.00000000000E+00 0. -1.
</event>
<event>
 7    1  0.1322363E-009  0.4778727E+02  0.7816164E-02  0.1312668E+00
        -11   -1    0    0    0    0  0.00000000000E+00  0.00000000000E+00  0.45593999997E+02  0.45594000000E+02  0.51100000000E-03 0.  1.
         11   -1    0    0    0    0 -0.00000000000E+00 -0.00000000000E+00 -0.45593999997E+02  0.45594000000E+02  0.51100000000E-03 0. -1.
    9900012    2    1    2    0    0  0.44358479740E+01  0.19314116105E+02 -0.38612323215E+02  0.47787270372E+02  0.19999996935E+02 0.  0.
        -12    1    1    2    0    0 -0.44358479740E+01 -0.19314116105E+02  0.38612323215E+02  0.43400729628E+02  0.00000000000E+00 0.  1.
         11    1    3    3    0    0  0.17489145733E+00 -0.22290653700E-01 -0.61676069110E+01  0.61701263492E+01  0.51100000000E-03 0. -1.
        -11    1    3    3    0    0  0.82021355353E+01  0.94166634273E+01 -0.26744666661E+02  0.29516533884E+02  0.51100000000E-03 0.  1.
         12    1    3    3    0    0 -0.39411790187E+01  0.99197433311E+01 -0.57000496431E+01  0.12100610139E+02  0.00000000000E+00 0. -1.
</event>
<event>
 7    1  0.1322363E-009  0.4778727E+02  0.7816164E-02  0.1312668E+00
        -11   -1    0    0    0    0  0.00000000000E+00  0.00000000000E+00  0.45593999997E+02  0.45594000000E+02  0.51100000000E-03 0.  1.
         11   -1    0    0    0    0 -0.00000000000E+00 -0.00000000000E+00 -0.45593999997E+02  0.45594000000E+02  0.51100000000E-03 0. -1.
    9900012    2    1    2    0    0  0.25680923065E+02 -0.28764449441E+02 -0.19917829825E+02  0.47787270674E+02  0.19999998309E+02 0.  0.
        -12    1    1    2    0    0 -0.25680923065E+02  0.28764449441E+02  0.19917829825E+02  0.43400729326E+02  0.00000000000E+00 0.  1.
         11    1    3    3    0    0  0.59252702533E+01 -0.58924670291E+01 -0.19318540382E+01  0.85768324894E+01  0.51100000000E-03 0. -1.
        -11    1    3    3    0    0  0.13118817969E+02 -0.94713540124E+01 -0.48104877597E+00  0.16187691001E+02  0.51100000000E-03 0.  1.
         12    1    3    3    0    0  0.66368348427E+01 -0.13400628399E+02 -0.17504927011E+02  0.23022747184E+02  0.00000000000E+00 0. -1.
</event>
<event>
 7    1  0.1349998E-009  0.4778727E+02  0.7816164E-02  0.1312668E+00
        -11   -1    0    0    0    0  0.00000000000E+00  0.00000000000E+00  0.45593999997E+02  0.45594000000E+02  0.51100000000E-03 0.  1.
         11   -1    0    0    0    0 -0.00000000000E+00 -0.00000000000E+00 -0.45593999997E+02  0.45594000000E+02  0.51100000000E-03 0. -1.
    9900012    2    1    2    0    0  0.42454089773E+02 -0.40323910625E+01 -0.80631010374E+01  0.47787268273E+02  0.19999987362E+02 0.  0.
        -12    1    1    2    0    0 -0.42454089773E+02  0.40323910625E+01  0.80631010374E+01  0.43400731727E+02  0.00000000000E+00 0.  1.
         11    1    3    3    0    0  0.26905883383E+02  0.76312924452E+00 -0.10225690900E+02  0.28793639601E+02  0.51100000000E-03 0. -1.
        -11    1    3    3    0    0 -0.13138298698E+01  0.47030281621E-02 -0.93093900958E-01  0.13171324082E+01  0.51100000000E-03 0.  1.
        -12    1    3    3    0    0  0.16862036260E+02 -0.48002233351E+01  0.22556837633E+01  0.17676496263E+02  0.00000000000E+00 0.  1.
</event>
<event>
 7    1  0.1865496E-009  0.4778726E+02  0.7816164E-02  0.1312668E+00
        -11   -1    0    0    0    0  0.00000000000E+00  0.00000000000E+00  0.45593999997E+02  0.45594000000E+02  0.51100000000E-03 0.  1.
         11   -1    0    0    0    0 -0.00000000000E+00 -0.00000000000E+00 -0.45593999997E+02  0.45594000000E+02  0.51100000000E-03 0. -1.
    9900012    2    1    2    0    0 -0.94899163486E+00  0.43113920097E+02 -0.48901160704E+01  0.47787263526E+02  0.19999965721E+02 0.  0.
        -12    1    1    2    0    0  0.94899163486E+00 -0.43113920097E+02  0.48901160704E+01  0.43400736474E+02  0.00000000000E+00 0.  1.
         11    1    3    3    0    0  0.20638328978E+01  0.26145912896E+02 -0.10581238357E+02  0.28281279547E+02  0.51100000000E-03 0. -1.
        -11    1    3    3    0    0  0.17576699438E+01  0.24053226841E+01  0.24163224167E+01  0.38358304353E+01  0.51100000000E-03 0.  1.
         12    1    3    3    0    0 -0.47704944765E+01  0.14562684517E+02  0.32747998697E+01  0.15670153543E+02  0.00000000000E+00 0. -1.
</event>
<event>
 7    1  0.1322363E-009  0.4778727E+02  0.7816164E-02  0.1312668E+00
        -11   -1    0    0    0    0  0.00000000000E+00  0.00000000000E+00  0.45593999997E+02  0.45594000000E+02  0.51100000000E-03 0.  1.
         11   -1    0    0    0    0 -0.00000000000E+00 -0.00000000000E+00 -0.45593999997E+02  0.45594000000E+02  0.51100000000E-03 0. -1.
    9900012    2    1    2    0    0  0.10818816443E+02  0.81801315519E+01 -0.41226954583E+02  0.47787272752E+02  0.20000007788E+02 0.  0.
        -12    1    1    2    0    0 -0.10818816443E+02 -0.81801315519E+01  0.41226954583E+02  0.43400727248E+02  0.00000000000E+00 0.  1.
         11    1    3    3    0    0  0.85893030137E+01 -0.67530773213E-01 -0.14278396092E+02  0.16662931371E+02  0.51100000000E-03 0. -1.
        -11    1    3    3    0    0 -0.31337409927E+01  0.23314375658E+01 -0.10816386621E+01  0.40528849217E+01  0.51100000000E-03 0.  1.
         12    1    3    3    0    0  0.53632544223E+01  0.59162247593E+01 -0.25866919829E+02  0.27071456460E+02  0.00000000000E+00 0. -1.
</event>
<event>
 7    1  0.1322363E-009  0.4778727E+02  0.7816164E-02  0.1312668E+00
        -11   -1    0    0    0    0  0.00000000000E+00  0.00000000000E+00  0.45593999997E+02  0.45594000000E+02  0.51100000000E-03 0.  1.
         11   -1    0    0    0    0 -0.00000000000E+00 -0.00000000000E+00 -0.45593999997E+02  0.45594000000E+02  0.51100000000E-03 0. -1.
    9900012    2    1    2    0    0 -0.60046884439E+01 -0.15998567328E+01 -0.42953546651E+02  0.47787274260E+02  0.20000014659E+02 0.  0.
        -12    1    1    2    0    0  0.60046884439E+01  0.15998567328E+01  0.42953546651E+02  0.43400725740E+02  0.00000000000E+00 0.  1.
         11    1    3    3    0    0 -0.43391214756E+00 -0.31919641021E+01 -0.61970084245E+00  0.32803877784E+01  0.51100000000E-03 0. -1.
        -11    1    3    3    0    0 -0.65287808716E+01  0.48711996409E+01 -0.16018167330E+02  0.17970399286E+02  0.51100000000E-03 0.  1.
         12    1    3    3    0    0  0.95800457520E+00 -0.32790922716E+01 -0.26315678479E+02  0.26536487196E+02  0.00000000000E+00 0. -1.
</event>
<event>
 7    1  0.1322363E-009  0.4778727E+02  0.7816164E-02  0.1312668E+00
        -11   -1    0    0    0    0  0.00000000000E+00  0.00000000000E+00  0.45593999997E+02  0.45594000000E+02  0.51100000000E-03 0. -1.
         11   -1    0    0    0    0 -0.00000000000E+00 -0.00000000000E+00 -0.45593999997E+02  0.45594000000E+02  0.51100000000E-03 0.  1.
    9900012    2    1    2    0    0 -0.40827102435E+01 -0.24912564271E+02  0.35303239144E+02  0.47787273330E+02  0.20000010420E+02 0.  0.
        -12    1    1    2    0    0  0.40827102435E+01  0.24912564271E+02 -0.35303239144E+02  0.43400726670E+02  0.00000000000E+00 0.  1.
         11    1    3    3    0    0 -0.42198519853E+01 -0.11103596835E+02  0.11890775800E+02  0.16807366327E+02  0.51100000000E-03 0. -1.
        -11    1    3    3    0    0 -0.16357481463E+01 -0.19096279209E+00  0.14533802009E+02  0.14626808944E+02  0.51100000000E-03 0.  1.
        -12    1    3    3    0    0  0.17728898881E+01 -0.13618004643E+02  0.88786613337E+01  0.16353098058E+02  0.00000000000E+00 0.  1.
</event>
<event>
 7    1  0.1322363E-009  0.4778727E+02  0.7816164E-02  0.1312668E+00
        -11   -1    0    0    0    0  0.00000000000E+00  0.00000000000E+00  0.45593999997E+02  0.45594000000E+02  0.51100000000E-03 0. -1.
         11   -1    0    0    0    0 -0.00000000000E+00 -0.00000000000E+00 -0.45593999997E+02  0.45594000000E+02  0.51100000000E-03 0.  1.
    9900012    2    1    2    0    0  0.40790824034E+02 -0.59611944879E+01  0.13571884477E+02  0.47787271741E+02  0.20000003178E+02 0.  0.
        -12    1    1    2    0    0 -0.40790824034E+02  0.59611944879E+01 -0.13571884477E+02  0.43400728259E+02  0.00000000000E+00 0.  1.
         11    1    3    3    0    0  0.28823215993E+01 -0.25930291153E+00  0.54092591877E+01  0.61347453918E+01  0.51100000000E-03 0.  1.
        -11    1    3    3    0    0  0.31220241904E+02 -0.82704230424E+01  0.22713226619E+01  0.32376879231E+02  0.51100000000E-03 0. -1.
         12    1    3    3    0    0  0.66882605309E+01  0.25685314660E+01  0.58913026271E+01  0.92756471184E+01  0.00000000000E+00 0. -1.
</event>
<event>
 7    1  0.1322363E-009  0.4778727E+02  0.7816164E-02  0.1312668E+00
        -11   -1    0    0    0    0  0.00000000000E+00  0.00000000000E+00  0.45593999997E+02  0.45594000000E+02  0.51100000000E-03 0.  1.
         11   -1    0    0    0    0 -0.00000000000E+00 -0.00000000000E+00 -0.45593999997E+02  0.45594000000E+02  0.51100000000E-03 0. -1.
    9900012    2    1    2    0    0 -0.49333669852E+01 -0.27679627750E+02 -0.33062415772E+02  0.47787271448E+02  0.20000001839E+02 0.  0.
        -12    1    1    2    0    0  0.49333669852E+01  0.27679627750E+02  0.33062415772E+02  0.43400728552E+02  0.00000000000E+00 0.  1.
         11    1    3    3    0    0 -0.23746003273E+00 -0.72515339298E+01 -0.55993212503E+01  0.91647984335E+01  0.51100000000E-03 0. -1.
        -11    1    3    3    0    0  0.25175571159E+01 -0.25734433186E+01  0.14520400593E+01  0.38818970801E+01  0.51100000000E-03 0.  1.
        -12    1    3    3    0    0 -0.72134640683E+01 -0.17854650501E+02 -0.28915134581E+02  0.34740575934E+02  0.00000000000E+00 0.  1.
</event>
<event>
 7    1  0.1322363E-009  0.4778726E+02  0.7816164E-02  0.1312668E+00
        -11   -1    0    0    0    0  0.00000000000E+00  0.00000000000E+00  0.45593999997E+02  0.45594000000E+02  0.51100000000E-03 0.  1.
         11   -1    0    0    0    0 -0.00000000000E+00 -0.00000000000E+00 -0.45593999997E+02  0.45594000000E+02  0.51100000000E-03 0. -1.
    9900012    2    1    2    0    0 -0.84039667673E+01 -0.21872725097E+02 -0.36531923953E+02  0.47787260049E+02  0.19999949867E+02 0.  0.
        -12    1    1    2    0    0  0.84039667673E+01  0.21872725097E+02  0.36531923953E+02  0.43400739951E+02  0.00000000000E+00 0.  1.
         11    1    3    3    0    0 -0.52057093364E+01 -0.14407627724E+02 -0.18416013896E+02  0.23954722174E+02  0.51100000000E-03 0.  1.
        -11    1    3    3    0    0  0.37149502577E+01 -0.53385699052E+01 -0.31848717984E+01  0.72418638957E+01  0.51100000000E-03 0. -1.
         12    1    3    3    0    0 -0.69132076886E+01 -0.21265274675E+01 -0.14931038259E+02  0.16590673980E+02  0.00000000000E+00 0. -1.
</event>
<event>
 7    1  0.1322363E-009  0.4778728E+02  0.7816164E-02  0.1312668E+00
        -11   -1    0    0    0    0  0.00000000000E+00  0.00000000000E+00  0.45593999997E+02  0.45594000000E+02  0.51100000000E-03 0.  1.
         11   -1    0    0    0    0 -0.00000000000E+00 -0.00000000000E+00 -0.45593999997E+02  0.45594000000E+02  0.51100000000E-03 0. -1.
    9900012    2    1    2    0    0  0.80369071630E+01  0.15143517969E+02 -0.39871103624E+02  0.47787275151E+02  0.20000018723E+02 0.  0.
        -12    1    1    2    0    0 -0.80369071630E+01 -0.15143517969E+02  0.39871103624E+02  0.43400724849E+02  0.00000000000E+00 0.  1.
         11    1    3    3    0    0 -0.30090302999E+00  0.36022230266E+01 -0.72764815399E+00  0.36872788698E+01  0.51100000000E-03 0. -1.
        -11    1    3    3    0    0  0.50443741393E+01  0.14048235124E+02 -0.22881874575E+02  0.27319934204E+02  0.51100000000E-03 0.  1.
         12    1    3    3    0    0  0.32934360537E+01 -0.25069401818E+01 -0.16261580895E+02  0.16780062078E+02  0.00000000000E+00 0. -1.
</event>
<event>
 7    1  0.1322363E-009  0.4778727E+02  0.7816164E-02  0.1312668E+00
        -11   -1    0    0    0    0  0.00000000000E+00  0.00000000000E+00  0.45593999997E+02  0.45594000000E+02  0.51100000000E-03 0.  1.
         11   -1    0    0    0    0 -0.00000000000E+00 -0.00000000000E+00 -0.45593999997E+02  0.45594000000E+02  0.51100000000E-03 0. -1.
    9900012    2    1    2    0    0  0.17689135542E+02 -0.14430263883E+02 -0.36911858368E+02  0.47787270511E+02  0.19999997570E+02 0.  0.
        -12    1    1    2    0    0 -0.17689135542E+02  0.14430263883E+02  0.36911858368E+02  0.43400729489E+02  0.00000000000E+00 0.  1.
         11    1    3    3    0    0  0.12355030000E+02 -0.81762262899E+01 -0.25102234703E+02  0.29148235452E+02  0.51100000000E-03 0. -1.
        -11    1    3    3    0    0 -0.28946121986E+01  0.70300641323E+00 -0.52147912619E+01  0.60055845647E+01  0.51100000000E-03 0.  1.
         12    1    3    3    0    0  0.82287177409E+01 -0.69570440068E+01 -0.65948324031E+01  0.12633450495E+02  0.00000000000E+00 0. -1.
</event>
<event>
 7    1  0.1322363E-009  0.4778727E+02  0.7816164E-02  0.1312668E+00
        -11   -1    0    0    0    0  0.00000000000E+00  0.00000000000E+00  0.45593999997E+02  0.45594000000E+02  0.51100000000E-03 0.  1.
         11   -1    0    0    0    0 -0.00000000000E+00 -0.00000000000E+00 -0.45593999997E+02  0.45594000000E+02  0.51100000000E-03 0. -1.
    9900012    2    1    2    0    0 -0.97111860940E+01 -0.29150915124E+02 -0.30651920177E+02  0.47787271913E+02  0.20000003962E+02 0.  0.
        -12    1    1    2    0    0  0.97111860940E+01  0.29150915124E+02  0.30651920177E+02  0.43400728087E+02  0.00000000000E+00 0.  1.
         11    1    3    3    0    0 -0.11362259205E+02 -0.27627517512E+02 -0.21869074078E+02  0.37022115814E+02  0.51100000000E-03 0. -1.
        -11    1    3    3    0    0 -0.14899804965E+01  0.70982489127E+00 -0.66588039943E+00  0.17796882378E+01  0.51100000000E-03 0.  1.
         12    1    3    3    0    0  0.31410536072E+01 -0.22332225035E+01 -0.81169656996E+01  0.89854678611E+01  0.00000000000E+00 0. -1.
</event>
<event>
 7    1  0.1322363E-009  0.4778728E+02  0.7816164E-02  0.1312668E+00
        -11   -1    0    0    0    0  0.00000000000E+00  0.00000000000E+00  0.45593999997E+02  0.45594000000E+02  0.51100000000E-03 0.  1.
         11   -1    0    0    0    0 -0.00000000000E+00 -0.00000000000E+00 -0.45593999997E+02  0.45594000000E+02  0.51100000000E-03 0. -1.
    9900012    2    1    2    0    0 -0.31699821948E+02 -0.66042350377E+01 -0.28898586160E+02  0.47787275190E+02  0.20000018903E+02 0.  0.
        -12    1    1    2    0    0  0.31699821948E+02  0.66042350377E+01  0.28898586160E+02  0.43400724810E+02  0.00000000000E+00 0.  1.
         11    1    3    3    0    0 -0.50280696102E+01 -0.80030773034E+01 -0.23766730539E+01  0.97457326762E+01  0.51100000000E-03 0. -1.
        -11    1    3    3    0    0 -0.90699817155E+01  0.25851763574E+01 -0.71115075450E+01  0.11811911147E+02  0.51100000000E-03 0.  1.
         12    1    3    3    0    0 -0.17601770623E+02 -0.11863340916E+01 -0.19410405561E+02  0.26229631367E+02  0.00000000000E+00 0. -1.
</event>
<event>
 7    1  0.1322363E-009  0.4778727E+02  0.7816164E-02  0.1312668E+00
        -11   -1    0    0    0    0  0.00000000000E+00  0.00000000000E+00  0.45593999997E+02  0.45594000000E+02  0.51100000000E-03 0. -1.
         11   -1    0    0    0    0 -0.00000000000E+00 -0.00000000000E+00 -0.45593999997E+02  0.45594000000E+02  0.51100000000E-03 0.  1.
    9900012    2    1    2    0    0  0.59654757440E+01  0.40574211966E+02  0.14204565812E+02  0.47787271119E+02  0.20000000338E+02 0.  0.
        -12    1    1    2    0    0 -0.59654757440E+01 -0.40574211966E+02 -0.14204565812E+02  0.43400728881E+02  0.00000000000E+00 0.  1.
         11    1    3    3    0    0  0.34655415040E+01  0.76272876759E+01  0.32116482787E+00  0.83838321974E+01  0.51100000000E-03 0. -1.
        -11    1    3    3    0    0 -0.38859241942E+01  0.17613641430E+02  0.13935599833E+02  0.22793457707E+02  0.51100000000E-03 0.  1.
        -12    1    3    3    0    0  0.63858584342E+01  0.15333282860E+02 -0.52198848869E-01  0.16609981214E+02  0.00000000000E+00 0.  1.
</event>
<event>
 7    1  0.1322363E-009  0.4778727E+02  0.7816164E-02  0.1312668E+00
        -11   -1    0    0    0    0  0.00000000000E+00  0.00000000000E+00  0.45593999997E+02  0.45594000000E+02  0.51100000000E-03 0. -1.
         11   -1    0    0    0    0 -0.00000000000E+00 -0.00000000000E+00 -0.45593999997E+02  0.45594000000E+02  0.51100000000E-03 0.  1.
    9900012    2    1    2    0    0 -0.15220053159E+02  0.26540627793E+02  0.30782602499E+02  0.47787267766E+02  0.19999985053E+02 0.  0.
        -12    1    1    2    0    0  0.15220053159E+02 -0.26540627793E+02 -0.30782602499E+02  0.43400732234E+02  0.00000000000E+00 0.  1.
         11    1    3    3    0    0 -0.11116815590E+02  0.14926638595E+02  0.16906101551E+02  0.25143675119E+02  0.51100000000E-03 0. -1.
        -11    1    3    3    0    0 -0.85821245558E+01  0.51556400396E+01  0.83331300025E+01  0.13025918087E+02  0.51100000000E-03 0.  1.
        -12    1    3    3    0    0  0.44788869866E+01  0.64583491591E+01  0.55433709454E+01  0.96176745597E+01  0.00000000000E+00 0.  1.
</event>
<event>
 7    1  0.1322363E-009  0.4778727E+02  0.7816164E-02  0.1312668E+00
        -11   -1    0    0    0    0  0.00000000000E+00  0.00000000000E+00  0.45593999997E+02  0.45594000000E+02  0.51100000000E-03 0. -1.
         11   -1    0    0    0    0 -0.00000000000E+00 -0.00000000000E+00 -0.45593999997E+02  0.45594000000E+02  0.51100000000E-03 0.  1.
    9900012    2    1    2    0    0  0.42383993692E+02  0.53770988802E+01  0.76359006137E+01  0.47787273141E+02  0.20000009560E+02 0.  0.
        -12    1    1    2    0    0 -0.42383993692E+02 -0.53770988802E+01 -0.76359006137E+01  0.43400726859E+02  0.00000000000E+00 0.  1.
         11    1    3    3    0    0  0.60148334463E+01  0.77910763843E+01  0.52745336288E+01  0.11166906370E+02  0.51100000000E-03 0.  1.
        -11    1    3    3    0    0  0.10139451299E+02 -0.74831228322E+00 -0.52022566974E+00  0.10180328037E+02  0.51100000000E-03 0. -1.
        -12    1    3    3    0    0  0.26229708947E+02 -0.16656652209E+01  0.28815926547E+01  0.26440038735E+02  0.00000000000E+00 0.  1.
</event>
<event>
 7    1  0.1322363E-009  0.4778727E+02  0.7816164E-02  0.1312668E+00
        -11   -1    0    0    0    0  0.00000000000E+00  0.00000000000E+00  0.45593999997E+02  0.45594000000E+02  0.51100000000E-03 0.  1.
         11   -1    0    0    0    0 -0.00000000000E+00 -0.00000000000E+00 -0.45593999997E+02  0.45594000000E+02  0.51100000000E-03 0. -1.
    9900012    2    1    2    0    0  0.26206981765E+02 -0.20746869541E+01 -0.34532781713E+02  0.47787271527E+02  0.20000002200E+02 0.  0.
        -12    1    1    2    0    0 -0.26206981765E+02  0.20746869541E+01  0.34532781713E+02  0.43400728473E+02  0.00000000000E+00 0.  1.
         11    1    3    3    0    0  0.93644327846E+01  0.25159688465E+01 -0.16642196471E+02  0.19260981394E+02  0.51100000000E-03 0. -1.
        -11    1    3    3    0    0  0.44471292496E+01  0.88065405782E+00  0.15838010770E+01  0.48021803637E+01  0.51100000000E-03 0.  1.
         12    1    3    3    0    0  0.12395419730E+02 -0.54713098584E+01 -0.19474386319E+02  0.23724109769E+02  0.00000000000E+00 0. -1.
</event>
<event>
 7    1  0.1322363E-009  0.4778727E+02  0.7816164E-02  0.1312668E+00
        -11   -1    0    0    0    0  0.00000000000E+00  0.00000000000E+00  0.45593999997E+02  0.45594000000E+02  0.51100000000E-03 0. -1.
         11   -1    0    0    0    0 -0.00000000000E+00 -0.00000000000E+00 -0.45593999997E+02  0.45594000000E+02  0.51100000000E-03 0.  1.
    9900012    2    1    2    0    0  0.35100481098E+02  0.17794107731E+02  0.18301615787E+02  0.47787272083E+02  0.20000004737E+02 0.  0.
        -12    1    1    2    0    0 -0.35100481098E+02 -0.17794107731E+02 -0.18301615787E+02  0.43400727917E+02  0.00000000000E+00 0.  1.
         11    1    3    3    0    0  0.19745618880E+02  0.67671987551E+01  0.10893261474E+02  0.23544587271E+02  0.51100000000E-03 0. -1.
        -11    1    3    3    0    0 -0.97054860005E+00 -0.16132380344E+01 -0.77136095697E+00  0.20345760069E+01  0.51100000000E-03 0.  1.
         12    1    3    3    0    0  0.16325410819E+02  0.12640147010E+02  0.81797152699E+01  0.22208108806E+02  0.00000000000E+00 0. -1.
</event>
<event>
 7    1  0.1322363E-009  0.4778731E+02  0.7816164E-02  0.1312668E+00
        -11   -1    0    0    0    0  0.00000000000E+00  0.00000000000E+00  0.45593999997E+02  0.45594000000E+02  0.51100000000E-03 0.  1.
         11   -1    0    0    0    0 -0.00000000000E+00 -0.00000000000E+00 -0.45593999997E+02  0.45594000000E+02  0.51100000000E-03 0. -1.
    9900012    2    1    2    0    0  0.11515846466E+02 -0.32346815573E+02 -0.26545975195E+02  0.47787308801E+02  0.20000172146E+02 0.  0.
        -12    1    1    2    0    0 -0.11515846466E+02  0.32346815573E+02  0.26545975195E+02  0.43400691199E+02  0.00000000000E+00 0.  1.
         11    1    3    3    0    0  0.58170918977E+01 -0.24971197291E+02 -0.13930947645E+02  0.29179968383E+02  0.51100000000E-03 0. -1.
        -11    1    3    3    0    0 -0.19579589016E+01 -0.42161418830E+01 -0.76459511752E+01  0.89481855743E+01  0.51100000000E-03 0.  1.
        -12    1    3    3    0    0  0.76567134700E+01 -0.31594763991E+01 -0.49690763744E+01  0.96591548436E+01  0.00000000000E+00 0.  1.
</event>
<event>
 7    1  0.1322363E-009  0.4778727E+02  0.7816164E-02  0.1312668E+00
        -11   -1    0    0    0    0  0.00000000000E+00  0.00000000000E+00  0.45593999997E+02  0.45594000000E+02  0.51100000000E-03 0. -1.
         11   -1    0    0    0    0 -0.00000000000E+00 -0.00000000000E+00 -0.45593999997E+02  0.45594000000E+02  0.51100000000E-03 0.  1.
    9900012    2    1    2    0    0 -0.42802545893E+02 -0.89091421226E+00  0.71254297305E+01  0.47787269455E+02  0.19999992752E+02 0.  0.
        -12    1    1    2    0    0  0.42802545893E+02  0.89091421226E+00 -0.71254297305E+01  0.43400730545E+02  0.00000000000E+00 0.  1.
         11    1    3    3    0    0 -0.15156582128E+02  0.51449040700E+01 -0.59239864632E+00  0.16016958391E+02  0.51100000000E-03 0. -1.
        -11    1    3    3    0    0 -0.95507717346E+01 -0.71645246661E+01  0.65123011826E+01  0.13599916227E+02  0.51100000000E-03 0.  1.
        -12    1    3    3    0    0 -0.18095192030E+02  0.11287063839E+01  0.12055271942E+01  0.18170394837E+02  0.00000000000E+00 0.  1.
</event>
<event>
 7    1  0.1322363E-009  0.4778727E+02  0.7816164E-02  0.1312668E+00
        -11   -1    0    0    0    0  0.00000000000E+00  0.00000000000E+00  0.45593999997E+02  0.45594000000E+02  0.51100000000E-03 0.  1.
         11   -1    0    0    0    0 -0.00000000000E+00 -0.00000000000E+00 -0.45593999997E+02  0.45594000000E+02  0.51100000000E-03 0. -1.
    9900012    2    1    2    0    0 -0.20867188294E+02 -0.36863031127E+02 -0.94498909608E+01  0.47787273619E+02  0.20000011740E+02 0.  0.
        -12    1    1    2    0    0  0.20867188294E+02  0.36863031127E+02  0.94498909608E+01  0.43400726381E+02  0.00000000000E+00 0.  1.
         11    1    3    3    0    0  0.24752410714E+01 -0.29163683671E+01 -0.44968199737E+01  0.59036779173E+01  0.51100000000E-03 0. -1.
        -11    1    3    3    0    0 -0.22178108209E+01 -0.70240050576E+01 -0.10643988738E+01  0.74423300861E+01  0.51100000000E-03 0.  1.
        -12    1    3    3    0    0 -0.21124618545E+02 -0.26922657702E+02 -0.38886721133E+01  0.34441265616E+02  0.00000000000E+00 0.  1.
</event>
<event>
 7    1  0.1322363E-009  0.4778727E+02  0.7816164E-02  0.1312668E+00
        -11   -1    0    0    0    0  0.00000000000E+00  0.00000000000E+00  0.45593999997E+02  0.45594000000E+02  0.51100000000E-03 0. -1.
         11   -1    0    0    0    0 -0.00000000000E+00 -0.00000000000E+00 -0.45593999997E+02  0.45594000000E+02  0.51100000000E-03 0.  1.
    9900012    2    1    2    0    0  0.26015272970E+02 -0.32934306044E+02 -0.11052632790E+02  0.47787266897E+02  0.19999981090E+02 0.  0.
        -12    1    1    2    0    0 -0.26015272970E+02  0.32934306044E+02  0.11052632790E+02  0.43400733103E+02  0.00000000000E+00 0.  1.
         11    1    3    3    0    0  0.39958505834E+01 -0.54151669708E+01  0.52529330700E+01  0.85372221070E+01  0.51100000000E-03 0. -1.
        -11    1    3    3    0    0  0.19589486864E+01 -0.92631377181E+00 -0.21622115463E+01  0.30611592889E+01  0.51100000000E-03 0.  1.
        -12    1    3    3    0    0  0.20060473700E+02 -0.26592825302E+02 -0.14143354313E+02  0.36188885501E+02  0.00000000000E+00 0.  1.
</event>
<event>
 7    1  0.1322363E-009  0.4778729E+02  0.7816164E-02  0.1312668E+00
        -11   -1    0    0    0    0  0.00000000000E+00  0.00000000000E+00  0.45593999997E+02  0.45594000000E+02  0.51100000000E-03 0. -1.
         11   -1    0    0    0    0 -0.00000000000E+00 -0.00000000000E+00 -0.45593999997E+02  0.45594000000E+02  0.51100000000E-03 0.  1.
    9900012    2    1    2    0    0  0.41114377728E+02  0.98780425128E+01  0.97802991945E+01  0.47787285349E+02  0.20000065220E+02 0.  0.
        -12    1    1    2    0    0 -0.41114377728E+02 -0.98780425128E+01 -0.97802991945E+01  0.43400714651E+02  0.00000000000E+00 0.  1.
         11    1    3    3    0    0  0.13232847026E+02 -0.30901242771E+01 -0.24532369815E+01  0.13808529263E+02  0.51100000000E-03 0.  1.
        -11    1    3    3    0    0  0.32972407530E+01  0.22982806520E+01  0.46092021475E+01  0.61154423582E+01  0.51100000000E-03 0. -1.
        -12    1    3    3    0    0  0.24584289950E+02  0.10669886138E+02  0.76243340285E+01  0.27863313728E+02  0.00000000000E+00 0.  1.
</event>
<event>
 7    1  0.1322363E-009  0.4778727E+02  0.7816164E-02  0.1312668E+00
        -11   -1    0    0    0    0  0.00000000000E+00  0.00000000000E+00  0.45593999997E+02  0.45594000000E+02  0.51100000000E-03 0.  1.
         11   -1    0    0    0    0 -0.00000000000E+00 -0.00000000000E+00 -0.45593999997E+02  0.45594000000E+02  0.51100000000E-03 0. -1.
    9900012    2    1    2    0    0  0.13039326860E+02  0.15965368329E+02 -0.38193018821E+02  0.47787265934E+02  0.19999976698E+02 0.  0.
        -12    1    1    2    0    0 -0.13039326860E+02 -0.15965368329E+02  0.38193018821E+02  0.43400734066E+02  0.00000000000E+00 0.  1.
         11    1    3    3    0    0 -0.15583476490E+01  0.42744343917E+01 -0.25670310903E+01  0.52238764958E+01  0.51100000000E-03 0. -1.
        -11    1    3    3    0    0  0.13221070640E+02  0.38954890408E+01 -0.14512021785E+02  0.20014252929E+02  0.51100000000E-03 0.  1.
         12    1    3    3    0    0  0.13766038684E+01  0.77954448961E+01 -0.21113965946E+02  0.22549136509E+02  0.00000000000E+00 0. -1.
</event>
<event>
 7    1  0.1322363E-009  0.4778727E+02  0.7816164E-02  0.1312668E+00
        -11   -1    0    0    0    0  0.00000000000E+00  0.00000000000E+00  0.45593999997E+02  0.45594000000E+02  0.51100000000E-03 0. -1.
         11   -1    0    0    0    0 -0.00000000000E+00 -0.00000000000E+00 -0.45593999997E+02  0.45594000000E+02  0.51100000000E-03 0.  1.
    9900012    2    1    2    0    0 -0.14938061925E+02 -0.38019581295E+02  0.14662501372E+02  0.47787271867E+02  0.20000003752E+02 0.  0.
        -12    1    1    2    0    0  0.14938061925E+02  0.38019581295E+02 -0.14662501372E+02  0.43400728133E+02  0.00000000000E+00 0.  1.
         11    1    3    3    0    0 -0.69869248281E+01 -0.97186391252E+01  0.39278127296E+01  0.12597490945E+02  0.51100000000E-03 0. -1.
        -11    1    3    3    0    0  0.34186503600E+01 -0.10367728163E+02 -0.94169635272E+00  0.10957360532E+02  0.51100000000E-03 0.  1.
        -12    1    3    3    0    0 -0.11369787457E+02 -0.17933214008E+02  0.11676384995E+02  0.24232420391E+02  0.00000000000E+00 0.  1.
</event>
<event>
 7    1  0.1322363E-009  0.4778726E+02  0.7816164E-02  0.1312668E+00
        -11   -1    0    0    0    0  0.00000000000E+00  0.00000000000E+00  0.45593999997E+02  0.45594000000E+02  0.51100000000E-03 0.  1.
         11   -1    0    0    0    0 -0.00000000000E+00 -0.00000000000E+00 -0.45593999997E+02  0.45594000000E+02  0.51100000000E-03 0. -1.
    9900012    2    1    2    0    0 -0.24466671910E+02  0.18149269851E+02 -0.30912943938E+02  0.47787261142E+02  0.19999954852E+02 0.  0.
        -12    1    1    2    0    0  0.24466671910E+02 -0.18149269851E+02  0.30912943938E+02  0.43400738858E+02  0.00000000000E+00 0.  1.
         11    1    3    3    0    0 -0.12992534700E+02  0.93052480529E+01 -0.97202003173E+01  0.18704969760E+02  0.51100000000E-03 0. -1.
        -11    1    3    3    0    0 -0.39996225894E+00 -0.33891333227E+01 -0.37969983957E+01  0.51052317837E+01  0.51100000000E-03 0.  1.
         12    1    3    3    0    0 -0.11074174952E+02  0.12233155120E+02 -0.17395745225E+02  0.23977059599E+02  0.00000000000E+00 0. -1.
</event>
<event>
 7    1  0.1322363E-009  0.4778731E+02  0.7816164E-02  0.1312668E+00
        -11   -1    0    0    0    0  0.00000000000E+00  0.00000000000E+00  0.45593999997E+02  0.45594000000E+02  0.51100000000E-03 0.  1.
         11   -1    0    0    0    0 -0.00000000000E+00 -0.00000000000E+00 -0.45593999997E+02  0.45594000000E+02  0.51100000000E-03 0. -1.
    9900012    2    1    2    0    0 -0.36087102572E+02 -0.18091304466E+02 -0.15938815331E+02  0.47787307569E+02  0.20000166529E+02 0.  0.
        -12    1    1    2    0    0  0.36087102572E+02  0.18091304466E+02  0.15938815331E+02  0.43400692431E+02  0.00000000000E+00 0.  1.
         11    1    3    3    0    0 -0.23277501801E+02 -0.19239812398E+02 -0.13006566896E+02  0.32881351157E+02  0.51100000000E-03 0. -1.
        -11    1    3    3    0    0 -0.11190011179E+02 -0.14691481724E+01 -0.34122006919E+01  0.11790583547E+02  0.51100000000E-03 0.  1.
        -12    1    3    3    0    0 -0.16195895915E+01  0.26176561040E+01  0.47995225663E+00  0.31153728657E+01  0.00000000000E+00 0.  1.
</event>
<event>
 7    1  0.1322363E-009  0.4778727E+02  0.7816164E-02  0.1312668E+00
        -11   -1    0    0    0    0  0.00000000000E+00  0.00000000000E+00  0.45593999997E+02  0.45594000000E+02  0.51100000000E-03 0.  1.
         11   -1    0    0    0    0 -0.00000000000E+00 -0.00000000000E+00 -0.45593999997E+02  0.45594000000E+02  0.51100000000E-03 0. -1.
    9900012    2    1    2    0    0 -0.13083050228E+02 -0.20265113057E+02 -0.36080225735E+02  0.47787266140E+02  0.19999977640E+02 0.  0.
        -12    1    1    2    0    0  0.13083050228E+02  0.20265113057E+02  0.36080225735E+02  0.43400733860E+02  0.00000000000E+00 0.  1.
         11    1    3    3    0    0 -0.78050060497E+01 -0.14869948386E+02 -0.24563220704E+02  0.29755424649E+02  0.51100000000E-03 0.  1.
        -11    1    3    3    0    0 -0.60320009556E+01 -0.84902973542E+01 -0.71775567464E+01  0.12648616754E+02  0.51100000000E-03 0. -1.
        -12    1    3    3    0    0  0.75395677706E+00  0.30951326835E+01 -0.43394482848E+01  0.53832247368E+01  0.00000000000E+00 0.  1.
</event>
<event>
 7    1  0.1322363E-009  0.4778727E+02  0.7816164E-02  0.1312668E+00
        -11   -1    0    0    0    0  0.00000000000E+00  0.00000000000E+00  0.45593999997E+02  0.45594000000E+02  0.51100000000E-03 0.  1.
         11   -1    0    0    0    0 -0.00000000000E+00 -0.00000000000E+00 -0.45593999997E+02  0.45594000000E+02  0.51100000000E-03 0. -1.
    9900012    2    1    2    0    0 -0.18706073891E+02  0.11355109689E+02 -0.37480229197E+02  0.47787270777E+02  0.19999998780E+02 0.  0.
        -12    1    1    2    0    0  0.18706073891E+02 -0.11355109689E+02  0.37480229197E+02  0.43400729223E+02  0.00000000000E+00 0.  1.
         11    1    3    3    0    0 -0.30135972916E+01 -0.15719185214E+00  0.15486444062E+01  0.33918693477E+01  0.51100000000E-03 0. -1.
        -11    1    3    3    0    0 -0.74310665595E+01  0.68946415022E+00 -0.15710149829E+02  0.17392668540E+02  0.51100000000E-03 0.  1.
         12    1    3    3    0    0 -0.82614100403E+01  0.10822837391E+02 -0.23318723773E+02  0.27002732889E+02  0.00000000000E+00 0. -1.
</event>
<event>
 7    1  0.1322363E-009  0.4778731E+02  0.7816164E-02  0.1312668E+00
        -11   -1    0    0    0    0  0.00000000000E+00  0.00000000000E+00  0.45593999997E+02  0.45594000000E+02  0.51100000000E-03 0.  1.
         11   -1    0    0    0    0 -0.00000000000E+00 -0.00000000000E+00 -0.45593999997E+02  0.45594000000E+02  0.51100000000E-03 0. -1.
    9900012    2    1    2    0    0 -0.54656845633E+01 -0.11058893737E+02 -0.41610659982E+02  0.47787310344E+02  0.20000179182E+02 0.  0.
        -12    1    1    2    0    0  0.54656845633E+01  0.11058893737E+02  0.41610659982E+02  0.43400689656E+02  0.00000000000E+00 0.  1.
         11    1    3    3    0    0 -0.28645733646E+01 -0.15257626499E+02 -0.27125540119E+02  0.31253733760E+02  0.51100000000E-03 0. -1.
        -11    1    3    3    0    0 -0.20030927854E+01  0.75201758505E+00 -0.61086002466E+00  0.22250980621E+01  0.51100000000E-03 0.  1.
         12    1    3    3    0    0 -0.59801841334E+00  0.34467151770E+01 -0.13874259839E+02  0.14308478522E+02  0.00000000000E+00 0. -1.
</event>
<event>
 7    1  0.1322363E-009  0.4778727E+02  0.7816164E-02  0.1312668E+00
        -11   -1    0    0    0    0  0.00000000000E+00  0.00000000000E+00  0.45593999997E+02  0.45594000000E+02  0.51100000000E-03 0.  1.
         11   -1    0    0    0    0 -0.00000000000E+00 -0.00000000000E+00 -0.45593999997E+02  0.45594000000E+02  0.51100000000E-03 0. -1.
    9900012    2    1    2    0    0 -0.29179237131E+02  0.23357851069E+02  0.22059161897E+02  0.47787266023E+02  0.19999977105E+02 0.  0.
        -12    1    1    2    0    0  0.29179237131E+02 -0.23357851069E+02 -0.22059161897E+02  0.43400733977E+02  0.00000000000E+00 0.  1.
         11    1    3    3    0    0 -0.10069453887E+02  0.10886177899E+02  0.10309895726E+02  0.18060916948E+02  0.51100000000E-03 0. -1.
        -11    1    3    3    0    0 -0.70794494386E+01  0.42711836287E+01  0.12679664957E+02  0.15137222916E+02  0.51100000000E-03 0.  1.
         12    1    3    3    0    0 -0.12030333805E+02  0.82004895413E+01 -0.93039878570E+00  0.14589126159E+02  0.00000000000E+00 0. -1.
</event>
<event>
 7    1  0.1322363E-009  0.4778727E+02  0.7816164E-02  0.1312668E+00
        -11   -1    0    0    0    0  0.00000000000E+00  0.00000000000E+00  0.45593999997E+02  0.45594000000E+02  0.51100000000E-03 0. -1.
         11   -1    0    0    0    0 -0.00000000000E+00 -0.00000000000E+00 -0.45593999997E+02  0.45594000000E+02  0.51100000000E-03 0.  1.
    9900012    2    1    2    0    0 -0.26813982436E+02  0.18124504045E+02  0.28916016977E+02  0.47787270296E+02  0.19999996590E+02 0.  0.
        -12    1    1    2    0    0  0.26813982436E+02 -0.18124504045E+02 -0.28916016977E+02  0.43400729704E+02  0.00000000000E+00 0.  1.
         11    1    3    3    0    0 -0.53271577323E+01  0.49175115719E+01  0.16933331946E+02  0.18420050505E+02  0.51100000000E-03 0. -1.
        -11    1    3    3    0    0 -0.16948252679E+02  0.90210120415E+01  0.12892136858E+02  0.23126372828E+02  0.51100000000E-03 0.  1.
        -12    1    3    3    0    0 -0.45385720249E+01  0.41859804317E+01 -0.90945182689E+00  0.62408469637E+01  0.00000000000E+00 0.  1.
</event>
<event>
 7    1  0.1322363E-009  0.4778727E+02  0.7816164E-02  0.1312668E+00
        -11   -1    0    0    0    0  0.00000000000E+00  0.00000000000E+00  0.45593999997E+02  0.45594000000E+02  0.51100000000E-03 0.  1.
         11   -1    0    0    0    0 -0.00000000000E+00 -0.00000000000E+00 -0.45593999997E+02  0.45594000000E+02  0.51100000000E-03 0. -1.
    9900012    2    1    2    0    0 -0.48420580314E+01 -0.14401206608E+02 -0.40654433670E+02  0.47787271264E+02  0.20000001002E+02 0.  0.
        -12    1    1    2    0    0  0.48420580314E+01  0.14401206608E+02  0.40654433670E+02  0.43400728736E+02  0.00000000000E+00 0.  1.
         11    1    3    3    0    0  0.42490869822E+01 -0.10523044336E+01 -0.88625989615E+01  0.98847228296E+01  0.51100000000E-03 0. -1.
        -11    1    3    3    0    0 -0.52937109270E+01 -0.14862821375E+02 -0.28793473827E+02  0.32832772802E+02  0.51100000000E-03 0.  1.
         12    1    3    3    0    0 -0.37974340866E+01  0.15139192002E+01 -0.29983608819E+01  0.50697756326E+01  0.00000000000E+00 0. -1.
</event>
<event>
 7    1  0.1322363E-009  0.4778727E+02  0.7816164E-02  0.1312668E+00
        -11   -1    0    0    0    0  0.00000000000E+00  0.00000000000E+00  0.45593999997E+02  0.45594000000E+02  0.51100000000E-03 0. -1.
         11   -1    0    0    0    0 -0.00000000000E+00 -0.00000000000E+00 -0.45593999997E+02  0.45594000000E+02  0.51100000000E-03 0.  1.
    9900012    2    1    2    0    0  0.40563524427E+02  0.49896318628E+01 -0.14605726659E+02  0.47787271996E+02  0.20000004337E+02 0.  0.
        -12    1    1    2    0    0 -0.40563524427E+02 -0.49896318628E+01  0.14605726659E+02  0.43400728004E+02  0.00000000000E+00 0.  1.
         11    1    3    3    0    0  0.78976633839E+00  0.39378280204E+01 -0.19958292108E+01  0.44848138074E+01  0.51100000000E-03 0. -1.
        -11    1    3    3    0    0  0.23597590201E+02  0.62500577466E+01 -0.67145720960E+01  0.25317878344E+02  0.51100000000E-03 0.  1.
        -12    1    3    3    0    0  0.16176167887E+02 -0.51982539042E+01 -0.58953253519E+01  0.17984579844E+02  0.00000000000E+00 0.  1.
</event>
<event>
 7    1  0.1322363E-009  0.4778728E+02  0.7816164E-02  0.1312668E+00
        -11   -1    0    0    0    0  0.00000000000E+00  0.00000000000E+00  0.45593999997E+02  0.45594000000E+02  0.51100000000E-03 0.  1.
         11   -1    0    0    0    0 -0.00000000000E+00 -0.00000000000E+00 -0.45593999997E+02  0.45594000000E+02  0.51100000000E-03 0. -1.
    9900012    2    1    2    0    0 -0.11830619335E+02  0.61194220712E+01 -0.41306313560E+02  0.47787280879E+02  0.20000044840E+02 0.  0.
        -12    1    1    2    0    0  0.11830619335E+02 -0.61194220712E+01  0.41306313560E+02  0.43400719121E+02  0.00000000000E+00 0.  1.
         11    1    3    3    0    0  0.37294083264E+01  0.43291877077E+01 -0.11475837557E+02  0.12819719208E+02  0.51100000000E-03 0. -1.
        -11    1    3    3    0    0 -0.80269967146E+01 -0.34104078451E+01 -0.18068803110E+02  0.20063529201E+02  0.51100000000E-03 0.  1.
        -12    1    3    3    0    0 -0.75330309465E+01  0.52006422086E+01 -0.11761672893E+02  0.14904032470E+02  0.00000000000E+00 0.  1.
</event>
<event>
 7    1  0.1322363E-009  0.4778726E+02  0.7816164E-02  0.1312668E+00
        -11   -1    0    0    0    0  0.00000000000E+00  0.00000000000E+00  0.45593999997E+02  0.45594000000E+02  0.51100000000E-03 0.  1.
         11   -1    0    0    0    0 -0.00000000000E+00 -0.00000000000E+00 -0.45593999997E+02  0.45594000000E+02  0.51100000000E-03 0. -1.
    9900012    2    1    2    0    0  0.23352902685E+02 -0.22783899824E+02 -0.28620971894E+02  0.47787260523E+02  0.19999952028E+02 0.  0.
        -12    1    1    2    0    0 -0.23352902685E+02  0.22783899824E+02  0.28620971894E+02  0.43400739477E+02  0.00000000000E+00 0.  1.
         11    1    3    3    0    0  0.94509800509E+01 -0.55922517172E+01 -0.75835120178E+01  0.13345559485E+02  0.51100000000E-03 0. -1.
        -11    1    3    3    0    0  0.15549168325E+02 -0.10193990439E+02 -0.95803688313E+01  0.20915963852E+02  0.51100000000E-03 0.  1.
        -12    1    3    3    0    0 -0.16472456907E+01 -0.69976576677E+01 -0.11457091045E+02  0.13525737185E+02  0.00000000000E+00 0.  1.
</event>
<event>
 7    1  0.1322363E-009  0.4778727E+02  0.7816164E-02  0.1312668E+00
        -11   -1    0    0    0    0  0.00000000000E+00  0.00000000000E+00  0.45593999997E+02  0.45594000000E+02  0.51100000000E-03 0.  1.
         11   -1    0    0    0    0 -0.00000000000E+00 -0.00000000000E+00 -0.45593999997E+02  0.45594000000E+02  0.51100000000E-03 0. -1.
    9900012    2    1    2    0    0 -0.27180837094E+02 -0.18924094828E+01 -0.33782302292E+02  0.47787273428E+02  0.20000010869E+02 0.  0.
        -12    1    1    2    0    0  0.27180837094E+02  0.18924094828E+01  0.33782302292E+02  0.43400726572E+02  0.00000000000E+00 0.  1.
         11    1    3    3    0    0 -0.67839954469E+01  0.51130764115E+01 -0.61902020326E+01  0.10511172441E+02  0.51100000000E-03 0. -1.
        -11    1    3    3    0    0 -0.21286358385E+02 -0.36568028885E+01 -0.23866543492E+02  0.32188401004E+02  0.51100000000E-03 0.  1.
        -12    1    3    3    0    0  0.88951673744E+00 -0.33486830058E+01 -0.37255567671E+01  0.50876999837E+01  0.00000000000E+00 0.  1.
</event>
<event>
 7    1  0.1322363E-009  0.4778727E+02  0.7816164E-02  0.1312668E+00
        -11   -1    0    0    0    0  0.00000000000E+00  0.00000000000E+00  0.45593999997E+02  0.45594000000E+02  0.51100000000E-03 0. -1.
         11   -1    0    0    0    0 -0.00000000000E+00 -0.00000000000E+00 -0.45593999997E+02  0.45594000000E+02  0.51100000000E-03 0.  1.
    9900012    2    1    2    0    0  0.17325572598E+02 -0.39083583198E+02  0.74780642991E+01  0.47787269740E+02  0.19999994053E+02 0.  0.
        -12    1    1    2    0    0 -0.17325572598E+02  0.39083583198E+02 -0.74780642991E+01  0.43400730260E+02  0.00000000000E+00 0.  1.
         11    1    3    3    0    0  0.47315667499E+01 -0.45650835291E+01  0.29117950569E+01  0.71907066587E+01  0.51100000000E-03 0. -1.
        -11    1    3    3    0    0  0.11805013869E+01 -0.25972355436E+02  0.17141806722E+01  0.26055618321E+02  0.51100000000E-03 0.  1.
        -12    1    3    3    0    0  0.11413504461E+02 -0.85461442324E+01  0.28520885700E+01  0.14540944761E+02  0.00000000000E+00 0.  1.
</event>
<event>
 7    1  0.1322363E-009  0.4778727E+02  0.7816164E-02  0.1312668E+00
        -11   -1    0    0    0    0  0.00000000000E+00  0.00000000000E+00  0.45593999997E+02  0.45594000000E+02  0.51100000000E-03 0.  1.
         11   -1    0    0    0    0 -0.00000000000E+00 -0.00000000000E+00 -0.45593999997E+02  0.45594000000E+02  0.51100000000E-03 0. -1.
    9900012    2    1    2    0    0  0.23482054747E+02  0.32514213596E+02 -0.16584398876E+02  0.47787271124E+02  0.20000000362E+02 0.  0.
        -12    1    1    2    0    0 -0.23482054747E+02 -0.32514213596E+02  0.16584398876E+02  0.43400728876E+02  0.00000000000E+00 0.  1.
         11    1    3    3    0    0  0.22993017099E+02  0.29633508471E+02 -0.13408171963E+02  0.39832182156E+02  0.51100000000E-03 0. -1.
        -11    1    3    3    0    0  0.14464767144E+01  0.16849834992E+01 -0.50607473637E+01  0.55265385567E+01  0.51100000000E-03 0.  1.
         12    1    3    3    0    0 -0.95743906702E+00  0.11957216260E+01  0.18845204503E+01  0.24285504116E+01  0.00000000000E+00 0. -1.
</event>
<event>
 7    1  0.1322363E-009  0.4778727E+02  0.7816164E-02  0.1312668E+00
        -11   -1    0    0    0    0  0.00000000000E+00  0.00000000000E+00  0.45593999997E+02  0.45594000000E+02  0.51100000000E-03 0.  1.
         11   -1    0    0    0    0 -0.00000000000E+00 -0.00000000000E+00 -0.45593999997E+02  0.45594000000E+02  0.51100000000E-03 0. -1.
    9900012    2    1    2    0    0  0.96249227314E+01  0.40295876108E+02 -0.12931612115E+02  0.47787270043E+02  0.19999995433E+02 0.  0.
        -12    1    1    2    0    0 -0.96249227314E+01 -0.40295876108E+02  0.12931612115E+02  0.43400729957E+02  0.00000000000E+00 0.  1.
         11    1    3    3    0    0  0.22278099194E+00  0.95927117619E+01 -0.43525599668E+01  0.10536343239E+02  0.51100000000E-03 0. -1.
        -11    1    3    3    0    0  0.10914743755E+02  0.12446295642E+02  0.98827188427E+00  0.16583684392E+02  0.51100000000E-03 0.  1.
         12    1    3    3    0    0 -0.15126020160E+01  0.18256868705E+02 -0.95673240325E+01  0.20667242412E+02  0.00000000000E+00 0. -1.
</event>
<event>
 7    1  0.1336624E-009  0.4778728E+02  0.7816164E-02  0.1312668E+00
        -11   -1    0    0    0    0  0.00000000000E+00  0.00000000000E+00  0.45593999997E+02  0.45594000000E+02  0.51100000000E-03 0.  1.
         11   -1    0    0    0    0 -0.00000000000E+00 -0.00000000000E+00 -0.45593999997E+02  0.45594000000E+02  0.51100000000E-03 0. -1.
    9900012    2    1    2    0    0 -0.41496236914E+02  0.73594851659E+01 -0.10369340359E+02  0.47787275128E+02  0.20000018620E+02 0.  0.
        -12    1    1    2    0    0  0.41496236914E+02 -0.73594851659E+01  0.10369340359E+02  0.43400724872E+02  0.00000000000E+00 0.  1.
         11    1    3    3    0    0 -0.22796839242E+02 -0.56620481469E+00 -0.96430404536E+00  0.22824249163E+02  0.51100000000E-03 0. -1.
        -11    1    3    3    0    0 -0.95781794486E-01 -0.14023478253E+01 -0.27928778621E+01  0.31266468603E+01  0.51100000000E-03 0.  1.
         12    1    3    3    0    0 -0.18603615878E+02  0.93280378059E+01 -0.66121584515E+01  0.21836379105E+02  0.00000000000E+00 0. -1.
</event>
<event>
 7    1  0.1322363E-009  0.4778727E+02  0.7816164E-02  0.1312668E+00
        -11   -1    0    0    0    0  0.00000000000E+00  0.00000000000E+00  0.45593999997E+02  0.45594000000E+02  0.51100000000E-03 0. -1.
         11   -1    0    0    0    0 -0.00000000000E+00 -0.00000000000E+00 -0.45593999997E+02  0.45594000000E+02  0.51100000000E-03 0.  1.
    9900012    2    1    2    0    0  0.41112423759E+02  0.10157941661E+02 -0.94977961151E+01  0.47787270776E+02  0.19999998777E+02 0.  0.
        -12    1    1    2    0    0 -0.41112423759E+02 -0.10157941661E+02  0.94977961151E+01  0.43400729224E+02  0.00000000000E+00 0.  1.
         11    1    3    3    0    0  0.15469517161E+02  0.11196912558E+01  0.11533781810E+01  0.15552811681E+02  0.51100000000E-03 0. -1.
        -11    1    3    3    0    0  0.10072500575E+02 -0.21309139044E+01 -0.76776199904E+01  0.12842971263E+02  0.51100000000E-03 0.  1.
         12    1    3    3    0    0  0.15570406023E+02  0.11169164310E+02 -0.29735543057E+01  0.19391487832E+02  0.00000000000E+00 0. -1.
</event>
<event>
 7    1  0.1322363E-009  0.4778726E+02  0.7816164E-02  0.1312668E+00
        -11   -1    0    0    0    0  0.00000000000E+00  0.00000000000E+00  0.45593999997E+02  0.45594000000E+02  0.51100000000E-03 0. -1.
         11   -1    0    0    0    0 -0.00000000000E+00 -0.00000000000E+00 -0.45593999997E+02  0.45594000000E+02  0.51100000000E-03 0.  1.
    9900012    2    1    2    0    0  0.12450977042E+02 -0.33994130119E+02  0.23937341332E+02  0.47787262426E+02  0.19999960707E+02 0.  0.
        -12    1    1    2    0    0 -0.12450977042E+02  0.33994130119E+02 -0.23937341332E+02  0.43400737574E+02  0.00000000000E+00 0.  1.
         11    1    3    3    0    0 -0.35754145019E+01 -0.55556832270E+01  0.79958341209E+01  0.10372201720E+02  0.51100000000E-03 0.  1.
        -11    1    3    3    0    0  0.20905531232E+00 -0.79546771877E+01  0.33362038322E+01  0.86284905723E+01  0.51100000000E-03 0. -1.
        -12    1    3    3    0    0  0.15817336232E+02 -0.20483769705E+02  0.12605303379E+02  0.28786570134E+02  0.00000000000E+00 0.  1.
</event>
<event>
 7    1  0.1322363E-009  0.4778727E+02  0.7816164E-02  0.1312668E+00
        -11   -1    0    0    0    0  0.00000000000E+00  0.00000000000E+00  0.45593999997E+02  0.45594000000E+02  0.51100000000E-03 0.  1.
         11   -1    0    0    0    0 -0.00000000000E+00 -0.00000000000E+00 -0.45593999997E+02  0.45594000000E+02  0.51100000000E-03 0. -1.
    9900012    2    1    2    0    0  0.14722074777E+02 -0.87523451547E+01 -0.39878318044E+02  0.47787270957E+02  0.19999999602E+02 0.  0.
        -12    1    1    2    0    0 -0.14722074777E+02  0.87523451547E+01  0.39878318044E+02  0.43400729043E+02  0.00000000000E+00 0.  1.
         11    1    3    3    0    0  0.42552256698E+01  0.46521527794E+01 -0.84898098657E+01  0.10574797530E+02  0.51100000000E-03 0. -1.
        -11    1    3    3    0    0 -0.11892836156E+01 -0.41325575645E+01 -0.12109070949E+02  0.12849981598E+02  0.51100000000E-03 0.  1.
         12    1    3    3    0    0  0.11656132723E+02 -0.92719403696E+01 -0.19279437229E+02  0.24362491829E+02  0.00000000000E+00 0. -1.
</event>
<event>
 7    1  0.1322363E-009  0.4778727E+02  0.7816164E-02  0.1312668E+00
        -11   -1    0    0    0    0  0.00000000000E+00  0.00000000000E+00  0.45593999997E+02  0.45594000000E+02  0.51100000000E-03 0. -1.
         11   -1    0    0    0    0 -0.00000000000E+00 -0.00000000000E+00 -0.45593999997E+02  0.45594000000E+02  0.51100000000E-03 0.  1.
    9900012    2    1    2    0    0  0.31062311039E+02  0.17995282073E+02  0.24391099189E+02  0.47787273466E+02  0.20000011041E+02 0.  0.
        -12    1    1    2    0    0 -0.31062311039E+02 -0.17995282073E+02 -0.24391099189E+02  0.43400726534E+02  0.00000000000E+00 0.  1.
         11    1    3    3    0    0  0.20933452010E+02  0.12512455181E+02  0.14195728194E+02  0.28218604624E+02  0.51100000000E-03 0. -1.
        -11    1    3    3    0    0  0.12559307647E+02  0.34162230991E+01  0.99229202285E+01  0.16366769228E+02  0.51100000000E-03 0.  1.
        -12    1    3    3    0    0 -0.24304486174E+01  0.20666037931E+01  0.27245076675E+00  0.32018996143E+01  0.00000000000E+00 0.  1.
</event>
<event>
 7    1  0.1322363E-009  0.4778727E+02  0.7816164E-02  0.1312668E+00
        -11   -1    0    0    0    0  0.00000000000E+00  0.00000000000E+00  0.45593999997E+02  0.45594000000E+02  0.51100000000E-03 0.  1.
         11   -1    0    0    0    0 -0.00000000000E+00 -0.00000000000E+00 -0.45593999997E+02  0.45594000000E+02  0.51100000000E-03 0. -1.
    9900012    2    1    2    0    0  0.24914004658E+02  0.30414668073E+02  0.18381066408E+02  0.47787271154E+02  0.20000000499E+02 0.  0.
        -12    1    1    2    0    0 -0.24914004658E+02 -0.30414668073E+02 -0.18381066408E+02  0.43400728846E+02  0.00000000000E+00 0.  1.
         11    1    3    3    0    0  0.16864555243E+02  0.12903522423E+02  0.78373452208E+01  0.22634886676E+02  0.51100000000E-03 0. -1.
        -11    1    3    3    0    0  0.50204740604E+01  0.81033744754E+01  0.11822231142E+02  0.15186671364E+02  0.51100000000E-03 0.  1.
         12    1    3    3    0    0  0.30289753546E+01  0.94077711745E+01 -0.12785099546E+01  0.99657131142E+01  0.00000000000E+00 0. -1.
</event>
<event>
 7    1  0.1322363E-009  0.4778727E+02  0.7816164E-02  0.1312668E+00
        -11   -1    0    0    0    0  0.00000000000E+00  0.00000000000E+00  0.45593999997E+02  0.45594000000E+02  0.51100000000E-03 0. -1.
         11   -1    0    0    0    0 -0.00000000000E+00 -0.00000000000E+00 -0.45593999997E+02  0.45594000000E+02  0.51100000000E-03 0.  1.
    9900012    2    1    2    0    0  0.11872545557E+02  0.39841986742E+02  0.12461227347E+02  0.47787269216E+02  0.19999991663E+02 0.  0.
        -12    1    1    2    0    0 -0.11872545557E+02 -0.39841986742E+02 -0.12461227347E+02  0.43400730784E+02  0.00000000000E+00 0.  1.
         11    1    3    3    0    0  0.13281355670E+02  0.36817939748E+02  0.99335384227E+01  0.40381063403E+02  0.51100000000E-03 0. -1.
        -11    1    3    3    0    0 -0.21497012134E+01  0.46447467936E+01  0.14334297589E+01  0.53150361446E+01  0.51100000000E-03 0.  1.
         12    1    3    3    0    0  0.74089110086E+00 -0.16206997987E+01  0.10942591657E+01  0.20911696686E+01  0.00000000000E+00 0. -1.
</event>
<event>
 7    1  0.1322363E-009  0.4778727E+02  0.7816164E-02  0.1312668E+00
        -11   -1    0    0    0    0  0.00000000000E+00  0.00000000000E+00  0.45593999997E+02  0.45594000000E+02  0.51100000000E-03 0. -1.
         11   -1    0    0    0    0 -0.00000000000E+00 -0.00000000000E+00 -0.45593999997E+02  0.45594000000E+02  0.51100000000E-03 0.  1.
    9900012    2    1    2    0    0  0.13764466834E+02 -0.41135853019E+02  0.14156963243E+01  0.47787272507E+02  0.20000006667E+02 0.  0.
        -12    1    1    2    0    0 -0.13764466834E+02  0.41135853019E+02 -0.14156963243E+01  0.43400727493E+02  0.00000000000E+00 0.  1.
         11    1    3    3    0    0  0.26854886693E+01 -0.10745232840E+02 -0.21489544204E+01  0.11282281841E+02  0.51100000000E-03 0. -1.
        -11    1    3    3    0    0  0.14585774886E+02 -0.26491606271E+02  0.14018606217E+00  0.30241853188E+02  0.51100000000E-03 0.  1.
        -12    1    3    3    0    0 -0.35067967214E+01 -0.38990139083E+01  0.34244646825E+01  0.62631374776E+01  0.00000000000E+00 0.  1.
</event>
<event>
 7    1  0.1322363E-009  0.4778726E+02  0.7816164E-02  0.1312668E+00
        -11   -1    0    0    0    0  0.00000000000E+00  0.00000000000E+00  0.45593999997E+02  0.45594000000E+02  0.51100000000E-03 0.  1.
         11   -1    0    0    0    0 -0.00000000000E+00 -0.00000000000E+00 -0.45593999997E+02  0.45594000000E+02  0.51100000000E-03 0. -1.
    9900012    2    1    2    0    0 -0.82826697125E+01  0.34860208758E+02 -0.24490550953E+02  0.47787264313E+02  0.19999969309E+02 0.  0.
        -12    1    1    2    0    0  0.82826697125E+01 -0.34860208758E+02  0.24490550953E+02  0.43400735687E+02  0.00000000000E+00 0.  1.
         11    1    3    3    0    0 -0.12552942989E+02  0.21594677364E+02 -0.10968715975E+02  0.27280381203E+02  0.51100000000E-03 0. -1.
        -11    1    3    3    0    0  0.18840908276E+01  0.88293100318E+01 -0.43019046371E+01  0.10000644862E+02  0.51100000000E-03 0.  1.
         12    1    3    3    0    0  0.23861824492E+01  0.44362213612E+01 -0.92199303407E+01  0.10506238248E+02  0.00000000000E+00 0. -1.
</event>
<event>
 7    1  0.1483299E-009  0.4778726E+02  0.7816164E-02  0.1312668E+00
        -11   -1    0    0    0    0  0.00000000000E+00  0.00000000000E+00  0.45593999997E+02  0.45594000000E+02  0.51100000000E-03 0. -1.
         11   -1    0    0    0    0 -0.00000000000E+00 -0.00000000000E+00 -0.45593999997E+02  0.45594000000E+02  0.51100000000E-03 0.  1.
    9900012    2    1    2    0    0  0.71658865263E+01  0.52724006730E+01  0.42479121667E+02  0.47787263645E+02  0.19999966262E+02 0.  0.
        -12    1    1    2    0    0 -0.71658865263E+01 -0.52724006730E+01 -0.42479121667E+02  0.43400736355E+02  0.00000000000E+00 0.  1.
         11    1    3    3    0    0  0.72990670611E+01  0.36853846173E+00  0.15113983954E+02  0.16788231347E+02  0.51100000000E-03 0. -1.
        -11    1    3    3    0    0  0.84752432730E-01  0.28527542775E+01 -0.63435962886E+00  0.29236624877E+01  0.51100000000E-03 0.  1.
         12    1    3    3    0    0 -0.21793296749E+00  0.20511079338E+01  0.27999497342E+02  0.28075369810E+02  0.00000000000E+00 0. -1.
</event>
<event>
 7    1  0.1322363E-009  0.4778727E+02  0.7816164E-02  0.1312668E+00
        -11   -1    0    0    0    0  0.00000000000E+00  0.00000000000E+00  0.45593999997E+02  0.45594000000E+02  0.51100000000E-03 0.  1.
         11   -1    0    0    0    0 -0.00000000000E+00 -0.00000000000E+00 -0.45593999997E+02  0.45594000000E+02  0.51100000000E-03 0. -1.
    9900012    2    1    2    0    0 -0.22594373436E+02  0.27767662246E+02 -0.24537205265E+02  0.47787271668E+02  0.20000002841E+02 0.  0.
        -12    1    1    2    0    0  0.22594373436E+02 -0.27767662246E+02  0.24537205265E+02  0.43400728332E+02  0.00000000000E+00 0.  1.
         11    1    3    3    0    0 -0.17582412353E+02  0.11028996599E+02 -0.15501225637E+02  0.25904979958E+02  0.51100000000E-03 0. -1.
        -11    1    3    3    0    0 -0.11591874737E+01  0.68215032249E+01 -0.88598091666E+01  0.11241567532E+02  0.51100000000E-03 0.  1.
        -12    1    3    3    0    0 -0.38527736100E+01  0.99171624220E+01 -0.17617046117E+00  0.10640724178E+02  0.00000000000E+00 0.  1.
</event>
<event>
 7    1  0.1322363E-009  0.4778727E+02  0.7816164E-02  0.1312668E+00
        -11   -1    0    0    0    0  0.00000000000E+00  0.00000000000E+00  0.45593999997E+02  0.45594000000E+02  0.51100000000E-03 0.  1.
         11   -1    0    0    0    0 -0.00000000000E+00 -0.00000000000E+00 -0.45593999997E+02  0.45594000000E+02  0.51100000000E-03 0. -1.
    9900012    2    1    2    0    0  0.15910359911E+02 -0.26511820928E+02 -0.30456642643E+02  0.47787270945E+02  0.19999999548E+02 0.  0.
        -12    1    1    2    0    0 -0.15910359911E+02  0.26511820928E+02  0.30456642643E+02  0.43400729055E+02  0.00000000000E+00 0.  1.
         11    1    3    3    0    0  0.12061629054E+02 -0.15851723761E+02 -0.20146301110E+02  0.28330786970E+02  0.51100000000E-03 0. -1.
        -11    1    3    3    0    0  0.18805645596E+01 -0.12324068271E+02 -0.47738224449E+01  0.13349477998E+02  0.51100000000E-03 0.  1.
         12    1    3    3    0    0  0.19681662966E+01  0.16639711040E+01 -0.55365190878E+01  0.61070059780E+01  0.00000000000E+00 0. -1.
</event>
<event>
 7    1  0.1322363E-009  0.4778727E+02  0.7816164E-02  0.1312668E+00
        -11   -1    0    0    0    0  0.00000000000E+00  0.00000000000E+00  0.45593999997E+02  0.45594000000E+02  0.51100000000E-03 0.  1.
         11   -1    0    0    0    0 -0.00000000000E+00 -0.00000000000E+00 -0.45593999997E+02  0.45594000000E+02  0.51100000000E-03 0. -1.
    9900012    2    1    2    0    0  0.27501331807E+02  0.17176489162E+02 -0.28849058080E+02  0.47787272089E+02  0.20000004764E+02 0.  0.
        -12    1    1    2    0    0 -0.27501331807E+02 -0.17176489162E+02  0.28849058080E+02  0.43400727911E+02  0.00000000000E+00 0.  1.
         11    1    3    3    0    0  0.73478228727E+01  0.87179027222E+01 -0.58837354759E+01  0.12830069067E+02  0.51100000000E-03 0. -1.
        -11    1    3    3    0    0  0.50036946897E+01 -0.32683590417E+01 -0.14529974085E+01  0.61506368047E+01  0.51100000000E-03 0.  1.
        -12    1    3    3    0    0  0.15149814245E+02  0.11726945481E+02 -0.21512325195E+02  0.28806566218E+02  0.00000000000E+00 0.  1.
</event>
<event>
 7    1  0.1322363E-009  0.4778726E+02  0.7816164E-02  0.1312668E+00
        -11   -1    0    0    0    0  0.00000000000E+00  0.00000000000E+00  0.45593999997E+02  0.45594000000E+02  0.51100000000E-03 0. -1.
         11   -1    0    0    0    0 -0.00000000000E+00 -0.00000000000E+00 -0.45593999997E+02  0.45594000000E+02  0.51100000000E-03 0.  1.
    9900012    2    1    2    0    0  0.41482249205E+02  0.44315907761E+01 -0.11966947093E+02  0.47787264768E+02  0.19999971384E+02 0.  0.
        -12    1    1    2    0    0 -0.41482249205E+02 -0.44315907761E+01  0.11966947093E+02  0.43400735232E+02  0.00000000000E+00 0.  1.
         11    1    3    3    0    0  0.12333129191E+02 -0.12489527541E+01  0.10432882421E+00  0.12396646457E+02  0.51100000000E-03 0. -1.
        -11    1    3    3    0    0  0.11425427892E+02  0.98151140529E+01 -0.51233776863E+01  0.15909929779E+02  0.51100000000E-03 0.  1.
        -12    1    3    3    0    0  0.17723692123E+02 -0.41345705227E+01 -0.69478982309E+01  0.19480688532E+02  0.00000000000E+00 0.  1.
</event>
<event>
 7    1  0.1322363E-009  0.4778727E+02  0.7816164E-02  0.1312668E+00
        -11   -1    0    0    0    0  0.00000000000E+00  0.00000000000E+00  0.45593999997E+02  0.45594000000E+02  0.51100000000E-03 0.  1.
         11   -1    0    0    0    0 -0.00000000000E+00 -0.00000000000E+00 -0.45593999997E+02  0.45594000000E+02  0.51100000000E-03 0. -1.
    9900012    2    1    2    0    0 -0.15052040601E+02  0.36238517123E+02 -0.18542633545E+02  0.47787270647E+02  0.19999998188E+02 0.  0.
        -12    1    1    2    0    0  0.15052040601E+02 -0.36238517123E+02  0.18542633545E+02  0.43400729353E+02  0.00000000000E+00 0.  1.
         11    1    3    3    0    0  0.10830665867E+01  0.38558364254E+00 -0.50387783308E-01  0.11507593868E+01  0.51100000000E-03 0. -1.
        -11    1    3    3    0    0 -0.11687437759E+02  0.15827984659E+02 -0.17114549480E+02  0.26077367656E+02  0.51100000000E-03 0.  1.
         12    1    3    3    0    0 -0.44476694293E+01  0.20024948822E+02 -0.13776962825E+01  0.20559143604E+02  0.00000000000E+00 0. -1.
</event>
<event>
 7    1  0.1322363E-009  0.4778727E+02  0.7816164E-02  0.1312668E+00
        -11   -1    0    0    0    0  0.00000000000E+00  0.00000000000E+00  0.45593999997E+02  0.45594000000E+02  0.51100000000E-03 0.  1.
         11   -1    0    0    0    0 -0.00000000000E+00 -0.00000000000E+00 -0.45593999997E+02  0.45594000000E+02  0.51100000000E-03 0. -1.
    9900012    2    1    2    0    0 -0.28377162151E+02  0.11631267232E+02 -0.30709507443E+02  0.47787267788E+02  0.19999985153E+02 0.  0.
        -12    1    1    2    0    0  0.28377162151E+02 -0.11631267232E+02  0.30709507443E+02  0.43400732212E+02  0.00000000000E+00 0.  1.
         11    1    3    3    0    0 -0.21828495930E+02  0.73558980489E+01 -0.12635593948E+02  0.26272622735E+02  0.51100000000E-03 0.  1.
        -11    1    3    3    0    0 -0.81844098086E+01  0.52908654347E+01 -0.15063928643E+02  0.17941565355E+02  0.51100000000E-03 0. -1.
        -12    1    3    3    0    0  0.16357435881E+01 -0.10154962517E+01 -0.30099848520E+01  0.35730796986E+01  0.00000000000E+00 0.  1.
</event>
<event>
 7    1  0.1322363E-009  0.4778727E+02  0.7816164E-02  0.1312668E+00
        -11   -1    0    0    0    0  0.00000000000E+00  0.00000000000E+00  0.45593999997E+02  0.45594000000E+02  0.51100000000E-03 0.  1.
         11   -1    0    0    0    0 -0.00000000000E+00 -0.00000000000E+00 -0.45593999997E+02  0.45594000000E+02  0.51100000000E-03 0. -1.
    9900012    2    1    2    0    0  0.11996170987E+02 -0.39815365541E+02 -0.12427861644E+02  0.47787271936E+02  0.20000004064E+02 0.  0.
        -12    1    1    2    0    0 -0.11996170987E+02  0.39815365541E+02  0.12427861644E+02  0.43400728064E+02  0.00000000000E+00 0.  1.
         11    1    3    3    0    0  0.68152828927E+01 -0.23222957251E+02 -0.11579316423E+01  0.24230035706E+02  0.51100000000E-03 0. -1.
        -11    1    3    3    0    0 -0.14492047462E+01  0.43727957704E+00  0.74440637857E+00  0.16868754970E+01  0.51100000000E-03 0.  1.
         12    1    3    3    0    0  0.66300928404E+01 -0.17029687867E+02 -0.12014336380E+02  0.21870360732E+02  0.00000000000E+00 0. -1.
</event>
<event>
 7    1  0.1322363E-009  0.4778728E+02  0.7816164E-02  0.1312668E+00
        -11   -1    0    0    0    0  0.00000000000E+00  0.00000000000E+00  0.45593999997E+02  0.45594000000E+02  0.51100000000E-03 0. -1.
         11   -1    0    0    0    0 -0.00000000000E+00 -0.00000000000E+00 -0.45593999997E+02  0.45594000000E+02  0.51100000000E-03 0.  1.
    9900012    2    1    2    0    0 -0.36291889185E+02  0.22060806345E+02 -0.89354185607E+01  0.47787284544E+02  0.20000061552E+02 0.  0.
        -12    1    1    2    0    0  0.36291889185E+02 -0.22060806345E+02  0.89354185607E+01  0.43400715456E+02  0.00000000000E+00 0.  1.
         11    1    3    3    0    0 -0.11488930159E+02  0.12793282206E+02 -0.17174233894E+01  0.17280426186E+02  0.51100000000E-03 0. -1.
        -11    1    3    3    0    0 -0.94644742659E+01  0.23516841261E-01  0.29491919559E+01  0.99133525926E+01  0.51100000000E-03 0.  1.
         12    1    3    3    0    0 -0.15338484760E+02  0.92440072972E+01 -0.10167187127E+02  0.20593505766E+02  0.00000000000E+00 0. -1.
</event>
<event>
 7    1  0.1322363E-009  0.4778727E+02  0.7816164E-02  0.1312668E+00
        -11   -1    0    0    0    0  0.00000000000E+00  0.00000000000E+00  0.45593999997E+02  0.45594000000E+02  0.51100000000E-03 0. -1.
         11   -1    0    0    0    0 -0.00000000000E+00 -0.00000000000E+00 -0.45593999997E+02  0.45594000000E+02  0.51100000000E-03 0.  1.
    9900012    2    1    2    0    0 -0.27638819617E+02 -0.77016675682E+01  0.32563829976E+02  0.47787273556E+02  0.20000011453E+02 0.  0.
        -12    1    1    2    0    0  0.27638819617E+02  0.77016675682E+01 -0.32563829976E+02  0.43400726444E+02  0.00000000000E+00 0.  1.
         11    1    3    3    0    0 -0.21127020874E+02 -0.37798284313E+01  0.20880135222E+02  0.29943582971E+02  0.51100000000E-03 0. -1.
        -11    1    3    3    0    0 -0.30803811885E+01  0.73137562615E+00  0.11638982645E+02  0.12061905979E+02  0.51100000000E-03 0.  1.
        -12    1    3    3    0    0 -0.34314175546E+01 -0.46532147630E+01  0.44712108631E-01  0.57817846066E+01  0.00000000000E+00 0.  1.
</event>
<event>
 7    1  0.1322363E-009  0.4778726E+02  0.7816164E-02  0.1312668E+00
        -11   -1    0    0    0    0  0.00000000000E+00  0.00000000000E+00  0.45593999997E+02  0.45594000000E+02  0.51100000000E-03 0. -1.
         11   -1    0    0    0    0 -0.00000000000E+00 -0.00000000000E+00 -0.45593999997E+02  0.45594000000E+02  0.51100000000E-03 0.  1.
    9900012    2    1    2    0    0  0.34127183410E+02 -0.20957589861E+02  0.16725391461E+02  0.47787263372E+02  0.19999965020E+02 0.  0.
        -12    1    1    2    0    0 -0.34127183410E+02  0.20957589861E+02 -0.16725391461E+02  0.43400736628E+02  0.00000000000E+00 0.  1.
         11    1    3    3    0    0  0.72419320899E+01 -0.59792388053E+01 -0.29639832095E+01  0.98479476955E+01  0.51100000000E-03 0.  1.
        -11    1    3    3    0    0  0.35267663733E+01 -0.53586537964E+01  0.75645551056E+01  0.99184548075E+01  0.51100000000E-03 0. -1.
        -12    1    3    3    0    0  0.23358484947E+02 -0.96196972597E+01  0.12124819565E+02  0.28020860869E+02  0.00000000000E+00 0.  1.
</event>
<event>
 7    1  0.1322363E-009  0.4778727E+02  0.7816164E-02  0.1312668E+00
        -11   -1    0    0    0    0  0.00000000000E+00  0.00000000000E+00  0.45593999997E+02  0.45594000000E+02  0.51100000000E-03 0.  1.
         11   -1    0    0    0    0 -0.00000000000E+00 -0.00000000000E+00 -0.45593999997E+02  0.45594000000E+02  0.51100000000E-03 0. -1.
    9900012    2    1    2    0    0 -0.24792602182E+02 -0.99654813608E+01 -0.34199990734E+02  0.47787270652E+02  0.19999998210E+02 0.  0.
        -12    1    1    2    0    0  0.24792602182E+02  0.99654813608E+01  0.34199990734E+02  0.43400729348E+02  0.00000000000E+00 0.  1.
         11    1    3    3    0    0 -0.13388736237E+02 -0.43720669900E+01 -0.22068876704E+02  0.26180308383E+02  0.51100000000E-03 0. -1.
        -11    1    3    3    0    0 -0.73429813418E+01 -0.96591920451E+01 -0.82857719235E+01  0.14692630213E+02  0.51100000000E-03 0.  1.
        -12    1    3    3    0    0 -0.40608846035E+01  0.40657776743E+01 -0.38453421071E+01  0.69143320560E+01  0.00000000000E+00 0.  1.
</event>
<event>
 7    1  0.1322363E-009  0.4778727E+02  0.7816164E-02  0.1312668E+00
        -11   -1    0    0    0    0  0.00000000000E+00  0.00000000000E+00  0.45593999997E+02  0.45594000000E+02  0.51100000000E-03 0. -1.
         11   -1    0    0    0    0 -0.00000000000E+00 -0.00000000000E+00 -0.45593999997E+02  0.45594000000E+02  0.51100000000E-03 0.  1.
    9900012    2    1    2    0    0 -0.43725027024E+01 -0.43137301343E+02  0.19176823853E+01  0.47787273592E+02  0.20000011615E+02 0.  0.
        -12    1    1    2    0    0  0.43725027024E+01  0.43137301343E+02 -0.19176823853E+01  0.43400726408E+02  0.00000000000E+00 0.  1.
         11    1    3    3    0    0 -0.60841523671E+01 -0.37040038691E+02 -0.52443789526E+01  0.37900987944E+02  0.51100000000E-03 0. -1.
        -11    1    3    3    0    0  0.12063256119E+01 -0.10482283599E+01  0.26577628258E+01  0.31012429243E+01  0.51100000000E-03 0.  1.
         12    1    3    3    0    0  0.50532405278E+00 -0.50490342915E+01  0.45042985121E+01  0.67850427236E+01  0.00000000000E+00 0. -1.
</event>
<event>
 7    1  0.1322363E-009  0.4778727E+02  0.7816164E-02  0.1312668E+00
        -11   -1    0    0    0    0  0.00000000000E+00  0.00000000000E+00  0.45593999997E+02  0.45594000000E+02  0.51100000000E-03 0. -1.
         11   -1    0    0    0    0 -0.00000000000E+00 -0.00000000000E+00 -0.45593999997E+02  0.45594000000E+02  0.51100000000E-03 0.  1.
    9900012    2    1    2    0    0 -0.31683312840E+02  0.14217026349E+02  0.26032036456E+02  0.47787273361E+02  0.20000010564E+02 0.  0.
        -12    1    1    2    0    0  0.31683312840E+02 -0.14217026349E+02 -0.26032036456E+02  0.43400726639E+02  0.00000000000E+00 0.  1.
         11    1    3    3    0    0 -0.55899096308E+01  0.23702894183E+01  0.92904086146E+01  0.11098515851E+02  0.51100000000E-03 0. -1.
        -11    1    3    3    0    0 -0.73225865126E+01  0.41635357358E+01 -0.24429633914E+01  0.87705970977E+01  0.51100000000E-03 0.  1.
        -12    1    3    3    0    0 -0.18770816697E+02  0.76832011948E+01  0.19184591232E+02  0.27918160413E+02  0.00000000000E+00 0.  1.
</event>
<event>
 7    1  0.1322363E-009  0.4778727E+02  0.7816164E-02  0.1312668E+00
        -11   -1    0    0    0    0  0.00000000000E+00  0.00000000000E+00  0.45593999997E+02  0.45594000000E+02  0.51100000000E-03 0. -1.
         11   -1    0    0    0    0 -0.00000000000E+00 -0.00000000000E+00 -0.45593999997E+02  0.45594000000E+02  0.51100000000E-03 0.  1.
    9900012    2    1    2    0    0 -0.11475173812E+02  0.22642862702E+02  0.35202904802E+02  0.47787270146E+02  0.19999995904E+02 0.  0.
        -12    1    1    2    0    0  0.11475173812E+02 -0.22642862702E+02 -0.35202904802E+02  0.43400729854E+02  0.00000000000E+00 0.  1.
         11    1    3    3    0    0 -0.21385474379E+01  0.17722684246E+02  0.25885698365E+02  0.31444177556E+02  0.51100000000E-03 0. -1.
        -11    1    3    3    0    0 -0.83758576427E+00  0.36661624809E+01  0.61066802256E+01  0.71717390421E+01  0.51100000000E-03 0.  1.
        -12    1    3    3    0    0 -0.84990406103E+01  0.12540159745E+01  0.32105262112E+01  0.91713535485E+01  0.00000000000E+00 0.  1.
</event>
<event>
 7    1  0.1322363E-009  0.4778727E+02  0.7816164E-02  0.1312668E+00
        -11   -1    0    0    0    0  0.00000000000E+00  0.00000000000E+00  0.45593999997E+02  0.45594000000E+02  0.51100000000E-03 0. -1.
         11   -1    0    0    0    0 -0.00000000000E+00 -0.00000000000E+00 -0.45593999997E+02  0.45594000000E+02  0.51100000000E-03 0.  1.
    9900012    2    1    2    0    0  0.30150315855E+01 -0.25106381107E+02  0.35273256354E+02  0.47787269573E+02  0.19999993291E+02 0.  0.
        -12    1    1    2    0    0 -0.30150315855E+01  0.25106381107E+02 -0.35273256354E+02  0.43400730427E+02  0.00000000000E+00 0.  1.
         11    1    3    3    0    0  0.26462578683E+00 -0.47229249448E+01  0.16223370736E+02  0.16898929112E+02  0.51100000000E-03 0. -1.
        -11    1    3    3    0    0  0.74682091519E+01 -0.76065602181E+01  0.75515698493E+01  0.13063694490E+02  0.51100000000E-03 0.  1.
         12    1    3    3    0    0 -0.47178033532E+01 -0.12776895945E+02  0.11498315769E+02  0.17824645971E+02  0.00000000000E+00 0. -1.
</event>
<event>
 7    1  0.1322363E-009  0.4778727E+02  0.7816164E-02  0.1312668E+00
        -11   -1    0    0    0    0  0.00000000000E+00  0.00000000000E+00  0.45593999997E+02  0.45594000000E+02  0.51100000000E-03 0.  1.
         11   -1    0    0    0    0 -0.00000000000E+00 -0.00000000000E+00 -0.45593999997E+02  0.45594000000E+02  0.51100000000E-03 0. -1.
    9900012    2    1    2    0    0 -0.14686439921E+02  0.19623669773E+02 -0.35816805014E+02  0.47787268965E+02  0.19999990521E+02 0.  0.
        -12    1    1    2    0    0  0.14686439921E+02 -0.19623669773E+02  0.35816805014E+02  0.43400731035E+02  0.00000000000E+00 0.  1.
         11    1    3    3    0    0  0.11750897924E+01  0.43280738143E+00 -0.19654199630E+01  0.23304579253E+01  0.51100000000E-03 0. -1.
        -11    1    3    3    0    0 -0.69219808853E+01  0.57773050801E+00 -0.15457014282E+01  0.71159528583E+01  0.51100000000E-03 0.  1.
         12    1    3    3    0    0 -0.89395488279E+01  0.18613131883E+02 -0.32305683623E+02  0.38340858182E+02  0.00000000000E+00 0. -1.
</event>
<event>
 7    1  0.1322363E-009  0.4778728E+02  0.7816164E-02  0.1312668E+00
        -11   -1    0    0    0    0  0.00000000000E+00  0.00000000000E+00  0.45593999997E+02  0.45594000000E+02  0.51100000000E-03 0.  1.
         11   -1    0    0    0    0 -0.00000000000E+00 -0.00000000000E+00 -0.45593999997E+02  0.45594000000E+02  0.51100000000E-03 0. -1.
    9900012    2    1    2    0    0 -0.28949599531E+02  0.11312806663E+02 -0.30291308206E+02  0.47787282720E+02  0.20000053234E+02 0.  0.
        -12    1    1    2    0    0  0.28949599531E+02 -0.11312806663E+02  0.30291308206E+02  0.43400717280E+02  0.00000000000E+00 0.  1.
         11    1    3    3    0    0 -0.15873389507E+02  0.15703878393E+01 -0.18335046804E+02  0.24302356963E+02  0.51100000000E-03 0. -1.
        -11    1    3    3    0    0 -0.24853843468E+01  0.74409564256E+01 -0.95928124347E+01  0.12392216047E+02  0.51100000000E-03 0.  1.
        -12    1    3    3    0    0 -0.10590825677E+02  0.23014623986E+01 -0.23634489670E+01  0.11092709710E+02  0.00000000000E+00 0.  1.
</event>
<event>
 7    1  0.1322363E-009  0.4778727E+02  0.7816164E-02  0.1312668E+00
        -11   -1    0    0    0    0  0.00000000000E+00  0.00000000000E+00  0.45593999997E+02  0.45594000000E+02  0.51100000000E-03 0.  1.
         11   -1    0    0    0    0 -0.00000000000E+00 -0.00000000000E+00 -0.45593999997E+02  0.45594000000E+02  0.51100000000E-03 0. -1.
    9900012    2    1    2    0    0 -0.39972159783E+02 -0.12161144404E+02  0.11745478394E+02  0.47787271278E+02  0.20000001065E+02 0.  0.
        -12    1    1    2    0    0  0.39972159783E+02  0.12161144404E+02 -0.11745478394E+02  0.43400728722E+02  0.00000000000E+00 0.  1.
         11    1    3    3    0    0 -0.33641118299E+01  0.25281196900E+01 -0.29108281334E+01  0.51167917931E+01  0.51100000000E-03 0. -1.
        -11    1    3    3    0    0 -0.10714905399E+02 -0.72861678481E+01  0.67106073661E+01  0.14592110577E+02  0.51100000000E-03 0.  1.
         12    1    3    3    0    0 -0.25893142554E+02 -0.74030962455E+01  0.79456991615E+01  0.28078368908E+02  0.00000000000E+00 0. -1.
</event>
<event>
 7    1  0.1322363E-009  0.4778727E+02  0.7816164E-02  0.1312668E+00
        -11   -1    0    0    0    0  0.00000000000E+00  0.00000000000E+00  0.45593999997E+02  0.45594000000E+02  0.51100000000E-03 0.  1.
         11   -1    0    0    0    0 -0.00000000000E+00 -0.00000000000E+00 -0.45593999997E+02  0.45594000000E+02  0.51100000000E-03 0. -1.
    9900012    2    1    2    0    0  0.30309316036E+02  0.46020328396E+01 -0.30721164208E+02  0.47787271030E+02  0.19999999933E+02 0.  0.
        -12    1    1    2    0    0 -0.30309316036E+02 -0.46020328396E+01  0.30721164208E+02  0.43400728970E+02  0.00000000000E+00 0.  1.
         11    1    3    3    0    0  0.16866243350E+02  0.29044019019E+01 -0.94403254643E+01  0.19545471605E+02  0.51100000000E-03 0. -1.
        -11    1    3    3    0    0  0.12984732391E+02  0.58682696171E+00 -0.22836260891E+02  0.26276271670E+02  0.51100000000E-03 0.  1.
         12    1    3    3    0    0  0.45834029575E+00  0.11108039759E+01  0.15554221466E+01  0.19655277546E+01  0.00000000000E+00 0. -1.
</event>
<event>
 7    1  0.1322363E-009  0.4778727E+02  0.7816164E-02  0.1312668E+00
        -11   -1    0    0    0    0  0.00000000000E+00  0.00000000000E+00  0.45593999997E+02  0.45594000000E+02  0.51100000000E-03 0.  1.
         11   -1    0    0    0    0 -0.00000000000E+00 -0.00000000000E+00 -0.45593999997E+02  0.45594000000E+02  0.51100000000E-03 0. -1.
    9900012    2    1    2    0    0 -0.27476029024E+02 -0.22224590499E+02 -0.25194415494E+02  0.47787272288E+02  0.20000005672E+02 0.  0.
        -12    1    1    2    0    0  0.27476029024E+02  0.22224590499E+02  0.25194415494E+02  0.43400727712E+02  0.00000000000E+00 0.  1.
         11    1    3    3    0    0 -0.22818844918E+02 -0.19578512276E+02 -0.10626083225E+02  0.31889362980E+02  0.51100000000E-03 0. -1.
        -11    1    3    3    0    0 -0.91533828469E-01 -0.16927529995E+01 -0.41727922913E+01  0.45039967725E+01  0.51100000000E-03 0.  1.
        -12    1    3    3    0    0 -0.45656502784E+01 -0.95332522365E+00 -0.10395539977E+02  0.11393912536E+02  0.00000000000E+00 0.  1.
</event>
<event>
 7    1  0.1322363E-009  0.4778727E+02  0.7816164E-02  0.1312668E+00
        -11   -1    0    0    0    0  0.00000000000E+00  0.00000000000E+00  0.45593999997E+02  0.45594000000E+02  0.51100000000E-03 0. -1.
         11   -1    0    0    0    0 -0.00000000000E+00 -0.00000000000E+00 -0.45593999997E+02  0.45594000000E+02  0.51100000000E-03 0.  1.
    9900012    2    1    2    0    0 -0.11913469526E+02  0.32130833214E+02 -0.26632728004E+02  0.47787269590E+02  0.19999993370E+02 0.  0.
        -12    1    1    2    0    0  0.11913469526E+02 -0.32130833214E+02  0.26632728004E+02  0.43400730410E+02  0.00000000000E+00 0.  1.
         11    1    3    3    0    0 -0.35565312864E+01  0.87378465893E+00  0.13692020293E+01  0.39098758138E+01  0.51100000000E-03 0. -1.
        -11    1    3    3    0    0  0.97556851884E+00  0.14614645982E+02 -0.10951194570E+02  0.18288473798E+02  0.51100000000E-03 0.  1.
        -12    1    3    3    0    0 -0.93325067585E+01  0.16642402573E+02 -0.17050735463E+02  0.25588919978E+02  0.00000000000E+00 0.  1.
</event>
<event>
 7    1  0.1322363E-009  0.4778728E+02  0.7816164E-02  0.1312668E+00
        -11   -1    0    0    0    0  0.00000000000E+00  0.00000000000E+00  0.45593999997E+02  0.45594000000E+02  0.51100000000E-03 0. -1.
         11   -1    0    0    0    0 -0.00000000000E+00 -0.00000000000E+00 -0.45593999997E+02  0.45594000000E+02  0.51100000000E-03 0.  1.
    9900012    2    1    2    0    0  0.68534539639E+00  0.32983973326E+02  0.28199480645E+02  0.47787275314E+02  0.20000019466E+02 0.  0.
        -12    1    1    2    0    0 -0.68534539639E+00 -0.32983973326E+02 -0.28199480645E+02  0.43400724686E+02  0.00000000000E+00 0.  1.
         11    1    3    3    0    0  0.55308578399E+01  0.12244707409E+02  0.10905120547E+02  0.17304476368E+02  0.51100000000E-03 0. -1.
        -11    1    3    3    0    0 -0.18595848813E+01  0.13704199709E+02  0.28195393022E+01  0.14114281694E+02  0.51100000000E-03 0.  1.
         12    1    3    3    0    0 -0.29859275622E+01  0.70350662076E+01  0.14474820795E+02  0.16368517251E+02  0.00000000000E+00 0. -1.
</event>
<event>
 7    1  0.1322363E-009  0.4778727E+02  0.7816164E-02  0.1312668E+00
        -11   -1    0    0    0    0  0.00000000000E+00  0.00000000000E+00  0.45593999997E+02  0.45594000000E+02  0.51100000000E-03 0.  1.
         11   -1    0    0    0    0 -0.00000000000E+00 -0.00000000000E+00 -0.45593999997E+02  0.45594000000E+02  0.51100000000E-03 0. -1.
    9900012    2    1    2    0    0  0.21290283667E+02  0.34606937164E+02  0.15254727826E+02  0.47787274205E+02  0.20000014412E+02 0.  0.
        -12    1    1    2    0    0 -0.21290283667E+02 -0.34606937164E+02 -0.15254727826E+02  0.43400725795E+02  0.00000000000E+00 0.  1.
         11    1    3    3    0    0  0.32685985661E+01  0.15441167247E+02  0.49773570889E+01  0.16549545806E+02  0.51100000000E-03 0. -1.
        -11    1    3    3    0    0 -0.60763930712E+00  0.74600251886E+01  0.30019251710E+01  0.80642889541E+01  0.51100000000E-03 0.  1.
         12    1    3    3    0    0  0.18629324408E+02  0.11705744728E+02  0.72754455661E+01  0.23173439445E+02  0.00000000000E+00 0. -1.
</event>
<event>
 7    1  0.1322363E-009  0.4778727E+02  0.7816164E-02  0.1312668E+00
        -11   -1    0    0    0    0  0.00000000000E+00  0.00000000000E+00  0.45593999997E+02  0.45594000000E+02  0.51100000000E-03 0.  1.
         11   -1    0    0    0    0 -0.00000000000E+00 -0.00000000000E+00 -0.45593999997E+02  0.45594000000E+02  0.51100000000E-03 0. -1.
    9900012    2    1    2    0    0  0.28790316481E+02  0.82816639671E+01 -0.31403108175E+02  0.47787268621E+02  0.19999988950E+02 0.  0.
        -12    1    1    2    0    0 -0.28790316481E+02 -0.82816639671E+01  0.31403108175E+02  0.43400731379E+02  0.00000000000E+00 0.  1.
         11    1    3    3    0    0  0.54537371883E+01 -0.30328321874E+01 -0.41978916299E+01  0.75208785919E+01  0.51100000000E-03 0. -1.
        -11    1    3    3    0    0  0.96815552564E+01  0.70803057440E+01 -0.21990004906E+02  0.25048424254E+02  0.51100000000E-03 0.  1.
        -12    1    3    3    0    0  0.13655024037E+02  0.42341904105E+01 -0.52152116398E+01  0.15217965775E+02  0.00000000000E+00 0.  1.
</event>
<event>
 7    1  0.1322363E-009  0.4778727E+02  0.7816164E-02  0.1312668E+00
        -11   -1    0    0    0    0  0.00000000000E+00  0.00000000000E+00  0.45593999997E+02  0.45594000000E+02  0.51100000000E-03 0.  1.
         11   -1    0    0    0    0 -0.00000000000E+00 -0.00000000000E+00 -0.45593999997E+02  0.45594000000E+02  0.51100000000E-03 0. -1.
    9900012    2    1    2    0    0  0.20923029029E+02 -0.23057101345E+01 -0.37954362493E+02  0.47787273333E+02  0.20000010434E+02 0.  0.
        -12    1    1    2    0    0 -0.20923029029E+02  0.23057101345E+01  0.37954362493E+02  0.43400726667E+02  0.00000000000E+00 0.  1.
         11    1    3    3    0    0  0.59701936725E+01 -0.88099336525E+01 -0.21909619858E+02  0.24357536534E+02  0.51100000000E-03 0. -1.
        -11    1    3    3    0    0  0.33802243616E+01  0.14119849328E+01 -0.10393673118E+01  0.38078737972E+01  0.51100000000E-03 0.  1.
         12    1    3    3    0    0  0.11572610995E+02  0.50922385852E+01 -0.15005375324E+02  0.19621863002E+02  0.00000000000E+00 0. -1.
</event>
<event>
 7    1  0.1322363E-009  0.4778726E+02  0.7816164E-02  0.1312668E+00
        -11   -1    0    0    0    0  0.00000000000E+00  0.00000000000E+00  0.45593999997E+02  0.45594000000E+02  0.51100000000E-03 0.  1.
         11   -1    0    0    0    0 -0.00000000000E+00 -0.00000000000E+00 -0.45593999997E+02  0.45594000000E+02  0.51100000000E-03 0. -1.
    9900012    2    1    2    0    0  0.41461181515E+01 -0.96943964422E+01 -0.42100503271E+02  0.47787262751E+02  0.19999962188E+02 0.  0.
        -12    1    1    2    0    0 -0.41461181515E+01  0.96943964422E+01  0.42100503271E+02  0.43400737249E+02  0.00000000000E+00 0.  1.
         11    1    3    3    0    0 -0.19993939778E+01 -0.94655604532E+01 -0.36278296451E+02  0.37546094399E+02  0.51100000000E-03 0. -1.
        -11    1    3    3    0    0  0.17007884385E+01  0.25077685655E+01 -0.31740791156E+01  0.43882072630E+01  0.51100000000E-03 0.  1.
        -12    1    3    3    0    0  0.44447236908E+01 -0.27366045545E+01 -0.26481277042E+01  0.58529610894E+01  0.00000000000E+00 0.  1.
</event>
<event>
 7    1  0.1322363E-009  0.4778727E+02  0.7816164E-02  0.1312668E+00
        -11   -1    0    0    0    0  0.00000000000E+00  0.00000000000E+00  0.45593999997E+02  0.45594000000E+02  0.51100000000E-03 0.  1.
         11   -1    0    0    0    0 -0.00000000000E+00 -0.00000000000E+00 -0.45593999997E+02  0.45594000000E+02  0.51100000000E-03 0. -1.
    9900012    2    1    2    0    0 -0.80870906484E+01  0.25049924955E+02 -0.34506859724E+02  0.47787272547E+02  0.20000006852E+02 0.  0.
        -12    1    1    2    0    0  0.80870906484E+01 -0.25049924955E+02  0.34506859724E+02  0.43400727453E+02  0.00000000000E+00 0.  1.
         11    1    3    3    0    0 -0.43910025381E+01  0.14617437598E+02 -0.13790984654E+02  0.20570406977E+02  0.51100000000E-03 0. -1.
        -11    1    3    3    0    0  0.19396234595E+01  0.74946130835E+01 -0.19172777510E+02  0.20676720294E+02  0.51100000000E-03 0.  1.
        -12    1    3    3    0    0 -0.56357115698E+01  0.29378742730E+01 -0.15430975606E+01  0.65401452754E+01  0.00000000000E+00 0.  1.
</event>
<event>
 7    1  0.1657724E-009  0.4778725E+02  0.7816164E-02  0.1312668E+00
        -11   -1    0    0    0    0  0.00000000000E+00  0.00000000000E+00  0.45593999997E+02  0.45594000000E+02  0.51100000000E-03 0.  1.
         11   -1    0    0    0    0 -0.00000000000E+00 -0.00000000000E+00 -0.45593999997E+02  0.45594000000E+02  0.51100000000E-03 0. -1.
    9900012    2    1    2    0    0 -0.15648534990E+02 -0.37159346374E+02 -0.16060255631E+02  0.47787245615E+02  0.19999884055E+02 0.  0.
        -12    1    1    2    0    0  0.15648534990E+02  0.37159346374E+02  0.16060255631E+02  0.43400754385E+02  0.00000000000E+00 0.  1.
         11    1    3    3    0    0 -0.81215163879E+01 -0.25853118864E+02 -0.15187830939E+02  0.31064658252E+02  0.51100000000E-03 0. -1.
        -11    1    3    3    0    0 -0.25241386042E+01  0.35409926668E+00 -0.29136540475E+01  0.38711809766E+01  0.51100000000E-03 0.  1.
         12    1    3    3    0    0 -0.50028799980E+01 -0.11660326776E+02  0.20412293549E+01  0.12851406385E+02  0.00000000000E+00 0. -1.
</event>
<event>
 7    1  0.1322363E-009  0.4778727E+02  0.7816164E-02  0.1312668E+00
        -11   -1    0    0    0    0  0.00000000000E+00  0.00000000000E+00  0.45593999997E+02  0.45594000000E+02  0.51100000000E-03 0.  1.
         11   -1    0    0    0    0 -0.00000000000E+00 -0.00000000000E+00 -0.45593999997E+02  0.45594000000E+02  0.51100000000E-03 0. -1.
    9900012    2    1    2    0    0  0.12514440382E+02  0.33105903425E+02 -0.25119932285E+02  0.47787273535E+02  0.20000011356E+02 0.  0.
        -12    1    1    2    0    0 -0.12514440382E+02 -0.33105903425E+02  0.25119932285E+02  0.43400726465E+02  0.00000000000E+00 0.  1.
         11    1    3    3    0    0  0.80958846450E+01  0.11341185348E+02 -0.70089452351E+01  0.15597793012E+02  0.51100000000E-03 0. -1.
        -11    1    3    3    0    0 -0.12851251269E+01  0.15401909182E+02 -0.44625716445E+01  0.16086792688E+02  0.51100000000E-03 0.  1.
         12    1    3    3    0    0  0.57036808642E+01  0.63628088953E+01 -0.13648415405E+02  0.16102687835E+02  0.00000000000E+00 0. -1.
</event>
<event>
 7    1  0.1322363E-009  0.4778727E+02  0.7816164E-02  0.1312668E+00
        -11   -1    0    0    0    0  0.00000000000E+00  0.00000000000E+00  0.45593999997E+02  0.45594000000E+02  0.51100000000E-03 0.  1.
         11   -1    0    0    0    0 -0.00000000000E+00 -0.00000000000E+00 -0.45593999997E+02  0.45594000000E+02  0.51100000000E-03 0. -1.
    9900012    2    1    2    0    0 -0.38742889776E+02 -0.80725210021E+01 -0.17817021675E+02  0.47787269996E+02  0.19999995219E+02 0.  0.
        -12    1    1    2    0    0  0.38742889776E+02  0.80725210021E+01  0.17817021675E+02  0.43400730004E+02  0.00000000000E+00 0.  1.
         11    1    3    3    0    0 -0.29429070725E+02 -0.63772076360E+01 -0.17494792566E+02  0.34825375061E+02  0.51100000000E-03 0. -1.
        -11    1    3    3    0    0 -0.69008102059E+01  0.31010281415E+01 -0.57052202108E+00  0.75870318748E+01  0.51100000000E-03 0.  1.
        -12    1    3    3    0    0 -0.24130088452E+01 -0.47963415075E+01  0.24829291165E+00  0.53748630600E+01  0.00000000000E+00 0.  1.
</event>
<event>
 7    1  0.1322363E-009  0.4778727E+02  0.7816164E-02  0.1312668E+00
        -11   -1    0    0    0    0  0.00000000000E+00  0.00000000000E+00  0.45593999997E+02  0.45594000000E+02  0.51100000000E-03 0. -1.
         11   -1    0    0    0    0 -0.00000000000E+00 -0.00000000000E+00 -0.45593999997E+02  0.45594000000E+02  0.51100000000E-03 0.  1.
    9900012    2    1    2    0    0  0.13939389722E+02  0.39039143721E+02 -0.12855432582E+02  0.47787268726E+02  0.19999989429E+02 0.  0.
        -12    1    1    2    0    0 -0.13939389722E+02 -0.39039143721E+02  0.12855432582E+02  0.43400731274E+02  0.00000000000E+00 0.  1.
         11    1    3    3    0    0  0.42374856336E+01  0.28642628966E+02 -0.12200039402E+02  0.31419698284E+02  0.51100000000E-03 0. -1.
        -11    1    3    3    0    0 -0.18297877698E+00 -0.82421713682E+00  0.10156091244E+01  0.13207108980E+01  0.51100000000E-03 0.  1.
         12    1    3    3    0    0  0.98848828649E+01  0.11220731892E+02 -0.16710023036E+01  0.15046859544E+02  0.00000000000E+00 0. -1.
</event>
<event>
 7    1  0.1322363E-009  0.4778727E+02  0.7816164E-02  0.1312668E+00
        -11   -1    0    0    0    0  0.00000000000E+00  0.00000000000E+00  0.45593999997E+02  0.45594000000E+02  0.51100000000E-03 0. -1.
         11   -1    0    0    0    0 -0.00000000000E+00 -0.00000000000E+00 -0.45593999997E+02  0.45594000000E+02  0.51100000000E-03 0.  1.
    9900012    2    1    2    0    0  0.39945268461E+02 -0.16968448899E+02  0.26558463210E+00  0.47787271139E+02  0.20000000431E+02 0.  0.
        -12    1    1    2    0    0 -0.39945268461E+02  0.16968448899E+02 -0.26558463210E+00  0.43400728861E+02  0.00000000000E+00 0.  1.
         11    1    3    3    0    0  0.22218980627E+02 -0.15999056530E+02 -0.39924012571E+01  0.27669336422E+02  0.51100000000E-03 0. -1.
        -11    1    3    3    0    0  0.44086996103E+01 -0.11493358641E+01 -0.24847928506E+01  0.51895858172E+01  0.51100000000E-03 0.  1.
        -12    1    3    3    0    0  0.13317588223E+02  0.17994349424E+00  0.67427787398E+01  0.14928348900E+02  0.00000000000E+00 0.  1.
</event>
<event>
 7    1  0.1322363E-009  0.4778726E+02  0.7816164E-02  0.1312668E+00
        -11   -1    0    0    0    0  0.00000000000E+00  0.00000000000E+00  0.45593999997E+02  0.45594000000E+02  0.51100000000E-03 0. -1.
         11   -1    0    0    0    0 -0.00000000000E+00 -0.00000000000E+00 -0.45593999997E+02  0.45594000000E+02  0.51100000000E-03 0.  1.
    9900012    2    1    2    0    0 -0.13257211496E+02 -0.16594557800E+02  0.37848266023E+02  0.47787259843E+02  0.19999948928E+02 0.  0.
        -12    1    1    2    0    0  0.13257211496E+02  0.16594557800E+02 -0.37848266023E+02  0.43400740157E+02  0.00000000000E+00 0.  1.
         11    1    3    3    0    0 -0.31267153569E+01 -0.14485407481E+02  0.18311699989E+02  0.23556776850E+02  0.51100000000E-03 0. -1.
        -11    1    3    3    0    0 -0.44803986774E+01 -0.22042722404E+01  0.17540551398E+02  0.18237426683E+02  0.51100000000E-03 0.  1.
         12    1    3    3    0    0 -0.56500974619E+01  0.95121920514E-01  0.19960146358E+01  0.59930563100E+01  0.00000000000E+00 0. -1.
</event>
<event>
 7    1  0.1322363E-009  0.4778727E+02  0.7816164E-02  0.1312668E+00
        -11   -1    0    0    0    0  0.00000000000E+00  0.00000000000E+00  0.45593999997E+02  0.45594000000E+02  0.51100000000E-03 0. -1.
         11   -1    0    0    0    0 -0.00000000000E+00 -0.00000000000E+00 -0.45593999997E+02  0.45594000000E+02  0.51100000000E-03 0.  1.
    9900012    2    1    2    0    0  0.24167706879E+02  0.69558314034E+01  0.35371765224E+02  0.47787269345E+02  0.19999992252E+02 0.  0.
        -12    1    1    2    0    0 -0.24167706879E+02 -0.69558314034E+01 -0.35371765224E+02  0.43400730655E+02  0.00000000000E+00 0.  1.
         11    1    3    3    0    0  0.34398189700E+01  0.61547712973E+01  0.35254999003E+01  0.78830650179E+01  0.51100000000E-03 0. -1.
        -11    1    3    3    0    0  0.32762547366E+01 -0.97014574452E+00  0.15685248442E+02  0.16053100848E+02  0.51100000000E-03 0.  1.
         12    1    3    3    0    0  0.17451633172E+02  0.17712058506E+01  0.16161016882E+02  0.23851103480E+02  0.00000000000E+00 0. -1.
</event>
<event>
 7    1  0.1322363E-009  0.4778727E+02  0.7816164E-02  0.1312668E+00
        -11   -1    0    0    0    0  0.00000000000E+00  0.00000000000E+00  0.45593999997E+02  0.45594000000E+02  0.51100000000E-03 0.  1.
         11   -1    0    0    0    0 -0.00000000000E+00 -0.00000000000E+00 -0.45593999997E+02  0.45594000000E+02  0.51100000000E-03 0. -1.
    9900012    2    1    2    0    0  0.22506917844E+02 -0.85007572277E+01 -0.36121999617E+02  0.47787273271E+02  0.20000010153E+02 0.  0.
        -12    1    1    2    0    0 -0.22506917844E+02  0.85007572277E+01  0.36121999617E+02  0.43400726729E+02  0.00000000000E+00 0.  1.
         11    1    3    3    0    0  0.29574014628E+01 -0.47085121874E+01 -0.18774609420E+02  0.19580660600E+02  0.51100000000E-03 0. -1.
        -11    1    3    3    0    0  0.70023840398E+01 -0.58843616546E+01 -0.47596388662E+01  0.10310832009E+02  0.51100000000E-03 0.  1.
        -12    1    3    3    0    0  0.12547132342E+02  0.20921166143E+01 -0.12587751331E+02  0.17895780662E+02  0.00000000000E+00 0.  1.
</event>
<event>
 7    1  0.1322363E-009  0.4778727E+02  0.7816164E-02  0.1312668E+00
        -11   -1    0    0    0    0  0.00000000000E+00  0.00000000000E+00  0.45593999997E+02  0.45594000000E+02  0.51100000000E-03 0.  1.
         11   -1    0    0    0    0 -0.00000000000E+00 -0.00000000000E+00 -0.45593999997E+02  0.45594000000E+02  0.51100000000E-03 0. -1.
    9900012    2    1    2    0    0  0.35418615662E+02  0.51562144273E+01 -0.24547061419E+02  0.47787272967E+02  0.20000008767E+02 0.  0.
        -12    1    1    2    0    0 -0.35418615662E+02 -0.51562144273E+01  0.24547061419E+02  0.43400727033E+02  0.00000000000E+00 0.  1.
         11    1    3    3    0    0  0.27822728813E+02  0.45058778160E+01 -0.22808551185E+02  0.36257925767E+02  0.51100000000E-03 0. -1.
        -11    1    3    3    0    0  0.76587552272E+01  0.31591178110E+01  0.30900807318E+00  0.82904790708E+01  0.51100000000E-03 0.  1.
        -12    1    3    3    0    0 -0.62868378206E-01 -0.25087811997E+01 -0.20475183073E+01  0.32388681294E+01  0.00000000000E+00 0.  1.
</event>
<event>
 7    1  0.1322363E-009  0.4778727E+02  0.7816164E-02  0.1312668E+00
        -11   -1    0    0    0    0  0.00000000000E+00  0.00000000000E+00  0.45593999997E+02  0.45594000000E+02  0.51100000000E-03 0.  1.
         11   -1    0    0    0    0 -0.00000000000E+00 -0.00000000000E+00 -0.45593999997E+02  0.45594000000E+02  0.51100000000E-03 0. -1.
    9900012    2    1    2    0    0 -0.99991268475E+01  0.32593747907E+02 -0.26856811022E+02  0.47787271451E+02  0.20000001853E+02 0.  0.
        -12    1    1    2    0    0  0.99991268475E+01 -0.32593747907E+02  0.26856811022E+02  0.43400728549E+02  0.00000000000E+00 0.  1.
         11    1    3    3    0    0 -0.11449754262E+01  0.23801116602E+02 -0.22684655881E+02  0.32899813570E+02  0.51100000000E-03 0. -1.
        -11    1    3    3    0    0 -0.76437663515E+01  0.79784974974E+01 -0.59807167014E+01  0.12563938828E+02  0.51100000000E-03 0.  1.
        -12    1    3    3    0    0 -0.12103850698E+01  0.81413380723E+00  0.18085615601E+01  0.23235190531E+01  0.00000000000E+00 0.  1.
</event>
<event>
 7    1  0.1322363E-009  0.4778727E+02  0.7816164E-02  0.1312668E+00
        -11   -1    0    0    0    0  0.00000000000E+00  0.00000000000E+00  0.45593999997E+02  0.45594000000E+02  0.51100000000E-03 0. -1.
         11   -1    0    0    0    0 -0.00000000000E+00 -0.00000000000E+00 -0.45593999997E+02  0.45594000000E+02  0.51100000000E-03 0.  1.
    9900012    2    1    2    0    0 -0.40113767388E+02 -0.14071938386E+02  0.87458280516E+01  0.47787270832E+02  0.19999999033E+02 0.  0.
        -12    1    1    2    0    0  0.40113767388E+02  0.14071938386E+02 -0.87458280516E+01  0.43400729168E+02  0.00000000000E+00 0.  1.
         11    1    3    3    0    0 -0.31219580579E+01  0.19540412285E+01  0.44448356707E+01  0.57724746547E+01  0.51100000000E-03 0. -1.
        -11    1    3    3    0    0 -0.15566347438E+02 -0.92097129829E+01 -0.30874143000E+01  0.18348354507E+02  0.51100000000E-03 0.  1.
         12    1    3    3    0    0 -0.21425461892E+02 -0.68162666313E+01  0.73884066808E+01  0.23666441671E+02  0.00000000000E+00 0. -1.
</event>
<event>
 7    1  0.1322363E-009  0.4778727E+02  0.7816164E-02  0.1312668E+00
        -11   -1    0    0    0    0  0.00000000000E+00  0.00000000000E+00  0.45593999997E+02  0.45594000000E+02  0.51100000000E-03 0. -1.
         11   -1    0    0    0    0 -0.00000000000E+00 -0.00000000000E+00 -0.45593999997E+02  0.45594000000E+02  0.51100000000E-03 0.  1.
    9900012    2    1    2    0    0 -0.24964418359E+02 -0.32697813315E+02  0.13829466934E+02  0.47787270337E+02  0.19999996773E+02 0.  0.
        -12    1    1    2    0    0  0.24964418359E+02  0.32697813315E+02 -0.13829466934E+02  0.43400729663E+02  0.00000000000E+00 0.  1.
         11    1    3    3    0    0 -0.80009912013E+01 -0.17995795869E+02  0.12217795631E+02  0.23176260688E+02  0.51100000000E-03 0. -1.
        -11    1    3    3    0    0 -0.13323867190E+02 -0.15217919539E+02  0.34212711200E+01  0.20513790686E+02  0.51100000000E-03 0.  1.
        -12    1    3    3    0    0 -0.36395599682E+01  0.51590209200E+00 -0.18095998163E+01  0.40972189624E+01  0.00000000000E+00 0.  1.
</event>
<event>
 7    1  0.1322363E-009  0.4778727E+02  0.7816164E-02  0.1312668E+00
        -11   -1    0    0    0    0  0.00000000000E+00  0.00000000000E+00  0.45593999997E+02  0.45594000000E+02  0.51100000000E-03 0.  1.
         11   -1    0    0    0    0 -0.00000000000E+00 -0.00000000000E+00 -0.45593999997E+02  0.45594000000E+02  0.51100000000E-03 0. -1.
    9900012    2    1    2    0    0  0.16319066457E+02  0.18174691921E+01 -0.40174719615E+02  0.47787271660E+02  0.20000002805E+02 0.  0.
        -12    1    1    2    0    0 -0.16319066457E+02 -0.18174691921E+01  0.40174719615E+02  0.43400728340E+02  0.00000000000E+00 0.  1.
         11    1    3    3    0    0  0.16361563044E+02  0.55803449746E+01 -0.36655311235E+02  0.40527186398E+02  0.51100000000E-03 0. -1.
        -11    1    3    3    0    0 -0.92492649175E-01  0.52996237049E+00  0.93176557421E+00  0.10759193049E+01  0.51100000000E-03 0.  1.
        -12    1    3    3    0    0  0.49996062024E-01 -0.42928381530E+01 -0.44511739541E+01  0.61841659570E+01  0.00000000000E+00 0.  1.
</event>
<event>
 7    1  0.1322363E-009  0.4778727E+02  0.7816164E-02  0.1312668E+00
        -11   -1    0    0    0    0  0.00000000000E+00  0.00000000000E+00  0.45593999997E+02  0.45594000000E+02  0.51100000000E-03 0.  1.
         11   -1    0    0    0    0 -0.00000000000E+00 -0.00000000000E+00 -0.45593999997E+02  0.45594000000E+02  0.51100000000E-03 0. -1.
    9900012    2    1    2    0    0  0.44707218929E+01  0.26252808268E+02 -0.34269903936E+02  0.47787267149E+02  0.19999982241E+02 0.  0.
        -12    1    1    2    0    0 -0.44707218929E+01 -0.26252808268E+02  0.34269903936E+02  0.43400732851E+02  0.00000000000E+00 0.  1.
         11    1    3    3    0    0  0.62474565390E+01  0.96697865869E+01 -0.24719702932E+02  0.27269015368E+02  0.51100000000E-03 0. -1.
        -11    1    3    3    0    0 -0.36573999010E+01  0.43777796049E+01 -0.20062067637E+01  0.60470153088E+01  0.51100000000E-03 0.  1.
        -12    1    3    3    0    0  0.18806652549E+01  0.12205242076E+02 -0.75439942399E+01  0.14471236472E+02  0.00000000000E+00 0.  1.
</event>
<event>
 7    1  0.1322363E-009  0.4778727E+02  0.7816164E-02  0.1312668E+00
        -11   -1    0    0    0    0  0.00000000000E+00  0.00000000000E+00  0.45593999997E+02  0.45594000000E+02  0.51100000000E-03 0.  1.
         11   -1    0    0    0    0 -0.00000000000E+00 -0.00000000000E+00 -0.45593999997E+02  0.45594000000E+02  0.51100000000E-03 0. -1.
    9900012    2    1    2    0    0 -0.13869933612E+02 -0.40552144886E+02 -0.68390037294E+01  0.47787268609E+02  0.19999988898E+02 0.  0.
        -12    1    1    2    0    0  0.13869933612E+02  0.40552144886E+02  0.68390037294E+01  0.43400731391E+02  0.00000000000E+00 0.  1.
         11    1    3    3    0    0 -0.15597571607E+01 -0.30216194272E+01  0.10789254473E+01  0.35675070771E+01  0.51100000000E-03 0. -1.
        -11    1    3    3    0    0 -0.38497774793E+01 -0.13119621673E+01  0.34439899679E+01  0.53294557441E+01  0.51100000000E-03 0.  1.
         12    1    3    3    0    0 -0.84603989719E+01 -0.36218563291E+02 -0.11361919145E+02  0.38890305788E+02  0.00000000000E+00 0. -1.
</event>
<event>
 7    1  0.1322363E-009  0.4778727E+02  0.7816164E-02  0.1312668E+00
        -11   -1    0    0    0    0  0.00000000000E+00  0.00000000000E+00  0.45593999997E+02  0.45594000000E+02  0.51100000000E-03 0.  1.
         11   -1    0    0    0    0 -0.00000000000E+00 -0.00000000000E+00 -0.45593999997E+02  0.45594000000E+02  0.51100000000E-03 0. -1.
    9900012    2    1    2    0    0 -0.94640264311E+01  0.28488772628E+02 -0.31343987671E+02  0.47787268148E+02  0.19999986795E+02 0.  0.
        -12    1    1    2    0    0  0.94640264311E+01 -0.28488772628E+02  0.31343987671E+02  0.43400731852E+02  0.00000000000E+00 0.  1.
         11    1    3    3    0    0 -0.65491174589E+01  0.18264994839E+02 -0.22962684601E+02  0.30063031456E+02  0.51100000000E-03 0. -1.
        -11    1    3    3    0    0  0.33147825987E+01  0.22366551785E+01 -0.61761436148E+01  0.73576599729E+01  0.51100000000E-03 0.  1.
         12    1    3    3    0    0 -0.62296915709E+01  0.79871226105E+01 -0.22051594554E+01  0.10366576720E+02  0.00000000000E+00 0. -1.
</event>
<event>
 7    1  0.1322363E-009  0.4778727E+02  0.7816164E-02  0.1312668E+00
        -11   -1    0    0    0    0  0.00000000000E+00  0.00000000000E+00  0.45593999997E+02  0.45594000000E+02  0.51100000000E-03 0. -1.
         11   -1    0    0    0    0 -0.00000000000E+00 -0.00000000000E+00 -0.45593999997E+02  0.45594000000E+02  0.51100000000E-03 0.  1.
    9900012    2    1    2    0    0 -0.14056607213E+02 -0.23174206405E+02  0.33896776927E+02  0.47787268037E+02  0.19999986289E+02 0.  0.
        -12    1    1    2    0    0  0.14056607213E+02  0.23174206405E+02 -0.33896776927E+02  0.43400731963E+02  0.00000000000E+00 0.  1.
         11    1    3    3    0    0 -0.10090992894E+02 -0.25233160172E+01  0.54614239002E+01  0.11748294029E+02  0.51100000000E-03 0. -1.
        -11    1    3    3    0    0 -0.50757705503E+01 -0.11181866716E+02  0.19018817883E+02  0.22638750493E+02  0.51100000000E-03 0.  1.
        -12    1    3    3    0    0  0.11101562312E+01 -0.94690236714E+01  0.94165351440E+01  0.13400223515E+02  0.00000000000E+00 0.  1.
</event>
<event>
 7    1  0.1322363E-009  0.4778727E+02  0.7816164E-02  0.1312668E+00
        -11   -1    0    0    0    0  0.00000000000E+00  0.00000000000E+00  0.45593999997E+02  0.45594000000E+02  0.51100000000E-03 0.  1.
         11   -1    0    0    0    0 -0.00000000000E+00 -0.00000000000E+00 -0.45593999997E+02  0.45594000000E+02  0.51100000000E-03 0. -1.
    9900012    2    1    2    0    0  0.29706544448E+02 -0.69912326395E+01 -0.30858826607E+02  0.47787270785E+02  0.19999998815E+02 0.  0.
        -12    1    1    2    0    0 -0.29706544448E+02  0.69912326395E+01  0.30858826607E+02  0.43400729215E+02  0.00000000000E+00 0.  1.
         11    1    3    3    0    0  0.16556623066E+01 -0.37540130667E+00 -0.53658547590E+01  0.56280139810E+01  0.51100000000E-03 0. -1.
        -11    1    3    3    0    0  0.32098656802E+01 -0.72363273330E+01 -0.24922537415E+01  0.82993373186E+01  0.51100000000E-03 0.  1.
         12    1    3    3    0    0  0.24841016462E+02  0.62049600018E+00 -0.23000718106E+02  0.33859919485E+02  0.00000000000E+00 0. -1.
</event>
<event>
 7    1  0.1322363E-009  0.4778728E+02  0.7816164E-02  0.1312668E+00
        -11   -1    0    0    0    0  0.00000000000E+00  0.00000000000E+00  0.45593999997E+02  0.45594000000E+02  0.51100000000E-03 0.  1.
         11   -1    0    0    0    0 -0.00000000000E+00 -0.00000000000E+00 -0.45593999997E+02  0.45594000000E+02  0.51100000000E-03 0. -1.
    9900012    2    1    2    0    0  0.32971619689E+02  0.15893425842E+02 -0.23321535548E+02  0.47787277538E+02  0.20000029605E+02 0.  0.
        -12    1    1    2    0    0 -0.32971619689E+02 -0.15893425842E+02  0.23321535548E+02  0.43400722462E+02  0.00000000000E+00 0.  1.
         11    1    3    3    0    0  0.38167761724E+01 -0.15560143840E+01 -0.27505036275E+01  0.49552226569E+01  0.51100000000E-03 0. -1.
        -11    1    3    3    0    0  0.16186924558E+02  0.17103486812E+02 -0.82815068784E+01  0.24962554841E+02  0.51100000000E-03 0.  1.
        -12    1    3    3    0    0  0.12967918959E+02  0.34595341367E+00 -0.12289525042E+02  0.17869500039E+02  0.00000000000E+00 0.  1.
</event>
<event>
 7    1  0.1322363E-009  0.4778727E+02  0.7816164E-02  0.1312668E+00
        -11   -1    0    0    0    0  0.00000000000E+00  0.00000000000E+00  0.45593999997E+02  0.45594000000E+02  0.51100000000E-03 0. -1.
         11   -1    0    0    0    0 -0.00000000000E+00 -0.00000000000E+00 -0.45593999997E+02  0.45594000000E+02  0.51100000000E-03 0.  1.
    9900012    2    1    2    0    0  0.27101038719E+02 -0.18355278721E+02  0.28499833618E+02  0.47787273361E+02  0.20000010561E+02 0.  0.
        -12    1    1    2    0    0 -0.27101038719E+02  0.18355278721E+02 -0.28499833618E+02  0.43400726639E+02  0.00000000000E+00 0.  1.
         11    1    3    3    0    0  0.23843328154E+02 -0.13511589065E+02  0.25764044384E+02  0.37614536017E+02  0.51100000000E-03 0. -1.
        -11    1    3    3    0    0  0.44984948202E+01 -0.16005802773E+00 -0.20306661236E+00  0.45059194988E+01  0.51100000000E-03 0.  1.
         12    1    3    3    0    0 -0.12407842556E+01 -0.46836316282E+01  0.29388558464E+01  0.56668178445E+01  0.00000000000E+00 0. -1.
</event>
<event>
 7    1  0.1322363E-009  0.4778727E+02  0.7816164E-02  0.1312668E+00
        -11   -1    0    0    0    0  0.00000000000E+00  0.00000000000E+00  0.45593999997E+02  0.45594000000E+02  0.51100000000E-03 0.  1.
         11   -1    0    0    0    0 -0.00000000000E+00 -0.00000000000E+00 -0.45593999997E+02  0.45594000000E+02  0.51100000000E-03 0. -1.
    9900012    2    1    2    0    0 -0.40467399775E+02 -0.80940938820E+01 -0.13434971444E+02  0.47787271227E+02  0.20000000833E+02 0.  0.
        -12    1    1    2    0    0  0.40467399775E+02  0.80940938820E+01  0.13434971444E+02  0.43400728773E+02  0.00000000000E+00 0.  1.
         11    1    3    3    0    0 -0.36143446309E+02 -0.10942176708E+02 -0.13138031102E+02  0.39983594181E+02  0.51100000000E-03 0. -1.
        -11    1    3    3    0    0 -0.73877162920E+00 -0.17815707027E+01  0.12679660330E+00  0.19328360842E+01  0.51100000000E-03 0.  1.
         12    1    3    3    0    0 -0.35851818372E+01  0.46296535283E+01 -0.42373694569E+00  0.58708409617E+01  0.00000000000E+00 0. -1.
</event>
<event>
 7    1  0.1322363E-009  0.4778727E+02  0.7816164E-02  0.1312668E+00
        -11   -1    0    0    0    0  0.00000000000E+00  0.00000000000E+00  0.45593999997E+02  0.45594000000E+02  0.51100000000E-03 0.  1.
         11   -1    0    0    0    0 -0.00000000000E+00 -0.00000000000E+00 -0.45593999997E+02  0.45594000000E+02  0.51100000000E-03 0. -1.
    9900012    2    1    2    0    0 -0.12473871463E+02  0.29389073909E+02 -0.29399118990E+02  0.47787270375E+02  0.19999996950E+02 0.  0.
        -12    1    1    2    0    0  0.12473871463E+02 -0.29389073909E+02  0.29399118990E+02  0.43400729625E+02  0.00000000000E+00 0.  1.
         11    1    3    3    0    0 -0.56248241801E+01  0.77078379919E+00  0.10402669754E+00  0.56783427632E+01  0.51100000000E-03 0.  1.
        -11    1    3    3    0    0 -0.41556409024E+01  0.11893709959E+02 -0.88466629088E+01  0.15394581279E+02  0.51100000000E-03 0. -1.
        -12    1    3    3    0    0 -0.26934063806E+01  0.16724580152E+02 -0.20656482779E+02  0.26714346333E+02  0.00000000000E+00 0.  1.
</event>
<event>
 7    1  0.1322363E-009  0.4778729E+02  0.7816164E-02  0.1312668E+00
        -11   -1    0    0    0    0  0.00000000000E+00  0.00000000000E+00  0.45593999997E+02  0.45594000000E+02  0.51100000000E-03 0.  1.
         11   -1    0    0    0    0 -0.00000000000E+00 -0.00000000000E+00 -0.45593999997E+02  0.45594000000E+02  0.51100000000E-03 0. -1.
    9900012    2    1    2    0    0 -0.41324019195E+01  0.41588048394E+02 -0.11703820562E+02  0.47787286519E+02  0.20000070557E+02 0.  0.
        -12    1    1    2    0    0  0.41324019195E+01 -0.41588048394E+02  0.11703820562E+02  0.43400713481E+02  0.00000000000E+00 0.  1.
         11    1    3    3    0    0 -0.62958678115E+01  0.25492549113E+02 -0.45577850113E+01  0.26651105348E+02  0.51100000000E-03 0. -1.
        -11    1    3    3    0    0 -0.36369768355E+01  0.16416780170E+01 -0.30776015827E+01  0.50392796089E+01  0.51100000000E-03 0.  1.
         12    1    3    3    0    0  0.58004427276E+01  0.14453821264E+02 -0.40684339678E+01  0.16096901563E+02  0.00000000000E+00 0. -1.
</event>
<event>
 7    1  0.1322363E-009  0.4778728E+02  0.7816164E-02  0.1312668E+00
        -11   -1    0    0    0    0  0.00000000000E+00  0.00000000000E+00  0.45593999997E+02  0.45594000000E+02  0.51100000000E-03 0.  1.
         11   -1    0    0    0    0 -0.00000000000E+00 -0.00000000000E+00 -0.45593999997E+02  0.45594000000E+02  0.51100000000E-03 0. -1.
    9900012    2    1    2    0    0 -0.31833667511E+01 -0.34567826145E+02 -0.26049074075E+02  0.47787277789E+02  0.20000030752E+02 0.  0.
        -12    1    1    2    0    0  0.31833667511E+01  0.34567826145E+02  0.26049074075E+02  0.43400722211E+02  0.00000000000E+00 0.  1.
         11    1    3    3    0    0 -0.56438052097E+01 -0.19700013783E+01 -0.80831718128E+01  0.10053412828E+02  0.51100000000E-03 0.  1.
        -11    1    3    3    0    0 -0.40977727448E+00 -0.17729592381E+02 -0.12223813759E+02  0.21538987592E+02  0.51100000000E-03 0. -1.
        -12    1    3    3    0    0  0.28702157330E+01 -0.14868232386E+02 -0.57420885036E+01  0.16194877369E+02  0.00000000000E+00 0.  1.
</event>
<event>
 7    1  0.1322363E-009  0.4778727E+02  0.7816164E-02  0.1312668E+00
        -11   -1    0    0    0    0  0.00000000000E+00  0.00000000000E+00  0.45593999997E+02  0.45594000000E+02  0.51100000000E-03 0.  1.
         11   -1    0    0    0    0 -0.00000000000E+00 -0.00000000000E+00 -0.45593999997E+02  0.45594000000E+02  0.51100000000E-03 0. -1.
    9900012    2    1    2    0    0  0.40529787921E+02  0.87579861092E+01 -0.12816301461E+02  0.47787267140E+02  0.19999982199E+02 0.  0.
        -12    1    1    2    0    0 -0.40529787921E+02 -0.87579861092E+01  0.12816301461E+02  0.43400732860E+02  0.00000000000E+00 0.  1.
         11    1    3    3    0    0  0.55083184137E+01  0.52937566164E+00  0.31798912919E+01  0.63822816631E+01  0.51100000000E-03 0. -1.
        -11    1    3    3    0    0  0.27728426820E+02  0.97823656737E+01 -0.80017415076E+01  0.30472745191E+02  0.51100000000E-03 0.  1.
         12    1    3    3    0    0  0.72930426877E+01 -0.15537552262E+01 -0.79944512456E+01  0.10932240286E+02  0.00000000000E+00 0. -1.
</event>
<event>
 7    1  0.1505878E-009  0.4778727E+02  0.7816164E-02  0.1312668E+00
        -11   -1    0    0    0    0  0.00000000000E+00  0.00000000000E+00  0.45593999997E+02  0.45594000000E+02  0.51100000000E-03 0.  1.
         11   -1    0    0    0    0 -0.00000000000E+00 -0.00000000000E+00 -0.45593999997E+02  0.45594000000E+02  0.51100000000E-03 0. -1.
    9900012    2    1    2    0    0  0.42592822425E+02  0.71749856415E+01 -0.42419781865E+01  0.47787270512E+02  0.19999997575E+02 0.  0.
        -12    1    1    2    0    0 -0.42592822425E+02 -0.71749856415E+01  0.42419781865E+01  0.43400729488E+02  0.00000000000E+00 0.  1.
         11    1    3    3    0    0  0.11630155620E+02  0.79302041152E+01 -0.41434535770E+01  0.14673679323E+02  0.51100000000E-03 0. -1.
        -11    1    3    3    0    0  0.29934957666E+01 -0.34965968079E+01  0.18091329619E+01  0.49457222401E+01  0.51100000000E-03 0.  1.
         12    1    3    3    0    0  0.27969171039E+02  0.27413783342E+01 -0.19076575714E+01  0.28167868950E+02  0.00000000000E+00 0. -1.
</event>
<event>
 7    1  0.1322363E-009  0.4778727E+02  0.7816164E-02  0.1312668E+00
        -11   -1    0    0    0    0  0.00000000000E+00  0.00000000000E+00  0.45593999997E+02  0.45594000000E+02  0.51100000000E-03 0. -1.
         11   -1    0    0    0    0 -0.00000000000E+00 -0.00000000000E+00 -0.45593999997E+02  0.45594000000E+02  0.51100000000E-03 0.  1.
    9900012    2    1    2    0    0 -0.99968156633E+01  0.15544614841E+02  0.39268969155E+02  0.47787270600E+02  0.19999997972E+02 0.  0.
        -12    1    1    2    0    0  0.99968156633E+01 -0.15544614841E+02 -0.39268969155E+02  0.43400729400E+02  0.00000000000E+00 0.  1.
         11    1    3    3    0    0  0.28436310247E+01  0.60460523436E+01  0.85471305661E+01  0.10848706260E+02  0.51100000000E-03 0. -1.
        -11    1    3    3    0    0  0.72875707189E+00  0.38847314662E+01  0.14870970090E+01  0.42229945785E+01  0.51100000000E-03 0.  1.
        -12    1    3    3    0    0 -0.13569203760E+02  0.56138310313E+01  0.29234741580E+02  0.32715569761E+02  0.00000000000E+00 0.  1.
</event>
<event>
 7    1  0.1322363E-009  0.4778727E+02  0.7816164E-02  0.1312668E+00
        -11   -1    0    0    0    0  0.00000000000E+00  0.00000000000E+00  0.45593999997E+02  0.45594000000E+02  0.51100000000E-03 0.  1.
         11   -1    0    0    0    0 -0.00000000000E+00 -0.00000000000E+00 -0.45593999997E+02  0.45594000000E+02  0.51100000000E-03 0. -1.
    9900012    2    1    2    0    0 -0.38421923191E+02 -0.16029910399E+02  0.12264627065E+02  0.47787270903E+02  0.19999999355E+02 0.  0.
        -12    1    1    2    0    0  0.38421923191E+02  0.16029910399E+02 -0.12264627065E+02  0.43400729097E+02  0.00000000000E+00 0.  1.
         11    1    3    3    0    0 -0.26552976062E+02 -0.26744871081E+01  0.12172492438E+02  0.29332285821E+02  0.51100000000E-03 0. -1.
        -11    1    3    3    0    0 -0.64784091316E+00 -0.31113552320E+01 -0.64641962495E+00  0.32431601596E+01  0.51100000000E-03 0.  1.
         12    1    3    3    0    0 -0.11221106216E+02 -0.10244068059E+02  0.73855425253E+00  0.15211824923E+02  0.00000000000E+00 0. -1.
</event>
<event>
 7    1  0.1322363E-009  0.4778727E+02  0.7816164E-02  0.1312668E+00
        -11   -1    0    0    0    0  0.00000000000E+00  0.00000000000E+00  0.45593999997E+02  0.45594000000E+02  0.51100000000E-03 0.  1.
         11   -1    0    0    0    0 -0.00000000000E+00 -0.00000000000E+00 -0.45593999997E+02  0.45594000000E+02  0.51100000000E-03 0. -1.
    9900012    2    1    2    0    0 -0.28639002801E+02  0.17914077202E+02 -0.27249157146E+02  0.47787271797E+02  0.20000003430E+02 0.  0.
        -12    1    1    2    0    0  0.28639002801E+02 -0.17914077202E+02  0.27249157146E+02  0.43400728203E+02  0.00000000000E+00 0.  1.
         11    1    3    3    0    0 -0.23180991947E+02  0.71717710841E+01 -0.12905625748E+02  0.27483592639E+02  0.51100000000E-03 0. -1.
        -11    1    3    3    0    0 -0.65268387261E+01  0.67371332012E+01 -0.12824310529E+02  0.15888723307E+02  0.51100000000E-03 0.  1.
        -12    1    3    3    0    0  0.10688278725E+01  0.40051729166E+01 -0.15192208687E+01  0.44149558503E+01  0.00000000000E+00 0.  1.
</event>
<event>
 7    1  0.1322363E-009  0.4778727E+02  0.7816164E-02  0.1312668E+00
        -11   -1    0    0    0    0  0.00000000000E+00  0.00000000000E+00  0.45593999997E+02  0.45594000000E+02  0.51100000000E-03 0. -1.
         11   -1    0    0    0    0 -0.00000000000E+00 -0.00000000000E+00 -0.45593999997E+02  0.45594000000E+02  0.51100000000E-03 0.  1.
    9900012    2    1    2    0    0 -0.20302810393E+02 -0.30075755574E+02 -0.23808998498E+02  0.47787267371E+02  0.19999983253E+02 0.  0.
        -12    1    1    2    0    0  0.20302810393E+02  0.30075755574E+02  0.23808998498E+02  0.43400732629E+02  0.00000000000E+00 0.  1.
         11    1    3    3    0    0 -0.16107941963E+02 -0.20489528551E+02 -0.69579087245E+01  0.26975897920E+02  0.51100000000E-03 0. -1.
        -11    1    3    3    0    0 -0.24871737208E+01 -0.15015515956E-01 -0.36295895059E+01  0.44000203211E+01  0.51100000000E-03 0.  1.
         12    1    3    3    0    0 -0.17076947090E+01 -0.95712115073E+01 -0.13221500268E+02  0.16411349130E+02  0.00000000000E+00 0. -1.
</event>
<event>
 7    1  0.1322363E-009  0.4778727E+02  0.7816164E-02  0.1312668E+00
        -11   -1    0    0    0    0  0.00000000000E+00  0.00000000000E+00  0.45593999997E+02  0.45594000000E+02  0.51100000000E-03 0.  1.
         11   -1    0    0    0    0 -0.00000000000E+00 -0.00000000000E+00 -0.45593999997E+02  0.45594000000E+02  0.51100000000E-03 0. -1.
    9900012    2    1    2    0    0  0.47581800839E+01 -0.16650102226E+02 -0.39796446745E+02  0.47787270106E+02  0.19999995721E+02 0.  0.
        -12    1    1    2    0    0 -0.47581800839E+01  0.16650102226E+02  0.39796446745E+02  0.43400729894E+02  0.00000000000E+00 0.  1.
         11    1    3    3    0    0  0.43275814195E+01 -0.75921162260E+01 -0.65398782673E+01  0.10915044560E+02  0.51100000000E-03 0. -1.
        -11    1    3    3    0    0  0.19220984842E+01 -0.11915800028E+02 -0.29770236887E+02  0.32123943679E+02  0.51100000000E-03 0.  1.
        -12    1    3    3    0    0 -0.14914998199E+01  0.28578140285E+01 -0.34863315902E+01  0.47482818673E+01  0.00000000000E+00 0.  1.
</event>
<event>
 7    1  0.1322363E-009  0.4778727E+02  0.7816164E-02  0.1312668E+00
        -11   -1    0    0    0    0  0.00000000000E+00  0.00000000000E+00  0.45593999997E+02  0.45594000000E+02  0.51100000000E-03 0.  1.
         11   -1    0    0    0    0 -0.00000000000E+00 -0.00000000000E+00 -0.45593999997E+02  0.45594000000E+02  0.51100000000E-03 0. -1.
    9900012    2    1    2    0    0 -0.31567752353E+02  0.17099175541E+02 -0.24386846377E+02  0.47787273405E+02  0.20000010763E+02 0.  0.
        -12    1    1    2    0    0  0.31567752353E+02 -0.17099175541E+02  0.24386846377E+02  0.43400726595E+02  0.00000000000E+00 0.  1.
         11    1    3    3    0    0 -0.12436587678E+02  0.84477616176E+01 -0.14082426223E+02  0.20599711600E+02  0.51100000000E-03 0. -1.
        -11    1    3    3    0    0 -0.15157759550E+02  0.98290998920E+01 -0.23494566615E+01  0.18217816174E+02  0.51100000000E-03 0.  1.
         12    1    3    3    0    0 -0.39734051245E+01 -0.11776859690E+01 -0.79549634922E+01  0.89697456311E+01  0.00000000000E+00 0. -1.
</event>
<event>
 7    1  0.1322363E-009  0.4778728E+02  0.7816164E-02  0.1312668E+00
        -11   -1    0    0    0    0  0.00000000000E+00  0.00000000000E+00  0.45593999997E+02  0.45594000000E+02  0.51100000000E-03 0.  1.
         11   -1    0    0    0    0 -0.00000000000E+00 -0.00000000000E+00 -0.45593999997E+02  0.45594000000E+02  0.51100000000E-03 0. -1.
    9900012    2    1    2    0    0 -0.11802850209E+02 -0.35585859091E+01 -0.41613115630E+02  0.47787283426E+02  0.20000056453E+02 0.  0.
        -12    1    1    2    0    0  0.11802850209E+02  0.35585859091E+01  0.41613115630E+02  0.43400716574E+02  0.00000000000E+00 0.  1.
         11    1    3    3    0    0 -0.97706039526E+00 -0.63977515993E+01 -0.59295297572E+01  0.87775392876E+01  0.51100000000E-03 0. -1.
        -11    1    3    3    0    0 -0.43042319367E-01 -0.28799944479E+01 -0.31826224294E+01  0.42924709027E+01  0.51100000000E-03 0.  1.
        -12    1    3    3    0    0 -0.10782747494E+02  0.57191601381E+01 -0.32500963443E+02  0.34717273236E+02  0.00000000000E+00 0.  1.
</event>
<event>
 7    1  0.1322363E-009  0.4778727E+02  0.7816164E-02  0.1312668E+00
        -11   -1    0    0    0    0  0.00000000000E+00  0.00000000000E+00  0.45593999997E+02  0.45594000000E+02  0.51100000000E-03 0. -1.
         11   -1    0    0    0    0 -0.00000000000E+00 -0.00000000000E+00 -0.45593999997E+02  0.45594000000E+02  0.51100000000E-03 0.  1.
    9900012    2    1    2    0    0 -0.11013927083E+02  0.41970662479E+02 -0.88338056270E+00  0.47787268901E+02  0.19999990226E+02 0.  0.
        -12    1    1    2    0    0  0.11013927083E+02 -0.41970662479E+02  0.88338056270E+00  0.43400731099E+02  0.00000000000E+00 0.  1.
         11    1    3    3    0    0  0.31740426130E+00  0.98889939021E+01  0.15103364566E+01  0.10008699333E+02  0.51100000000E-03 0. -1.
        -11    1    3    3    0    0 -0.59706829961E+01  0.99244659150E+00 -0.14128993236E+01  0.62153270579E+01  0.51100000000E-03 0.  1.
         12    1    3    3    0    0 -0.53606483480E+01  0.31089221986E+02 -0.98081769571E+00  0.31563242510E+02  0.00000000000E+00 0. -1.
</event>
<event>
 7    1  0.1322363E-009  0.4778727E+02  0.7816164E-02  0.1312668E+00
        -11   -1    0    0    0    0  0.00000000000E+00  0.00000000000E+00  0.45593999997E+02  0.45594000000E+02  0.51100000000E-03 0.  1.
         11   -1    0    0    0    0 -0.00000000000E+00 -0.00000000000E+00 -0.45593999997E+02  0.45594000000E+02  0.51100000000E-03 0. -1.
    9900012    2    1    2    0    0 -0.17331623463E+02  0.38815528440E+02 -0.87517298148E+01  0.47787271957E+02  0.20000004160E+02 0.  0.
        -12    1    1    2    0    0  0.17331623463E+02 -0.38815528440E+02  0.87517298148E+01  0.43400728043E+02  0.00000000000E+00 0.  1.
         11    1    3    3    0    0 -0.81365982276E+01  0.14443331149E+02 -0.11548302240E+01  0.16617691732E+02  0.51100000000E-03 0.  1.
        -11    1    3    3    0    0 -0.65650419053E+01  0.25154042888E+02 -0.34891188305E+01  0.26229746459E+02  0.51100000000E-03 0. -1.
        -12    1    3    3    0    0 -0.26299833304E+01 -0.78184559733E+00 -0.41077807604E+01  0.49398337655E+01  0.00000000000E+00 0.  1.
</event>
<event>
 7    1  0.1322363E-009  0.4778729E+02  0.7816164E-02  0.1312668E+00
        -11   -1    0    0    0    0  0.00000000000E+00  0.00000000000E+00  0.45593999997E+02  0.45594000000E+02  0.51100000000E-03 0. -1.
         11   -1    0    0    0    0 -0.00000000000E+00 -0.00000000000E+00 -0.45593999997E+02  0.45594000000E+02  0.51100000000E-03 0.  1.
    9900012    2    1    2    0    0  0.13802252176E+02  0.26626076253E+02  0.31371510272E+02  0.47787288502E+02  0.20000079597E+02 0.  0.
        -12    1    1    2    0    0 -0.13802252176E+02 -0.26626076253E+02 -0.31371510272E+02  0.43400711498E+02  0.00000000000E+00 0.  1.
         11    1    3    3    0    0  0.55953973199E+01  0.59164037844E+01 -0.71390039838E+00  0.81744699490E+01  0.51100000000E-03 0. -1.
        -11    1    3    3    0    0 -0.81606694397E+00  0.43991654978E+01  0.78858879057E+01  0.90667442148E+01  0.51100000000E-03 0.  1.
         12    1    3    3    0    0  0.90229218000E+01  0.16310506971E+02  0.24199522765E+02  0.30546074338E+02  0.00000000000E+00 0. -1.
</event>
<event>
 7    1  0.1322363E-009  0.4778727E+02  0.7816164E-02  0.1312668E+00
        -11   -1    0    0    0    0  0.00000000000E+00  0.00000000000E+00  0.45593999997E+02  0.45594000000E+02  0.51100000000E-03 0. -1.
         11   -1    0    0    0    0 -0.00000000000E+00 -0.00000000000E+00 -0.45593999997E+02  0.45594000000E+02  0.51100000000E-03 0.  1.
    9900012    2    1    2    0    0  0.17036641571E+02  0.27782545669E+02  0.28661933014E+02  0.47787269545E+02  0.19999993165E+02 0.  0.
        -12    1    1    2    0    0 -0.17036641571E+02 -0.27782545669E+02 -0.28661933014E+02  0.43400730455E+02  0.00000000000E+00 0.  1.
         11    1    3    3    0    0  0.13940962605E+02  0.18473632357E+02  0.13810872524E+02  0.26951173090E+02  0.51100000000E-03 0. -1.
        -11    1    3    3    0    0 -0.11172124766E+01  0.48298102617E+01  0.21636911675E+00  0.49620607350E+01  0.51100000000E-03 0.  1.
        -12    1    3    3    0    0  0.42128914428E+01  0.44791030505E+01  0.14634691374E+02  0.15874035720E+02  0.00000000000E+00 0.  1.
</event>
<event>
 7    1  0.1322363E-009  0.4778727E+02  0.7816164E-02  0.1312668E+00
        -11   -1    0    0    0    0  0.00000000000E+00  0.00000000000E+00  0.45593999997E+02  0.45594000000E+02  0.51100000000E-03 0.  1.
         11   -1    0    0    0    0 -0.00000000000E+00 -0.00000000000E+00 -0.45593999997E+02  0.45594000000E+02  0.51100000000E-03 0. -1.
    9900012    2    1    2    0    0 -0.13482605879E+02 -0.21560323046E+02 -0.35170940441E+02  0.47787271404E+02  0.20000001641E+02 0.  0.
        -12    1    1    2    0    0  0.13482605879E+02  0.21560323046E+02  0.35170940441E+02  0.43400728596E+02  0.00000000000E+00 0.  1.
         11    1    3    3    0    0 -0.39902768059E+01 -0.12380524634E+02 -0.22251212631E+02  0.25774331475E+02  0.51100000000E-03 0. -1.
        -11    1    3    3    0    0 -0.13623133352E+01 -0.77296826741E+01 -0.16153207802E+01  0.80133110104E+01  0.51100000000E-03 0.  1.
         12    1    3    3    0    0 -0.81300157382E+01 -0.14501157375E+01 -0.11304407030E+02  0.13999628918E+02  0.00000000000E+00 0. -1.
</event>
<event>
 7    1  0.1322363E-009  0.4778729E+02  0.7816164E-02  0.1312668E+00
        -11   -1    0    0    0    0  0.00000000000E+00  0.00000000000E+00  0.45593999997E+02  0.45594000000E+02  0.51100000000E-03 0.  1.
         11   -1    0    0    0    0 -0.00000000000E+00 -0.00000000000E+00 -0.45593999997E+02  0.45594000000E+02  0.51100000000E-03 0. -1.
    9900012    2    1    2    0    0 -0.21784032113E+02  0.23538557044E+02 -0.29240623588E+02  0.47787288132E+02  0.20000077910E+02 0.  0.
        -12    1    1    2    0    0  0.21784032113E+02 -0.23538557044E+02  0.29240623588E+02  0.43400711868E+02  0.00000000000E+00 0.  1.
         11    1    3    3    0    0  0.84643208606E-01 -0.19678156325E+01 -0.27929515326E+00  0.19893388047E+01  0.51100000000E-03 0.  1.
        -11    1    3    3    0    0  0.64955616693E+00  0.28781954672E+01 -0.52849165230E+01  0.60527907016E+01  0.51100000000E-03 0. -1.
         12    1    3    3    0    0 -0.22518231489E+02  0.22628177209E+02 -0.23676411912E+02  0.39745158626E+02  0.00000000000E+00 0. -1.
</event>
<event>
 7    1  0.1835198E-009  0.4778727E+02  0.7816164E-02  0.1312668E+00
        -11   -1    0    0    0    0  0.00000000000E+00  0.00000000000E+00  0.45593999997E+02  0.45594000000E+02  0.51100000000E-03 0.  1.
         11   -1    0    0    0    0 -0.00000000000E+00 -0.00000000000E+00 -0.45593999997E+02  0.45594000000E+02  0.51100000000E-03 0. -1.
    9900012    2    1    2    0    0 -0.43373705047E+02 -0.58248073737E-01  0.15303237156E+01  0.47787267598E+02  0.19999984288E+02 0.  0.
        -12    1    1    2    0    0  0.43373705047E+02  0.58248073737E-01 -0.15303237156E+01  0.43400732402E+02  0.00000000000E+00 0.  1.
         11    1    3    3    0    0 -0.30456822675E+02 -0.44040867965E+01  0.50695699404E-01  0.30773634792E+02  0.51100000000E-03 0. -1.
        -11    1    3    3    0    0 -0.22325286455E+01 -0.14603310654E+01  0.37912887877E+01  0.46357978716E+01  0.51100000000E-03 0.  1.
        -12    1    3    3    0    0 -0.10684353726E+02  0.58061697881E+01 -0.23116607715E+01  0.12377834935E+02  0.00000000000E+00 0.  1.
</event>
<event>
 7    1  0.1322363E-009  0.4778727E+02  0.7816164E-02  0.1312668E+00
        -11   -1    0    0    0    0  0.00000000000E+00  0.00000000000E+00  0.45593999997E+02  0.45594000000E+02  0.51100000000E-03 0. -1.
         11   -1    0    0    0    0 -0.00000000000E+00 -0.00000000000E+00 -0.45593999997E+02  0.45594000000E+02  0.51100000000E-03 0.  1.
    9900012    2    1    2    0    0 -0.40529281416E+02 -0.15345724538E+02  0.23471842826E+01  0.47787272037E+02  0.20000004526E+02 0.  0.
        -12    1    1    2    0    0  0.40529281416E+02  0.15345724538E+02 -0.23471842826E+01  0.43400727963E+02  0.00000000000E+00 0.  1.
         11    1    3    3    0    0 -0.42305903374E+01  0.42358914120E+01 -0.12184210431E+01  0.61094370245E+01  0.51100000000E-03 0. -1.
        -11    1    3    3    0    0 -0.83612261949E+01 -0.56313982099E+01  0.27127415184E+01  0.10439430832E+02  0.51100000000E-03 0.  1.
        -12    1    3    3    0    0 -0.27937464883E+02 -0.13950217740E+02  0.85286380737E+00  0.31238404181E+02  0.00000000000E+00 0.  1.
</event>
<event>
 7    1  0.1322363E-009  0.4778727E+02  0.7816164E-02  0.1312668E+00
        -11   -1    0    0    0    0  0.00000000000E+00  0.00000000000E+00  0.45593999997E+02  0.45594000000E+02  0.51100000000E-03 0. -1.
         11   -1    0    0    0    0 -0.00000000000E+00 -0.00000000000E+00 -0.45593999997E+02  0.45594000000E+02  0.51100000000E-03 0.  1.
    9900012    2    1    2    0    0  0.47453414203E+01 -0.34034257972E+02  0.26509899660E+02  0.47787265434E+02  0.19999974418E+02 0.  0.
        -12    1    1    2    0    0 -0.47453414203E+01  0.34034257972E+02 -0.26509899660E+02  0.43400734566E+02  0.00000000000E+00 0.  1.
         11    1    3    3    0    0 -0.36624358061E+01 -0.18765503088E+02  0.21612524377E+02  0.28855827009E+02  0.51100000000E-03 0. -1.
        -11    1    3    3    0    0  0.54930221970E+01 -0.88058844827E+01  0.56240905720E+01  0.11804545286E+02  0.51100000000E-03 0.  1.
        -12    1    3    3    0    0  0.29147550294E+01 -0.64628704008E+01 -0.72671528844E+00  0.71268931386E+01  0.00000000000E+00 0.  1.
</event>
<event>
 7    1  0.1322363E-009  0.4778730E+02  0.7816164E-02  0.1312668E+00
        -11   -1    0    0    0    0  0.00000000000E+00  0.00000000000E+00  0.45593999997E+02  0.45594000000E+02  0.51100000000E-03 0. -1.
         11   -1    0    0    0    0 -0.00000000000E+00 -0.00000000000E+00 -0.45593999997E+02  0.45594000000E+02  0.51100000000E-03 0.  1.
    9900012    2    1    2    0    0 -0.40748107898E+02  0.14229424193E+02  0.45537135522E+01  0.47787295890E+02  0.20000113279E+02 0.  0.
        -12    1    1    2    0    0  0.40748107898E+02 -0.14229424193E+02 -0.45537135522E+01  0.43400704110E+02  0.00000000000E+00 0.  1.
         11    1    3    3    0    0 -0.15564377382E+02  0.27197335855E+01  0.12960488007E+01  0.15853281579E+02  0.51100000000E-03 0. -1.
        -11    1    3    3    0    0 -0.12067308955E+02  0.26950062002E+01 -0.58668194663E+01  0.13685853088E+02  0.51100000000E-03 0.  1.
        -12    1    3    3    0    0 -0.13116421562E+02  0.88146844076E+01  0.91244842179E+01  0.18248161223E+02  0.00000000000E+00 0.  1.
</event>
<event>
 7    1  0.1322363E-009  0.4778726E+02  0.7816164E-02  0.1312668E+00
        -11   -1    0    0    0    0  0.00000000000E+00  0.00000000000E+00  0.45593999997E+02  0.45594000000E+02  0.51100000000E-03 0. -1.
         11   -1    0    0    0    0 -0.00000000000E+00 -0.00000000000E+00 -0.45593999997E+02  0.45594000000E+02  0.51100000000E-03 0.  1.
    9900012    2    1    2    0    0 -0.10699400431E+02  0.20003934932E+02  0.36999863159E+02  0.47787257424E+02  0.19999937898E+02 0.  0.
        -12    1    1    2    0    0  0.10699400431E+02 -0.20003934932E+02 -0.36999863159E+02  0.43400742576E+02  0.00000000000E+00 0.  1.
         11    1    3    3    0    0 -0.73269864366E+01  0.85824351562E+01  0.86624914517E+01  0.14226091588E+02  0.51100000000E-03 0. -1.
        -11    1    3    3    0    0 -0.29541053768E+01  0.50356733487E+01  0.26156678258E+02  0.26800308998E+02  0.51100000000E-03 0.  1.
        -12    1    3    3    0    0 -0.41830861793E+00  0.63858264277E+01  0.21806934496E+01  0.67608568381E+01  0.00000000000E+00 0.  1.
</event>
<event>
 7    1  0.1322363E-009  0.4778727E+02  0.7816164E-02  0.1312668E+00
        -11   -1    0    0    0    0  0.00000000000E+00  0.00000000000E+00  0.45593999997E+02  0.45594000000E+02  0.51100000000E-03 0. -1.
         11   -1    0    0    0    0 -0.00000000000E+00 -0.00000000000E+00 -0.45593999997E+02  0.45594000000E+02  0.51100000000E-03 0.  1.
    9900012    2    1    2    0    0 -0.21582113400E+02  0.28648763253E+02 -0.24435302553E+02  0.47787271140E+02  0.20000000437E+02 0.  0.
        -12    1    1    2    0    0  0.21582113400E+02 -0.28648763253E+02  0.24435302553E+02  0.43400728860E+02  0.00000000000E+00 0.  1.
         11    1    3    3    0    0  0.18360869931E+01  0.27838906887E+01  0.40210038456E+00  0.33590099425E+01  0.51100000000E-03 0. -1.
        -11    1    3    3    0    0 -0.73959144225E+01  0.53028191355E+01 -0.12826012570E+02  0.15726602927E+02  0.51100000000E-03 0.  1.
         12    1    3    3    0    0 -0.16022285971E+02  0.20562053428E+02 -0.12011390367E+02  0.28701658271E+02  0.00000000000E+00 0. -1.
</event>
<event>
 7    1  0.1322363E-009  0.4778721E+02  0.7816164E-02  0.1312668E+00
        -11   -1    0    0    0    0  0.00000000000E+00  0.00000000000E+00  0.45593999997E+02  0.45594000000E+02  0.51100000000E-03 0.  1.
         11   -1    0    0    0    0 -0.00000000000E+00 -0.00000000000E+00 -0.45593999997E+02  0.45594000000E+02  0.51100000000E-03 0. -1.
    9900012    2    1    2    0    0 -0.32863687351E+02 -0.87937808692E+01  0.26949516461E+02  0.47787205471E+02  0.19999701021E+02 0.  0.
        -12    1    1    2    0    0  0.32863687351E+02  0.87937808692E+01 -0.26949516461E+02  0.43400794529E+02  0.00000000000E+00 0.  1.
         11    1    3    3    0    0 -0.63565908709E+01  0.41114651405E+01  0.32558605768E+01  0.82408143687E+01  0.51100000000E-03 0. -1.
        -11    1    3    3    0    0 -0.64304655175E+01  0.11107134626E+01  0.85532296603E+01  0.10758359961E+02  0.51100000000E-03 0.  1.
         12    1    3    3    0    0 -0.20076630963E+02 -0.14015959472E+02  0.15140426224E+02  0.28788031141E+02  0.00000000000E+00 0. -1.
</event>
<event>
 7    1  0.1322363E-009  0.4778727E+02  0.7816164E-02  0.1312668E+00
        -11   -1    0    0    0    0  0.00000000000E+00  0.00000000000E+00  0.45593999997E+02  0.45594000000E+02  0.51100000000E-03 0.  1.
         11   -1    0    0    0    0 -0.00000000000E+00 -0.00000000000E+00 -0.45593999997E+02  0.45594000000E+02  0.51100000000E-03 0. -1.
    9900012    2    1    2    0    0 -0.21783851849E+02  0.12409783692E+02 -0.35427171418E+02  0.47787269507E+02  0.19999992989E+02 0.  0.
        -12    1    1    2    0    0  0.21783851849E+02 -0.12409783692E+02  0.35427171418E+02  0.43400730493E+02  0.00000000000E+00 0.  1.
         11    1    3    3    0    0 -0.14715718247E+02  0.67557720933E+01 -0.18334874481E+02  0.24461407208E+02  0.51100000000E-03 0. -1.
        -11    1    3    3    0    0 -0.74236170746E+01  0.93516846737E+01 -0.14561995215E+02  0.18831245355E+02  0.51100000000E-03 0.  1.
        -12    1    3    3    0    0  0.35548347253E+00 -0.36976730749E+01 -0.25303017221E+01  0.44946169439E+01  0.00000000000E+00 0.  1.
</event>
<event>
 7    1  0.1322363E-009  0.4778727E+02  0.7816164E-02  0.1312668E+00
        -11   -1    0    0    0    0  0.00000000000E+00  0.00000000000E+00  0.45593999997E+02  0.45594000000E+02  0.51100000000E-03 0. -1.
         11   -1    0    0    0    0 -0.00000000000E+00 -0.00000000000E+00 -0.45593999997E+02  0.45594000000E+02  0.51100000000E-03 0.  1.
    9900012    2    1    2    0    0 -0.32260933131E+02  0.27437048060E+02  0.94901908441E+01  0.47787272644E+02  0.20000007293E+02 0.  0.
        -12    1    1    2    0    0  0.32260933131E+02 -0.27437048060E+02 -0.94901908441E+01  0.43400727356E+02  0.00000000000E+00 0.  1.
         11    1    3    3    0    0 -0.34281515232E+01  0.63344288068E+01 -0.14628931593E+01  0.73496440615E+01  0.51100000000E-03 0. -1.
        -11    1    3    3    0    0 -0.45099309309E+01  0.40419764205E+01 -0.39188860535E+01  0.72135094473E+01  0.51100000000E-03 0.  1.
         12    1    3    3    0    0 -0.24322850677E+02  0.17060642833E+02  0.14871970057E+02  0.33224119135E+02  0.00000000000E+00 0. -1.
</event>
<event>
 7    1  0.1322363E-009  0.4778726E+02  0.7816164E-02  0.1312668E+00
        -11   -1    0    0    0    0  0.00000000000E+00  0.00000000000E+00  0.45593999997E+02  0.45594000000E+02  0.51100000000E-03 0. -1.
         11   -1    0    0    0    0 -0.00000000000E+00 -0.00000000000E+00 -0.45593999997E+02  0.45594000000E+02  0.51100000000E-03 0.  1.
    9900012    2    1    2    0    0 -0.71491808356E+01  0.32688080656E+02  0.27640608387E+02  0.47787255356E+02  0.19999928470E+02 0.  0.
        -12    1    1    2    0    0  0.71491808356E+01 -0.32688080656E+02 -0.27640608387E+02  0.43400744644E+02  0.00000000000E+00 0.  1.
         11    1    3    3    0    0  0.38401954229E+01  0.68767098532E+01  0.40334274693E+01  0.88489986271E+01  0.51100000000E-03 0. -1.
        -11    1    3    3    0    0 -0.45503401029E+01  0.29304427231E+01  0.10454140165E+02  0.11772091422E+02  0.51100000000E-03 0.  1.
         12    1    3    3    0    0 -0.64390361557E+01  0.22880928080E+02  0.13153040753E+02  0.27166165307E+02  0.00000000000E+00 0. -1.
</event>
<event>
 7    1  0.1322363E-009  0.4778727E+02  0.7816164E-02  0.1312668E+00
        -11   -1    0    0    0    0  0.00000000000E+00  0.00000000000E+00  0.45593999997E+02  0.45594000000E+02  0.51100000000E-03 0.  1.
         11   -1    0    0    0    0 -0.00000000000E+00 -0.00000000000E+00 -0.45593999997E+02  0.45594000000E+02  0.51100000000E-03 0. -1.
    9900012    2    1    2    0    0  0.30451800340E+02 -0.83905453340E+01 -0.29764244603E+02  0.47787266691E+02  0.19999980153E+02 0.  0.
        -12    1    1    2    0    0 -0.30451800340E+02  0.83905453340E+01  0.29764244603E+02  0.43400733309E+02  0.00000000000E+00 0.  1.
         11    1    3    3    0    0  0.33208100659E+02 -0.69854608945E+01 -0.26293732669E+02  0.42929418715E+02  0.51100000000E-03 0. -1.
        -11    1    3    3    0    0 -0.66849667746E+00 -0.33117030709E+00 -0.18783799990E+01  0.20211069397E+01  0.51100000000E-03 0.  1.
         12    1    3    3    0    0 -0.20878036418E+01 -0.10739141324E+01 -0.15921319350E+01  0.28367410366E+01  0.00000000000E+00 0. -1.
</event>
<event>
 7    1  0.1322363E-009  0.4778726E+02  0.7816164E-02  0.1312668E+00
        -11   -1    0    0    0    0  0.00000000000E+00  0.00000000000E+00  0.45593999997E+02  0.45594000000E+02  0.51100000000E-03 0.  1.
         11   -1    0    0    0    0 -0.00000000000E+00 -0.00000000000E+00 -0.45593999997E+02  0.45594000000E+02  0.51100000000E-03 0. -1.
    9900012    2    1    2    0    0  0.17117382570E+00  0.21054335813E+02 -0.37951409052E+02  0.47787264914E+02  0.19999972049E+02 0.  0.
        -12    1    1    2    0    0 -0.17117382570E+00 -0.21054335813E+02  0.37951409052E+02  0.43400735086E+02  0.00000000000E+00 0.  1.
         11    1    3    3    0    0  0.70469855669E+01  0.16783928650E+02 -0.26450634540E+02  0.32109131635E+02  0.51100000000E-03 0. -1.
        -11    1    3    3    0    0 -0.43020139153E+01  0.61185383239E+01 -0.78124059938E+01  0.10815614759E+02  0.51100000000E-03 0.  1.
         12    1    3    3    0    0 -0.25737978259E+01 -0.18481311605E+01 -0.36883685175E+01  0.48625185199E+01  0.00000000000E+00 0. -1.
</event>
<event>
 7    1  0.1322363E-009  0.4778727E+02  0.7816164E-02  0.1312668E+00
        -11   -1    0    0    0    0  0.00000000000E+00  0.00000000000E+00  0.45593999997E+02  0.45594000000E+02  0.51100000000E-03 0.  1.
         11   -1    0    0    0    0 -0.00000000000E+00 -0.00000000000E+00 -0.45593999997E+02  0.45594000000E+02  0.51100000000E-03 0. -1.
    9900012    2    1    2    0    0 -0.10056383557E+02 -0.24699273320E+02 -0.34240885670E+02  0.47787271847E+02  0.20000003658E+02 0.  0.
        -12    1    1    2    0    0  0.10056383557E+02  0.24699273320E+02  0.34240885670E+02  0.43400728153E+02  0.00000000000E+00 0.  1.
         11    1    3    3    0    0  0.84295901856E+00 -0.36335450528E+00 -0.11439294741E+01  0.14666905967E+01  0.51100000000E-03 0.  1.
        -11    1    3    3    0    0  0.28329668810E+01  0.12891015675E+01 -0.17644483930E+01  0.35778153380E+01  0.51100000000E-03 0. -1.
        -12    1    3    3    0    0 -0.13732309457E+02 -0.25625020382E+02 -0.31332507803E+02  0.42742765912E+02  0.00000000000E+00 0.  1.
</event>
<event>
 7    1  0.1322363E-009  0.4778727E+02  0.7816164E-02  0.1312668E+00
        -11   -1    0    0    0    0  0.00000000000E+00  0.00000000000E+00  0.45593999997E+02  0.45594000000E+02  0.51100000000E-03 0.  1.
         11   -1    0    0    0    0 -0.00000000000E+00 -0.00000000000E+00 -0.45593999997E+02  0.45594000000E+02  0.51100000000E-03 0. -1.
    9900012    2    1    2    0    0 -0.76901956890E+01 -0.24247557998E+02 -0.35164468205E+02  0.47787274168E+02  0.20000014242E+02 0.  0.
        -12    1    1    2    0    0  0.76901956890E+01  0.24247557998E+02  0.35164468205E+02  0.43400725832E+02  0.00000000000E+00 0.  1.
         11    1    3    3    0    0 -0.70910023010E+01 -0.89077938142E+01 -0.17341908273E+02  0.20745430511E+02  0.51100000000E-03 0. -1.
        -11    1    3    3    0    0  0.61465060506E+01 -0.63667134609E+01 -0.10032673447E+02  0.13377933835E+02  0.51100000000E-03 0.  1.
         12    1    3    3    0    0 -0.67456994386E+01 -0.89730507226E+01 -0.77898864846E+01  0.13663909822E+02  0.00000000000E+00 0. -1.
</event>
<event>
 7    1  0.1322363E-009  0.4778726E+02  0.7816164E-02  0.1312668E+00
        -11   -1    0    0    0    0  0.00000000000E+00  0.00000000000E+00  0.45593999997E+02  0.45594000000E+02  0.51100000000E-03 0.  1.
         11   -1    0    0    0    0 -0.00000000000E+00 -0.00000000000E+00 -0.45593999997E+02  0.45594000000E+02  0.51100000000E-03 0. -1.
    9900012    2    1    2    0    0 -0.31431992029E+02  0.29537007659E+02 -0.48186557099E+01  0.47787258218E+02  0.19999941519E+02 0.  0.
        -12    1    1    2    0    0  0.31431992029E+02 -0.29537007659E+02  0.48186557099E+01  0.43400741782E+02  0.00000000000E+00 0.  1.
         11    1    3    3    0    0 -0.46712655257E+01  0.55709879487E+01 -0.18032040041E+01  0.74905389178E+01  0.51100000000E-03 0. -1.
        -11    1    3    3    0    0 -0.24880882375E+02  0.21729868013E+02 -0.84757890054E+01  0.34104024266E+02  0.51100000000E-03 0.  1.
        -12    1    3    3    0    0 -0.18798441283E+01  0.22361516977E+01  0.54603372996E+01  0.61926950343E+01  0.00000000000E+00 0.  1.
</event>
<event>
 7    1  0.1322363E-009  0.4778727E+02  0.7816164E-02  0.1312668E+00
        -11   -1    0    0    0    0  0.00000000000E+00  0.00000000000E+00  0.45593999997E+02  0.45594000000E+02  0.51100000000E-03 0.  1.
         11   -1    0    0    0    0 -0.00000000000E+00 -0.00000000000E+00 -0.45593999997E+02  0.45594000000E+02  0.51100000000E-03 0. -1.
    9900012    2    1    2    0    0  0.14228136161E+02  0.85473442985E+00 -0.40993327326E+02  0.47787270573E+02  0.19999997850E+02 0.  0.
        -12    1    1    2    0    0 -0.14228136161E+02 -0.85473442985E+00  0.40993327326E+02  0.43400729427E+02  0.00000000000E+00 0.  1.
         11    1    3    3    0    0 -0.18517714903E+01  0.24274217113E+01 -0.10543557008E+02  0.10976703898E+02  0.51100000000E-03 0. -1.
        -11    1    3    3    0    0  0.55310010875E+01  0.49805332026E+01 -0.16695358859E+02  0.18279296806E+02  0.51100000000E-03 0.  1.
        -12    1    3    3    0    0  0.10548906564E+02 -0.65532204841E+01 -0.13754411458E+02  0.18531269869E+02  0.00000000000E+00 0.  1.
</event>
<event>
 7    1  0.1322363E-009  0.4778725E+02  0.7816164E-02  0.1312668E+00
        -11   -1    0    0    0    0  0.00000000000E+00  0.00000000000E+00  0.45593999997E+02  0.45594000000E+02  0.51100000000E-03 0. -1.
         11   -1    0    0    0    0 -0.00000000000E+00 -0.00000000000E+00 -0.45593999997E+02  0.45594000000E+02  0.51100000000E-03 0.  1.
    9900012    2    1    2    0    0  0.11463595792E+02 -0.36332481133E+02  0.20788508688E+02  0.47787247620E+02  0.19999893197E+02 0.  0.
        -12    1    1    2    0    0 -0.11463595792E+02  0.36332481133E+02 -0.20788508688E+02  0.43400752380E+02  0.00000000000E+00 0.  1.
         11    1    3    3    0    0  0.50560628531E+01 -0.25554254663E+02  0.21728312629E+02  0.33922017525E+02  0.51100000000E-03 0. -1.
        -11    1    3    3    0    0 -0.82063800652E+00 -0.23145430755E+01 -0.11974028920E+01  0.27320926655E+01  0.51100000000E-03 0.  1.
         12    1    3    3    0    0  0.72281709456E+01 -0.84636833935E+01  0.25759895070E+00  0.11133137429E+02  0.00000000000E+00 0. -1.
</event>
<event>
 7    1  0.1322363E-009  0.4778727E+02  0.7816164E-02  0.1312668E+00
        -11   -1    0    0    0    0  0.00000000000E+00  0.00000000000E+00  0.45593999997E+02  0.45594000000E+02  0.51100000000E-03 0. -1.
         11   -1    0    0    0    0 -0.00000000000E+00 -0.00000000000E+00 -0.45593999997E+02  0.45594000000E+02  0.51100000000E-03 0.  1.
    9900012    2    1    2    0    0 -0.38877225647E+02  0.29479082973E+01  0.19065534005E+02  0.47787269313E+02  0.19999992104E+02 0.  0.
        -12    1    1    2    0    0  0.38877225647E+02 -0.29479082973E+01 -0.19065534005E+02  0.43400730687E+02  0.00000000000E+00 0.  1.
         11    1    3    3    0    0 -0.16894030621E+02  0.37627192603E+01  0.77605306658E+01  0.18968188193E+02  0.51100000000E-03 0. -1.
        -11    1    3    3    0    0 -0.18751838050E+02  0.53699424763E+01  0.88787537524E+01  0.21431285097E+02  0.51100000000E-03 0.  1.
        -12    1    3    3    0    0 -0.32313569751E+01 -0.61847534394E+01  0.24262495868E+01  0.73877960221E+01  0.00000000000E+00 0.  1.
</event>
<event>
 7    1  0.1322363E-009  0.4778726E+02  0.7816164E-02  0.1312668E+00
        -11   -1    0    0    0    0  0.00000000000E+00  0.00000000000E+00  0.45593999997E+02  0.45594000000E+02  0.51100000000E-03 0. -1.
         11   -1    0    0    0    0 -0.00000000000E+00 -0.00000000000E+00 -0.45593999997E+02  0.45594000000E+02  0.51100000000E-03 0.  1.
    9900012    2    1    2    0    0 -0.24773893563E+02  0.35095366611E+02  0.61801296961E+01  0.47787256195E+02  0.19999932294E+02 0.  0.
        -12    1    1    2    0    0  0.24773893563E+02 -0.35095366611E+02 -0.61801296961E+01  0.43400743805E+02  0.00000000000E+00 0.  1.
         11    1    3    3    0    0  0.63622169386E+00  0.10091059145E+01  0.15526766733E+01  0.19580290864E+01  0.51100000000E-03 0.  1.
        -11    1    3    3    0    0 -0.87740369150E+01  0.15500388831E+02  0.98368811218E+01  0.20347235885E+02  0.51100000000E-03 0. -1.
         12    1    3    3    0    0 -0.16636078342E+02  0.18585871865E+02 -0.52094280990E+01  0.25481991223E+02  0.00000000000E+00 0. -1.
</event>
<event>
 7    1  0.1322363E-009  0.4778727E+02  0.7816164E-02  0.1312668E+00
        -11   -1    0    0    0    0  0.00000000000E+00  0.00000000000E+00  0.45593999997E+02  0.45594000000E+02  0.51100000000E-03 0.  1.
         11   -1    0    0    0    0 -0.00000000000E+00 -0.00000000000E+00 -0.45593999997E+02  0.45594000000E+02  0.51100000000E-03 0. -1.
    9900012    2    1    2    0    0  0.36820607838E+02 -0.17326391383E+02 -0.15088473787E+02  0.47787273726E+02  0.20000012226E+02 0.  0.
        -12    1    1    2    0    0 -0.36820607838E+02  0.17326391383E+02  0.15088473787E+02  0.43400726274E+02  0.00000000000E+00 0.  1.
         11    1    3    3    0    0  0.27787567204E+02 -0.19041399611E+02 -0.14101387540E+02  0.36518117710E+02  0.51100000000E-03 0. -1.
        -11    1    3    3    0    0  0.90411094544E+01 -0.39570234930E+00 -0.31961250887E+00  0.90554068342E+01  0.51100000000E-03 0.  1.
         12    1    3    3    0    0 -0.80688205179E-02  0.21107105777E+01 -0.66747373813E+00  0.22137491818E+01  0.00000000000E+00 0. -1.
</event>
<event>
 7    1  0.1322363E-009  0.4778727E+02  0.7816164E-02  0.1312668E+00
        -11   -1    0    0    0    0  0.00000000000E+00  0.00000000000E+00  0.45593999997E+02  0.45594000000E+02  0.51100000000E-03 0.  1.
         11   -1    0    0    0    0 -0.00000000000E+00 -0.00000000000E+00 -0.45593999997E+02  0.45594000000E+02  0.51100000000E-03 0. -1.
    9900012    2    1    2    0    0  0.22067239319E+02 -0.20587577368E+02 -0.31189932187E+02  0.47787271171E+02  0.20000000578E+02 0.  0.
        -12    1    1    2    0    0 -0.22067239319E+02  0.20587577368E+02  0.31189932187E+02  0.43400728829E+02  0.00000000000E+00 0.  1.
         11    1    3    3    0    0  0.47255952100E+01 -0.10432597440E+02 -0.99421641571E+01  0.15166310290E+02  0.51100000000E-03 0. -1.
        -11    1    3    3    0    0  0.19006997456E+02 -0.86767184386E+01 -0.14283840465E+02  0.25309671943E+02  0.51100000000E-03 0.  1.
        -12    1    3    3    0    0 -0.16653533474E+01 -0.14782614892E+01 -0.69639275656E+01  0.73112889384E+01  0.00000000000E+00 0.  1.
</event>
<event>
 7    1  0.1322363E-009  0.4778727E+02  0.7816164E-02  0.1312668E+00
        -11   -1    0    0    0    0  0.00000000000E+00  0.00000000000E+00  0.45593999997E+02  0.45594000000E+02  0.51100000000E-03 0.  1.
         11   -1    0    0    0    0 -0.00000000000E+00 -0.00000000000E+00 -0.45593999997E+02  0.45594000000E+02  0.51100000000E-03 0. -1.
    9900012    2    1    2    0    0  0.25403722711E+02  0.19016921351E+02 -0.29607957009E+02  0.47787267938E+02  0.19999985838E+02 0.  0.
        -12    1    1    2    0    0 -0.25403722711E+02 -0.19016921351E+02  0.29607957009E+02  0.43400732062E+02  0.00000000000E+00 0.  1.
         11    1    3    3    0    0  0.89364019499E+01  0.60796999333E+01 -0.16640194684E+02  0.19842331277E+02  0.51100000000E-03 0. -1.
        -11    1    3    3    0    0  0.13325038334E+02  0.36480742880E+01 -0.11608377430E+02  0.18044930574E+02  0.51100000000E-03 0.  1.
        -12    1    3    3    0    0  0.31422824272E+01  0.92891471293E+01 -0.13593848951E+01  0.99000060877E+01  0.00000000000E+00 0.  1.
</event>
<event>
 7    1  0.1322363E-009  0.4778727E+02  0.7816164E-02  0.1312668E+00
        -11   -1    0    0    0    0  0.00000000000E+00  0.00000000000E+00  0.45593999997E+02  0.45594000000E+02  0.51100000000E-03 0.  1.
         11   -1    0    0    0    0 -0.00000000000E+00 -0.00000000000E+00 -0.45593999997E+02  0.45594000000E+02  0.51100000000E-03 0. -1.
    9900012    2    1    2    0    0  0.86903087957E+01 -0.40739993520E+02 -0.12180092431E+02  0.47787272004E+02  0.20000004374E+02 0.  0.
        -12    1    1    2    0    0 -0.86903087957E+01  0.40739993520E+02  0.12180092431E+02  0.43400727996E+02  0.00000000000E+00 0.  1.
         11    1    3    3    0    0 -0.72722943680E-01 -0.33891717595E+02 -0.71643780885E+01  0.34640758130E+02  0.51100000000E-03 0. -1.
        -11    1    3    3    0    0  0.63802782114E+01 -0.42012011824E+01 -0.88178255510E+00  0.76899663306E+01  0.51100000000E-03 0.  1.
        -12    1    3    3    0    0  0.23827535280E+01 -0.26470747425E+01 -0.41339317877E+01  0.54565475434E+01  0.00000000000E+00 0.  1.
</event>
<event>
 7    1  0.1322363E-009  0.4778727E+02  0.7816164E-02  0.1312668E+00
        -11   -1    0    0    0    0  0.00000000000E+00  0.00000000000E+00  0.45593999997E+02  0.45594000000E+02  0.51100000000E-03 0.  1.
         11   -1    0    0    0    0 -0.00000000000E+00 -0.00000000000E+00 -0.45593999997E+02  0.45594000000E+02  0.51100000000E-03 0. -1.
    9900012    2    1    2    0    0  0.28493164253E+02 -0.65468766445E+01 -0.32076487279E+02  0.47787273749E+02  0.20000012332E+02 0.  0.
        -12    1    1    2    0    0 -0.28493164253E+02  0.65468766445E+01  0.32076487279E+02  0.43400726251E+02  0.00000000000E+00 0.  1.
         11    1    3    3    0    0  0.18286803399E+02 -0.80442390154E+01 -0.27670483675E+02  0.34128765389E+02  0.51100000000E-03 0. -1.
        -11    1    3    3    0    0  0.98068177479E+01 -0.14782811487E+01 -0.31728456964E+01  0.10412777707E+02  0.51100000000E-03 0.  1.
        -12    1    3    3    0    0  0.39954310543E+00  0.29756435196E+01 -0.12331579078E+01  0.32457306535E+01  0.00000000000E+00 0.  1.
</event>
<event>
 7    1  0.1322363E-009  0.4778727E+02  0.7816164E-02  0.1312668E+00
        -11   -1    0    0    0    0  0.00000000000E+00  0.00000000000E+00  0.45593999997E+02  0.45594000000E+02  0.51100000000E-03 0.  1.
         11   -1    0    0    0    0 -0.00000000000E+00 -0.00000000000E+00 -0.45593999997E+02  0.45594000000E+02  0.51100000000E-03 0. -1.
    9900012    2    1    2    0    0  0.35767662391E+02  0.24573630784E+02 -0.65901454155E+00  0.47787270709E+02  0.19999998471E+02 0.  0.
        -12    1    1    2    0    0 -0.35767662391E+02 -0.24573630784E+02  0.65901454155E+00  0.43400729291E+02  0.00000000000E+00 0.  1.
         11    1    3    3    0    0  0.50900409074E+01  0.63605506729E+01 -0.48824333133E+01  0.94975405565E+01  0.51100000000E-03 0. -1.
        -11    1    3    3    0    0  0.25957284843E+01  0.74801970354E+01 -0.93379250382E-01  0.79183252016E+01  0.51100000000E-03 0.  1.
         12    1    3    3    0    0  0.28081892999E+02  0.10732883076E+02  0.43167980221E+01  0.30371404951E+02  0.00000000000E+00 0. -1.
</event>
<event>
 7    1  0.1322363E-009  0.4778727E+02  0.7816164E-02  0.1312668E+00
        -11   -1    0    0    0    0  0.00000000000E+00  0.00000000000E+00  0.45593999997E+02  0.45594000000E+02  0.51100000000E-03 0.  1.
         11   -1    0    0    0    0 -0.00000000000E+00 -0.00000000000E+00 -0.45593999997E+02  0.45594000000E+02  0.51100000000E-03 0. -1.
    9900012    2    1    2    0    0  0.21705080755E+02 -0.82415789545E+01 -0.36668638307E+02  0.47787272016E+02  0.20000004430E+02 0.  0.
        -12    1    1    2    0    0 -0.21705080755E+02  0.82415789545E+01  0.36668638307E+02  0.43400727984E+02  0.00000000000E+00 0.  1.
         11    1    3    3    0    0  0.21047551664E+02 -0.63307349029E+01 -0.33786041400E+02  0.40306007358E+02  0.51100000000E-03 0. -1.
        -11    1    3    3    0    0  0.11547947467E+01  0.23471564046E+01 -0.10363118369E+01  0.28136518226E+01  0.51100000000E-03 0.  1.
         12    1    3    3    0    0 -0.49726565553E+00 -0.42580004562E+01 -0.18462850703E+01  0.46676128350E+01  0.00000000000E+00 0. -1.
</event>
<event>
 7    1  0.1322363E-009  0.4778728E+02  0.7816164E-02  0.1312668E+00
        -11   -1    0    0    0    0  0.00000000000E+00  0.00000000000E+00  0.45593999997E+02  0.45594000000E+02  0.51100000000E-03 0.  1.
         11   -1    0    0    0    0 -0.00000000000E+00 -0.00000000000E+00 -0.45593999997E+02  0.45594000000E+02  0.51100000000E-03 0. -1.
    9900012    2    1    2    0    0  0.19607049780E+02 -0.38621524047E+02 -0.27503243835E+01  0.47787276446E+02  0.20000024630E+02 0.  0.
        -12    1    1    2    0    0 -0.19607049780E+02  0.38621524047E+02  0.27503243835E+01  0.43400723554E+02  0.00000000000E+00 0.  1.
         11    1    3    3    0    0  0.64811625045E+01 -0.17077389266E+02  0.35110056027E+01  0.18600264841E+02  0.51100000000E-03 0. -1.
        -11    1    3    3    0    0 -0.87807513398E+00 -0.88703908528E+01 -0.50869039184E+01  0.10263110715E+02  0.51100000000E-03 0.  1.
         12    1    3    3    0    0  0.14003962409E+02 -0.12673743928E+02 -0.11744260678E+01  0.18923900890E+02  0.00000000000E+00 0. -1.
</event>
<event>
 7    1  0.1322363E-009  0.4778728E+02  0.7816164E-02  0.1312668E+00
        -11   -1    0    0    0    0  0.00000000000E+00  0.00000000000E+00  0.45593999997E+02  0.45594000000E+02  0.51100000000E-03 0. -1.
         11   -1    0    0    0    0 -0.00000000000E+00 -0.00000000000E+00 -0.45593999997E+02  0.45594000000E+02  0.51100000000E-03 0.  1.
    9900012    2    1    2    0    0  0.27661238931E+02  0.33436715858E+02  0.68168353360E+00  0.47787276515E+02  0.20000024943E+02 0.  0.
        -12    1    1    2    0    0 -0.27661238931E+02 -0.33436715858E+02 -0.68168353360E+00  0.43400723485E+02  0.00000000000E+00 0.  1.
         11    1    3    3    0    0  0.57307387745E+01  0.11680693050E+02 -0.51608632281E+00  0.13020994677E+02  0.51100000000E-03 0.  1.
        -11    1    3    3    0    0  0.11282087420E+02  0.18318526726E+01  0.37549720708E+01  0.12030835228E+02  0.51100000000E-03 0. -1.
         12    1    3    3    0    0  0.10648412736E+02  0.19924170136E+02 -0.25572022144E+01  0.22735446610E+02  0.00000000000E+00 0. -1.
</event>
<event>
 7    1  0.1322363E-009  0.4778727E+02  0.7816164E-02  0.1312668E+00
        -11   -1    0    0    0    0  0.00000000000E+00  0.00000000000E+00  0.45593999997E+02  0.45594000000E+02  0.51100000000E-03 0.  1.
         11   -1    0    0    0    0 -0.00000000000E+00 -0.00000000000E+00 -0.45593999997E+02  0.45594000000E+02  0.51100000000E-03 0. -1.
    9900012    2    1    2    0    0  0.15159906544E+02  0.29971397794E+02 -0.27486647272E+02  0.47787271545E+02  0.20000002284E+02 0.  0.
        -12    1    1    2    0    0 -0.15159906544E+02 -0.29971397794E+02  0.27486647272E+02  0.43400728455E+02  0.00000000000E+00 0.  1.
         11    1    3    3    0    0  0.74165389846E+01  0.10399338973E+02 -0.25500151108E+01  0.13025124909E+02  0.51100000000E-03 0. -1.
        -11    1    3    3    0    0  0.77785873982E+01  0.20081673531E+02 -0.18749243378E+02  0.28553706611E+02  0.51100000000E-03 0.  1.
         12    1    3    3    0    0 -0.35219838511E-01 -0.50961470991E+00 -0.61873887830E+01  0.62084400248E+01  0.00000000000E+00 0. -1.
</event>
<event>
 7    1  0.1322363E-009  0.4778724E+02  0.7816164E-02  0.1312668E+00
        -11   -1    0    0    0    0  0.00000000000E+00  0.00000000000E+00  0.45593999997E+02  0.45594000000E+02  0.51100000000E-03 0.  1.
         11   -1    0    0    0    0 -0.00000000000E+00 -0.00000000000E+00 -0.45593999997E+02  0.45594000000E+02  0.51100000000E-03 0. -1.
    9900012    2    1    2    0    0  0.18312404246E+01 -0.24092305994E+02 -0.36053205865E+02  0.47787236150E+02  0.19999840903E+02 0.  0.
        -12    1    1    2    0    0 -0.18312404246E+01  0.24092305994E+02  0.36053205865E+02  0.43400763850E+02  0.00000000000E+00 0.  1.
         11    1    3    3    0    0 -0.14685253572E+01 -0.12951227411E+02 -0.73169786824E+01  0.14947542791E+02  0.51100000000E-03 0. -1.
        -11    1    3    3    0    0  0.62268075197E+01 -0.64575583627E+01 -0.10627335373E+02  0.13907316394E+02  0.51100000000E-03 0.  1.
         12    1    3    3    0    0 -0.29270417379E+01 -0.46835202198E+01 -0.18108891810E+02  0.18932376966E+02  0.00000000000E+00 0. -1.
</event>
<event>
 7    1  0.1322363E-009  0.4778727E+02  0.7816164E-02  0.1312668E+00
        -11   -1    0    0    0    0  0.00000000000E+00  0.00000000000E+00  0.45593999997E+02  0.45594000000E+02  0.51100000000E-03 0.  1.
         11   -1    0    0    0    0 -0.00000000000E+00 -0.00000000000E+00 -0.45593999997E+02  0.45594000000E+02  0.51100000000E-03 0. -1.
    9900012    2    1    2    0    0  0.28371415687E+01  0.24180639271E+02 -0.35928690291E+02  0.47787268741E+02  0.19999989496E+02 0.  0.
        -12    1    1    2    0    0 -0.28371415687E+01 -0.24180639271E+02  0.35928690291E+02  0.43400731259E+02  0.00000000000E+00 0.  1.
         11    1    3    3    0    0  0.84414960469E+01  0.19619056146E+02 -0.21831584000E+02  0.30541517313E+02  0.51100000000E-03 0. -1.
        -11    1    3    3    0    0  0.28875998297E+00 -0.11808318485E+01 -0.42135048254E+01  0.43853585209E+01  0.51100000000E-03 0.  1.
         12    1    3    3    0    0 -0.58931144611E+01  0.57424149727E+01 -0.98836014663E+01  0.12860392907E+02  0.00000000000E+00 0. -1.
</event>
<event>
 7    1  0.1322363E-009  0.4778727E+02  0.7816164E-02  0.1312668E+00
        -11   -1    0    0    0    0  0.00000000000E+00  0.00000000000E+00  0.45593999997E+02  0.45594000000E+02  0.51100000000E-03 0.  1.
         11   -1    0    0    0    0 -0.00000000000E+00 -0.00000000000E+00 -0.45593999997E+02  0.45594000000E+02  0.51100000000E-03 0. -1.
    9900012    2    1    2    0    0 -0.37062791062E+02 -0.22362817182E+02 -0.31427920469E+01  0.47787271718E+02  0.20000003069E+02 0.  0.
        -12    1    1    2    0    0  0.37062791062E+02  0.22362817182E+02  0.31427920469E+01  0.43400728282E+02  0.00000000000E+00 0.  1.
         11    1    3    3    0    0 -0.73083482459E+01 -0.61311035171E+01 -0.49867589329E+01  0.10764299761E+02  0.51100000000E-03 0. -1.
        -11    1    3    3    0    0 -0.76744336121E+01 -0.39349023578E+00  0.57134533977E+01  0.95757671140E+01  0.51100000000E-03 0.  1.
         12    1    3    3    0    0 -0.22080009204E+02 -0.15838223429E+02 -0.38694865117E+01  0.27447204843E+02  0.00000000000E+00 0. -1.
</event>
<event>
 7    1  0.1322363E-009  0.4778726E+02  0.7816164E-02  0.1312668E+00
        -11   -1    0    0    0    0  0.00000000000E+00  0.00000000000E+00  0.45593999997E+02  0.45594000000E+02  0.51100000000E-03 0.  1.
         11   -1    0    0    0    0 -0.00000000000E+00 -0.00000000000E+00 -0.45593999997E+02  0.45594000000E+02  0.51100000000E-03 0. -1.
    9900012    2    1    2    0    0  0.15364892497E+02  0.13154799807E+02 -0.38399158347E+02  0.47787262205E+02  0.19999959696E+02 0.  0.
        -12    1    1    2    0    0 -0.15364892497E+02 -0.13154799807E+02  0.38399158347E+02  0.43400737795E+02  0.00000000000E+00 0.  1.
         11    1    3    3    0    0  0.87850808509E+01  0.77748855877E+01 -0.15877754990E+02  0.19741570232E+02  0.51100000000E-03 0. -1.
        -11    1    3    3    0    0 -0.48769180674E+00  0.23452242050E+01  0.14977461909E+01  0.28250953584E+01  0.51100000000E-03 0.  1.
        -12    1    3    3    0    0  0.70675034529E+01  0.30346900142E+01 -0.24019149549E+02  0.25220596614E+02  0.00000000000E+00 0.  1.
</event>
<event>
 7    1  0.1670133E-009  0.4778728E+02  0.7816164E-02  0.1312668E+00
        -11   -1    0    0    0    0  0.00000000000E+00  0.00000000000E+00  0.45593999997E+02  0.45594000000E+02  0.51100000000E-03 0.  1.
         11   -1    0    0    0    0 -0.00000000000E+00 -0.00000000000E+00 -0.45593999997E+02  0.45594000000E+02  0.51100000000E-03 0. -1.
    9900012    2    1    2    0    0  0.33459008887E+02  0.18506815875E+02 -0.20533273331E+02  0.47787276237E+02  0.20000023673E+02 0.  0.
        -12    1    1    2    0    0 -0.33459008887E+02 -0.18506815875E+02  0.20533273331E+02  0.43400723763E+02  0.00000000000E+00 0.  1.
         11    1    3    3    0    0  0.74075205763E+01  0.90544115252E+01 -0.12996142030E+02  0.17485806732E+02  0.51100000000E-03 0. -1.
        -11    1    3    3    0    0  0.51859368327E+01  0.46309466751E+01  0.14066203752E+01  0.70935314958E+01  0.51100000000E-03 0.  1.
         12    1    3    3    0    0  0.20865551478E+02  0.48214576745E+01 -0.89437516764E+01  0.23207938009E+02  0.00000000000E+00 0. -1.
</event>
<event>
 7    1  0.1322363E-009  0.4778730E+02  0.7816164E-02  0.1312668E+00
        -11   -1    0    0    0    0  0.00000000000E+00  0.00000000000E+00  0.45593999997E+02  0.45594000000E+02  0.51100000000E-03 0. -1.
         11   -1    0    0    0    0 -0.00000000000E+00 -0.00000000000E+00 -0.45593999997E+02  0.45594000000E+02  0.51100000000E-03 0.  1.
    9900012    2    1    2    0    0  0.20905339476E+02  0.36571697307E+02  0.10445031593E+02  0.47787297846E+02  0.20000122197E+02 0.  0.
        -12    1    1    2    0    0 -0.20905339476E+02 -0.36571697307E+02 -0.10445031593E+02  0.43400702154E+02  0.00000000000E+00 0.  1.
         11    1    3    3    0    0  0.11524795874E+02  0.21460210342E+02  0.85952504585E+01  0.25830986790E+02  0.51100000000E-03 0. -1.
        -11    1    3    3    0    0  0.96557480411E+01  0.15025823251E+02  0.51932025236E+01  0.18600488900E+02  0.51100000000E-03 0.  1.
        -12    1    3    3    0    0 -0.27520443838E+00  0.85663713701E-01 -0.33434213891E+01  0.33558221555E+01  0.00000000000E+00 0.  1.
</event>
<event>
 7    1  0.1322363E-009  0.4778727E+02  0.7816164E-02  0.1312668E+00
        -11   -1    0    0    0    0  0.00000000000E+00  0.00000000000E+00  0.45593999997E+02  0.45594000000E+02  0.51100000000E-03 0.  1.
         11   -1    0    0    0    0 -0.00000000000E+00 -0.00000000000E+00 -0.45593999997E+02  0.45594000000E+02  0.51100000000E-03 0. -1.
    9900012    2    1    2    0    0  0.35168678312E+02  0.65397363418E+01 -0.24576809623E+02  0.47787266632E+02  0.19999979883E+02 0.  0.
        -12    1    1    2    0    0 -0.35168678312E+02 -0.65397363418E+01  0.24576809623E+02  0.43400733368E+02  0.00000000000E+00 0.  1.
         11    1    3    3    0    0  0.23027870535E+02 -0.30736552366E+01 -0.12684831199E+02  0.26469513043E+02  0.51100000000E-03 0. -1.
        -11    1    3    3    0    0  0.64161775137E+01  0.41584448332E+01 -0.78865531554E+00  0.76864799997E+01  0.51100000000E-03 0.  1.
        -12    1    3    3    0    0  0.57246302627E+01  0.54549467453E+01 -0.11103323108E+02  0.13631273590E+02  0.00000000000E+00 0.  1.
</event>
<event>
 7    1  0.1322363E-009  0.4778727E+02  0.7816164E-02  0.1312668E+00
        -11   -1    0    0    0    0  0.00000000000E+00  0.00000000000E+00  0.45593999997E+02  0.45594000000E+02  0.51100000000E-03 0.  1.
         11   -1    0    0    0    0 -0.00000000000E+00 -0.00000000000E+00 -0.45593999997E+02  0.45594000000E+02  0.51100000000E-03 0. -1.
    9900012    2    1    2    0    0  0.36476575624E+02 -0.11646422728E+02 -0.20431434503E+02  0.47787271349E+02  0.20000001387E+02 0.  0.
        -12    1    1    2    0    0 -0.36476575624E+02  0.11646422728E+02  0.20431434503E+02  0.43400728651E+02  0.00000000000E+00 0.  1.
         11    1    3    3    0    0  0.25465095074E+02 -0.28697385730E+01 -0.12040924774E+02  0.28314136686E+02  0.51100000000E-03 0. -1.
        -11    1    3    3    0    0  0.13060826518E+02 -0.77040420368E+01 -0.65531881316E+01  0.16519132180E+02  0.51100000000E-03 0.  1.
        -12    1    3    3    0    0 -0.20493459683E+01 -0.10726421177E+01 -0.18373215975E+01  0.29540024819E+01  0.00000000000E+00 0.  1.
</event>
<event>
 7    1  0.1322363E-009  0.4778727E+02  0.7816164E-02  0.1312668E+00
        -11   -1    0    0    0    0  0.00000000000E+00  0.00000000000E+00  0.45593999997E+02  0.45594000000E+02  0.51100000000E-03 0.  1.
         11   -1    0    0    0    0 -0.00000000000E+00 -0.00000000000E+00 -0.45593999997E+02  0.45594000000E+02  0.51100000000E-03 0. -1.
    9900012    2    1    2    0    0  0.34398826354E+02 -0.16625528320E+02 -0.20589703059E+02  0.47787270530E+02  0.19999997656E+02 0.  0.
        -12    1    1    2    0    0 -0.34398826354E+02  0.16625528320E+02  0.20589703059E+02  0.43400729470E+02  0.00000000000E+00 0.  1.
         11    1    3    3    0    0  0.12198343912E+02 -0.21244409560E+01 -0.69176439337E+01  0.14183322651E+02  0.51100000000E-03 0.  1.
        -11    1    3    3    0    0  0.11897355645E+02 -0.13048560555E+02 -0.16963945763E+01  0.17739497138E+02  0.51100000000E-03 0. -1.
        -12    1    3    3    0    0  0.10303126797E+02 -0.14525268096E+01 -0.11975664549E+02  0.15864450741E+02  0.00000000000E+00 0.  1.
</event>
<event>
 7    1  0.1322363E-009  0.4778724E+02  0.7816164E-02  0.1312668E+00
        -11   -1    0    0    0    0  0.00000000000E+00  0.00000000000E+00  0.45593999997E+02  0.45594000000E+02  0.51100000000E-03 0.  1.
         11   -1    0    0    0    0 -0.00000000000E+00 -0.00000000000E+00 -0.45593999997E+02  0.45594000000E+02  0.51100000000E-03 0. -1.
    9900012    2    1    2    0    0 -0.13364374457E+02  0.38391643791E+02  0.15202020671E+02  0.47787236757E+02  0.19999843667E+02 0.  0.
        -12    1    1    2    0    0  0.13364374457E+02 -0.38391643791E+02 -0.15202020671E+02  0.43400763243E+02  0.00000000000E+00 0.  1.
         11    1    3    3    0    0  0.47396295057E+01  0.69651304862E+01  0.23329750110E+00  0.84280222191E+01  0.51100000000E-03 0. -1.
        -11    1    3    3    0    0 -0.50343072296E+01  0.11234471113E+02  0.59245159565E+01  0.13662264821E+02  0.51100000000E-03 0.  1.
         12    1    3    3    0    0 -0.13069696733E+02  0.20192042192E+02  0.90442072134E+01  0.25696949716E+02  0.00000000000E+00 0. -1.
</event>
<event>
 7    1  0.1322363E-009  0.4778727E+02  0.7816164E-02  0.1312668E+00
        -11   -1    0    0    0    0  0.00000000000E+00  0.00000000000E+00  0.45593999997E+02  0.45594000000E+02  0.51100000000E-03 0.  1.
         11   -1    0    0    0    0 -0.00000000000E+00 -0.00000000000E+00 -0.45593999997E+02  0.45594000000E+02  0.51100000000E-03 0. -1.
    9900012    2    1    2    0    0  0.96830904439E+01 -0.21266906971E+02 -0.36572938103E+02  0.47787269889E+02  0.19999994731E+02 0.  0.
        -12    1    1    2    0    0 -0.96830904439E+01  0.21266906971E+02  0.36572938103E+02  0.43400730111E+02  0.00000000000E+00 0.  1.
         11    1    3    3    0    0  0.29987119188E+01  0.27695006205E+01 -0.11925814205E+02  0.12605056587E+02  0.51100000000E-03 0. -1.
        -11    1    3    3    0    0  0.11782813130E+01 -0.56665465107E+01 -0.42138758296E+01  0.71592489815E+01  0.51100000000E-03 0.  1.
         12    1    3    3    0    0  0.55060972121E+01 -0.18369861081E+02 -0.20433248069E+02  0.28022964320E+02  0.00000000000E+00 0. -1.
</event>
<event>
 7    1  0.1322363E-009  0.4778727E+02  0.7816164E-02  0.1312668E+00
        -11   -1    0    0    0    0  0.00000000000E+00  0.00000000000E+00  0.45593999997E+02  0.45594000000E+02  0.51100000000E-03 0. -1.
         11   -1    0    0    0    0 -0.00000000000E+00 -0.00000000000E+00 -0.45593999997E+02  0.45594000000E+02  0.51100000000E-03 0.  1.
    9900012    2    1    2    0    0 -0.41066578810E+02 -0.45963418096E+00 -0.14033821512E+02  0.47787270687E+02  0.19999998369E+02 0.  0.
        -12    1    1    2    0    0  0.41066578810E+02  0.45963418096E+00  0.14033821512E+02  0.43400729313E+02  0.00000000000E+00 0.  1.
         11    1    3    3    0    0 -0.10586036708E+02  0.44057851472E+01 -0.47371704827E+01  0.12406284713E+02  0.51100000000E-03 0. -1.
        -11    1    3    3    0    0 -0.40686326093E+01 -0.63768513430E+01 -0.33110423839E+01  0.82571790758E+01  0.51100000000E-03 0.  1.
         12    1    3    3    0    0 -0.26411909492E+02  0.15114320149E+01 -0.59856086450E+01  0.27123806898E+02  0.00000000000E+00 0. -1.
</event>
<event>
 7    1  0.1322363E-009  0.4778727E+02  0.7816164E-02  0.1312668E+00
        -11   -1    0    0    0    0  0.00000000000E+00  0.00000000000E+00  0.45593999997E+02  0.45594000000E+02  0.51100000000E-03 0. -1.
         11   -1    0    0    0    0 -0.00000000000E+00 -0.00000000000E+00 -0.45593999997E+02  0.45594000000E+02  0.51100000000E-03 0.  1.
    9900012    2    1    2    0    0 -0.10537412664E+02 -0.40753600890E+02  0.10570267054E+02  0.47787267324E+02  0.19999983039E+02 0.  0.
        -12    1    1    2    0    0  0.10537412664E+02  0.40753600890E+02 -0.10570267054E+02  0.43400732676E+02  0.00000000000E+00 0.  1.
         11    1    3    3    0    0 -0.22975358866E+01 -0.34160713316E+02  0.93646439155E+01  0.35495486492E+02  0.51100000000E-03 0. -1.
        -11    1    3    3    0    0 -0.58708702203E+00 -0.83904725268E+00 -0.19567400471E+01  0.22085070380E+01  0.51100000000E-03 0.  1.
        -12    1    3    3    0    0 -0.76527897555E+01 -0.57538403218E+01  0.31623631852E+01  0.10083273794E+02  0.00000000000E+00 0.  1.
</event>
<event>
 7    1  0.1322363E-009  0.4778727E+02  0.7816164E-02  0.1312668E+00
        -11   -1    0    0    0    0  0.00000000000E+00  0.00000000000E+00  0.45593999997E+02  0.45594000000E+02  0.51100000000E-03 0.  1.
         11   -1    0    0    0    0 -0.00000000000E+00 -0.00000000000E+00 -0.45593999997E+02  0.45594000000E+02  0.51100000000E-03 0. -1.
    9900012    2    1    2    0    0 -0.11989354086E+02 -0.37074093213E+01 -0.41546765097E+02  0.47787272065E+02  0.20000004654E+02 0.  0.
        -12    1    1    2    0    0  0.11989354086E+02  0.37074093213E+01  0.41546765097E+02  0.43400727935E+02  0.00000000000E+00 0.  1.
         11    1    3    3    0    0 -0.15683882493E+01  0.32159852315E+01 -0.25460719602E+01  0.43914559541E+01  0.51100000000E-03 0.  1.
        -11    1    3    3    0    0  0.10007648226E+01 -0.73537024630E+01 -0.18331757740E+02  0.19777052668E+02  0.51100000000E-03 0. -1.
        -12    1    3    3    0    0 -0.11421730659E+02  0.43030791025E+00 -0.20668935397E+02  0.23618763443E+02  0.00000000000E+00 0.  1.
</event>
<event>
 7    1  0.1322363E-009  0.4778727E+02  0.7816164E-02  0.1312668E+00
        -11   -1    0    0    0    0  0.00000000000E+00  0.00000000000E+00  0.45593999997E+02  0.45594000000E+02  0.51100000000E-03 0.  1.
         11   -1    0    0    0    0 -0.00000000000E+00 -0.00000000000E+00 -0.45593999997E+02  0.45594000000E+02  0.51100000000E-03 0. -1.
    9900012    2    1    2    0    0 -0.14672309360E+01 -0.37369103668E+02 -0.22023184691E+02  0.47787270289E+02  0.19999996555E+02 0.  0.
        -12    1    1    2    0    0  0.14672309360E+01  0.37369103668E+02  0.22023184691E+02  0.43400729711E+02  0.00000000000E+00 0.  1.
         11    1    3    3    0    0 -0.54909011244E+00 -0.39052905985E+01 -0.63973295546E+01  0.75152258982E+01  0.51100000000E-03 0. -1.
        -11    1    3    3    0    0  0.56394964761E+01 -0.14724577358E+02 -0.13630395906E+01  0.15826401235E+02  0.51100000000E-03 0.  1.
         12    1    3    3    0    0 -0.65576372996E+01 -0.18739235711E+02 -0.14262815546E+02  0.24445643155E+02  0.00000000000E+00 0. -1.
</event>
<event>
 7    1  0.1322363E-009  0.4778724E+02  0.7816164E-02  0.1312668E+00
        -11   -1    0    0    0    0  0.00000000000E+00  0.00000000000E+00  0.45593999997E+02  0.45594000000E+02  0.51100000000E-03 0.  1.
         11   -1    0    0    0    0 -0.00000000000E+00 -0.00000000000E+00 -0.45593999997E+02  0.45594000000E+02  0.51100000000E-03 0. -1.
    9900012    2    1    2    0    0 -0.39962345827E+02  0.15756178998E+02  0.61951691437E+01  0.47787235245E+02  0.19999836775E+02 0.  0.
        -12    1    1    2    0    0  0.39962345827E+02 -0.15756178998E+02 -0.61951691437E+01  0.43400764755E+02  0.00000000000E+00 0.  1.
         11    1    3    3    0    0 -0.64502226475E+01  0.57931023196E+01 -0.37640904032E+01  0.94516550673E+01  0.51100000000E-03 0. -1.
        -11    1    3    3    0    0 -0.21089911896E+02  0.12169702953E+02  0.75315667955E+01  0.25487458728E+02  0.51100000000E-03 0.  1.
        -12    1    3    3    0    0 -0.12422211283E+02 -0.22066262755E+01  0.24276927513E+01  0.12848121450E+02  0.00000000000E+00 0.  1.
</event>
