<event>
 7    1  0.2714068E-010  0.4778727E+02  0.7816164E-02  0.1312668E+00
        -11   -1    0    0    0    0  0.00000000000E+00  0.00000000000E+00  0.45593999997E+02  0.45594000000E+02  0.51100000000E-03 0.  1.
         11   -1    0    0    0    0 -0.00000000000E+00 -0.00000000000E+00 -0.45593999997E+02  0.45594000000E+02  0.51100000000E-03 0. -1.
    9900012    2    1    2    0    0  0.12122195854E+02 -0.29715797231E+02  0.29217237816E+02  0.47787271631E+02  0.20000002673E+02 0.  0.
        -12    1    1    2    0    0 -0.12122195854E+02  0.29715797231E+02 -0.29217237816E+02  0.43400728369E+02  0.00000000000E+00 0.  1.
         11    1    3    3    0    0 -0.85229332597E+00 -0.39521320347E+01  0.13033278062E+02  0.13645955036E+02  0.51100000000E-03 0. -1.
        -11    1    3    3    0    0  0.12601089195E+01 -0.25478939007E+01  0.51726540569E+01  0.59022019681E+01  0.51100000000E-03 0.  1.
         12    1    3    3    0    0  0.11714380261E+02 -0.23215771295E+02  0.11011305697E+02  0.28239114626E+02  0.00000000000E+00 0. -1.
</event>
<event>
 7    1  0.2714068E-010  0.4778727E+02  0.7816164E-02  0.1312668E+00
        -11   -1    0    0    0    0  0.00000000000E+00  0.00000000000E+00  0.45593999997E+02  0.45594000000E+02  0.51100000000E-03 0. -1.
         11   -1    0    0    0    0 -0.00000000000E+00 -0.00000000000E+00 -0.45593999997E+02  0.45594000000E+02  0.51100000000E-03 0.  1.
    9900012    2    1    2    0    0 -0.83092316081E+01  0.15298536135E+02  0.39755936585E+02  0.47787273836E+02  0.20000012728E+02 0.  0.
        -12    1    1    2    0    0  0.83092316081E+01 -0.15298536135E+02 -0.39755936585E+02  0.43400726164E+02  0.00000000000E+00 0.  1.
         11    1    3    3    0    0 -0.27102147628E+01  0.10853794066E+02  0.38226570826E+02  0.39829898658E+02  0.51100000000E-03 0. -1.
        -11    1    3    3    0    0 -0.91984322302E+00  0.24638631983E+01 -0.68511188429E-01  0.26308605929E+01  0.51100000000E-03 0.  1.
         12    1    3    3    0    0 -0.46791736223E+01  0.19808788711E+01  0.15978769474E+01  0.53265145854E+01  0.00000000000E+00 0. -1.
</event>
<event>
 7    1  0.2714068E-010  0.4778727E+02  0.7816164E-02  0.1312668E+00
        -11   -1    0    0    0    0  0.00000000000E+00  0.00000000000E+00  0.45593999997E+02  0.45594000000E+02  0.51100000000E-03 0. -1.
         11   -1    0    0    0    0 -0.00000000000E+00 -0.00000000000E+00 -0.45593999997E+02  0.45594000000E+02  0.51100000000E-03 0.  1.
    9900012    2    1    2    0    0 -0.27344073611E+02  0.31919361028E+02  0.10820340053E+02  0.47787265802E+02  0.19999976099E+02 0.  0.
        -12    1    1    2    0    0  0.27344073611E+02 -0.31919361028E+02 -0.10820340053E+02  0.43400734198E+02  0.00000000000E+00 0.  1.
         11    1    3    3    0    0 -0.87860478389E+01  0.92351647296E+01  0.21444109107E+01  0.12925997162E+02  0.51100000000E-03 0. -1.
        -11    1    3    3    0    0 -0.12278893836E+02  0.22968473271E+02  0.26929618516E+01  0.26183468869E+02  0.51100000000E-03 0.  1.
        -12    1    3    3    0    0 -0.62791319362E+01 -0.28427697325E+00  0.59829672902E+01  0.86777997710E+01  0.00000000000E+00 0.  1.
</event>
<event>
 7    1  0.2714068E-010  0.4778726E+02  0.7816164E-02  0.1312668E+00
        -11   -1    0    0    0    0  0.00000000000E+00  0.00000000000E+00  0.45593999997E+02  0.45594000000E+02  0.51100000000E-03 0. -1.
         11   -1    0    0    0    0 -0.00000000000E+00 -0.00000000000E+00 -0.45593999997E+02  0.45594000000E+02  0.51100000000E-03 0.  1.
    9900012    2    1    2    0    0  0.61299720706E+01 -0.15416022422E+02  0.40104790453E+02  0.47787256663E+02  0.19999934430E+02 0.  0.
        -12    1    1    2    0    0 -0.61299720706E+01  0.15416022422E+02 -0.40104790453E+02  0.43400743337E+02  0.00000000000E+00 0.  1.
         11    1    3    3    0    0  0.35905258096E+01 -0.10372538198E+02  0.76129553032E+01  0.13358087923E+02  0.51100000000E-03 0. -1.
        -11    1    3    3    0    0  0.17099162431E+01 -0.74462562550E+01  0.29640372705E+02  0.30609185551E+02  0.51100000000E-03 0.  1.
        -12    1    3    3    0    0  0.82953001797E+00  0.24027720311E+01  0.28514624450E+01  0.38199831883E+01  0.00000000000E+00 0.  1.
</event>
<event>
 7    1  0.2714068E-010  0.4778727E+02  0.7816164E-02  0.1312668E+00
        -11   -1    0    0    0    0  0.00000000000E+00  0.00000000000E+00  0.45593999997E+02  0.45594000000E+02  0.51100000000E-03 0.  1.
         11   -1    0    0    0    0 -0.00000000000E+00 -0.00000000000E+00 -0.45593999997E+02  0.45594000000E+02  0.51100000000E-03 0. -1.
    9900012    2    1    2    0    0  0.18686084200E+02 -0.19678578492E+02 -0.33870445416E+02  0.47787271125E+02  0.20000000368E+02 0.  0.
        -12    1    1    2    0    0 -0.18686084200E+02  0.19678578492E+02  0.33870445416E+02  0.43400728875E+02  0.00000000000E+00 0.  1.
         11    1    3    3    0    0  0.37665517872E+01 -0.10672479836E+02 -0.19075739972E+02  0.22180455224E+02  0.51100000000E-03 0.  1.
        -11    1    3    3    0    0  0.11935217028E+02 -0.27962184357E+01 -0.41786992924E+01  0.12951052895E+02  0.51100000000E-03 0. -1.
         12    1    3    3    0    0  0.29843153853E+01 -0.62098802203E+01 -0.10616006151E+02  0.12655763006E+02  0.00000000000E+00 0. -1.
</event>
<event>
 7    1  0.2714068E-010  0.4778727E+02  0.7816164E-02  0.1312668E+00
        -11   -1    0    0    0    0  0.00000000000E+00  0.00000000000E+00  0.45593999997E+02  0.45594000000E+02  0.51100000000E-03 0. -1.
         11   -1    0    0    0    0 -0.00000000000E+00 -0.00000000000E+00 -0.45593999997E+02  0.45594000000E+02  0.51100000000E-03 0.  1.
    9900012    2    1    2    0    0 -0.36489342900E+02 -0.16542568472E+02  0.16688157768E+02  0.47787270436E+02  0.19999997227E+02 0.  0.
        -12    1    1    2    0    0  0.36489342900E+02  0.16542568472E+02 -0.16688157768E+02  0.43400729564E+02  0.00000000000E+00 0.  1.
         11    1    3    3    0    0 -0.25412434175E+02 -0.60869136822E+01  0.12350168925E+02  0.28902750762E+02  0.51100000000E-03 0. -1.
        -11    1    3    3    0    0 -0.78458600502E+01 -0.12160218124E+02  0.46945575306E+01  0.15214049278E+02  0.51100000000E-03 0.  1.
         12    1    3    3    0    0 -0.32310486751E+01  0.17045633342E+01 -0.35656868762E+00  0.36704703963E+01  0.00000000000E+00 0. -1.
</event>
<event>
 7    1  0.2714068E-010  0.4778727E+02  0.7816164E-02  0.1312668E+00
        -11   -1    0    0    0    0  0.00000000000E+00  0.00000000000E+00  0.45593999997E+02  0.45594000000E+02  0.51100000000E-03 0.  1.
         11   -1    0    0    0    0 -0.00000000000E+00 -0.00000000000E+00 -0.45593999997E+02  0.45594000000E+02  0.51100000000E-03 0. -1.
    9900012    2    1    2    0    0  0.32657704111E+02  0.33653508847E+01 -0.28386125679E+02  0.47787270104E+02  0.19999995714E+02 0.  0.
        -12    1    1    2    0    0 -0.32657704111E+02 -0.33653508847E+01  0.28386125679E+02  0.43400729896E+02  0.00000000000E+00 0.  1.
         11    1    3    3    0    0  0.40727122817E+01 -0.36245247712E+01  0.88822202744E+00  0.55238667415E+01  0.51100000000E-03 0. -1.
        -11    1    3    3    0    0  0.34258552459E+01 -0.17483942308E+01 -0.39019667051E+01  0.54789333798E+01  0.51100000000E-03 0.  1.
         12    1    3    3    0    0  0.25159136584E+02  0.87382698867E+01 -0.25372381001E+02  0.36784469983E+02  0.00000000000E+00 0. -1.
</event>
<event>
 7    1  0.2714068E-010  0.4778727E+02  0.7816164E-02  0.1312668E+00
        -11   -1    0    0    0    0  0.00000000000E+00  0.00000000000E+00  0.45593999997E+02  0.45594000000E+02  0.51100000000E-03 0. -1.
         11   -1    0    0    0    0 -0.00000000000E+00 -0.00000000000E+00 -0.45593999997E+02  0.45594000000E+02  0.51100000000E-03 0.  1.
    9900012    2    1    2    0    0  0.41341793846E+01 -0.48696930098E+01  0.42928055472E+02  0.47787270792E+02  0.19999998847E+02 0.  0.
        -12    1    1    2    0    0 -0.41341793846E+01  0.48696930098E+01 -0.42928055472E+02  0.43400729208E+02  0.00000000000E+00 0.  1.
         11    1    3    3    0    0 -0.27738133973E+01 -0.85475036444E+01  0.11096938961E+02  0.14279212649E+02  0.51100000000E-03 0.  1.
        -11    1    3    3    0    0  0.72370777623E+01  0.49484396490E+01  0.23657755115E+02  0.25229976750E+02  0.51100000000E-03 0. -1.
         12    1    3    3    0    0 -0.32908498033E+00 -0.12706290144E+01  0.81733613965E+01  0.82780813921E+01  0.00000000000E+00 0. -1.
</event>
<event>
 7    1  0.2714068E-010  0.4778727E+02  0.7816164E-02  0.1312668E+00
        -11   -1    0    0    0    0  0.00000000000E+00  0.00000000000E+00  0.45593999997E+02  0.45594000000E+02  0.51100000000E-03 0. -1.
         11   -1    0    0    0    0 -0.00000000000E+00 -0.00000000000E+00 -0.45593999997E+02  0.45594000000E+02  0.51100000000E-03 0.  1.
    9900012    2    1    2    0    0  0.21589183115E+02 -0.25423028965E+02 -0.27770493861E+02  0.47787267764E+02  0.19999985041E+02 0.  0.
        -12    1    1    2    0    0 -0.21589183115E+02  0.25423028965E+02  0.27770493861E+02  0.43400732236E+02  0.00000000000E+00 0.  1.
         11    1    3    3    0    0  0.61386075722E+01 -0.58860457497E+01 -0.20792223083E+01  0.87550672848E+01  0.51100000000E-03 0. -1.
        -11    1    3    3    0    0  0.17020052335E+02 -0.20644825784E+02 -0.21165342253E+02  0.34115432375E+02  0.51100000000E-03 0.  1.
        -12    1    3    3    0    0 -0.15694767926E+01  0.11078425686E+01 -0.45259293002E+01  0.49167681042E+01  0.00000000000E+00 0.  1.
</event>
<event>
 7    1  0.2714068E-010  0.4778728E+02  0.7816164E-02  0.1312668E+00
        -11   -1    0    0    0    0  0.00000000000E+00  0.00000000000E+00  0.45593999997E+02  0.45594000000E+02  0.51100000000E-03 0.  1.
         11   -1    0    0    0    0 -0.00000000000E+00 -0.00000000000E+00 -0.45593999997E+02  0.45594000000E+02  0.51100000000E-03 0. -1.
    9900012    2    1    2    0    0 -0.74958564001E+01  0.11983773383E+02 -0.41034425144E+02  0.47787277257E+02  0.20000028328E+02 0.  0.
        -12    1    1    2    0    0  0.74958564001E+01 -0.11983773383E+02  0.41034425144E+02  0.43400722743E+02  0.00000000000E+00 0.  1.
         11    1    3    3    0    0 -0.76429605165E+01  0.11387887414E+01 -0.27414155011E+02  0.28482408264E+02  0.51100000000E-03 0. -1.
        -11    1    3    3    0    0 -0.31574623917E+00  0.12125881239E+02 -0.11110218895E+02  0.16449123249E+02  0.51100000000E-03 0.  1.
         12    1    3    3    0    0  0.46285035559E+00 -0.12808965967E+01 -0.25100512381E+01  0.28557457452E+01  0.00000000000E+00 0. -1.
</event>
<event>
 7    1  0.2714068E-010  0.4778726E+02  0.7816164E-02  0.1312668E+00
        -11   -1    0    0    0    0  0.00000000000E+00  0.00000000000E+00  0.45593999997E+02  0.45594000000E+02  0.51100000000E-03 0. -1.
         11   -1    0    0    0    0 -0.00000000000E+00 -0.00000000000E+00 -0.45593999997E+02  0.45594000000E+02  0.51100000000E-03 0.  1.
    9900012    2    1    2    0    0  0.37252415963E+02  0.22266105346E+02  0.31991503926E+00  0.47787259361E+02  0.19999946733E+02 0.  0.
        -12    1    1    2    0    0 -0.37252415963E+02 -0.22266105346E+02 -0.31991503926E+00  0.43400740639E+02  0.00000000000E+00 0.  1.
         11    1    3    3    0    0  0.14509805237E+02  0.15553773175E+02  0.55243557736E+01  0.21976642486E+02  0.51100000000E-03 0. -1.
        -11    1    3    3    0    0  0.21379047976E+02  0.34864243400E+01 -0.36009042402E+01  0.21958719421E+02  0.51100000000E-03 0.  1.
        -12    1    3    3    0    0  0.13635627506E+01  0.32259078308E+01 -0.16035364941E+01  0.38518974540E+01  0.00000000000E+00 0.  1.
</event>
<event>
 7    1  0.2714068E-010  0.4778727E+02  0.7816164E-02  0.1312668E+00
        -11   -1    0    0    0    0  0.00000000000E+00  0.00000000000E+00  0.45593999997E+02  0.45594000000E+02  0.51100000000E-03 0.  1.
         11   -1    0    0    0    0 -0.00000000000E+00 -0.00000000000E+00 -0.45593999997E+02  0.45594000000E+02  0.51100000000E-03 0. -1.
    9900012    2    1    2    0    0  0.28568285692E+01 -0.32273397750E+02 -0.28877150764E+02  0.47787268346E+02  0.19999987697E+02 0.  0.
        -12    1    1    2    0    0 -0.28568285692E+01  0.32273397750E+02  0.28877150764E+02  0.43400731654E+02  0.00000000000E+00 0.  1.
         11    1    3    3    0    0  0.85909847227E+00 -0.74168968975E+01 -0.56714776157E+01  0.93762502302E+01  0.51100000000E-03 0. -1.
        -11    1    3    3    0    0  0.77136947631E+01 -0.15153397205E+02 -0.63734434085E+01  0.18158945864E+02  0.51100000000E-03 0.  1.
        -12    1    3    3    0    0 -0.57159646662E+01 -0.97031036476E+01 -0.16832229740E+02  0.20252072252E+02  0.00000000000E+00 0.  1.
</event>
<event>
 7    1  0.2714068E-010  0.4778728E+02  0.7816164E-02  0.1312668E+00
        -11   -1    0    0    0    0  0.00000000000E+00  0.00000000000E+00  0.45593999997E+02  0.45594000000E+02  0.51100000000E-03 0. -1.
         11   -1    0    0    0    0 -0.00000000000E+00 -0.00000000000E+00 -0.45593999997E+02  0.45594000000E+02  0.51100000000E-03 0.  1.
    9900012    2    1    2    0    0  0.19138313717E+02  0.37262816375E+02 -0.11350344591E+02  0.47787275830E+02  0.20000021821E+02 0.  0.
        -12    1    1    2    0    0 -0.19138313717E+02 -0.37262816375E+02  0.11350344591E+02  0.43400724170E+02  0.00000000000E+00 0.  1.
         11    1    3    3    0    0  0.11850495354E+02  0.21112886588E+02 -0.61437367729E+01  0.24978665337E+02  0.51100000000E-03 0. -1.
        -11    1    3    3    0    0  0.52785838264E+01 -0.55722581873E+00 -0.20358570205E+01  0.56849504742E+01  0.51100000000E-03 0.  1.
        -12    1    3    3    0    0  0.20092345370E+01  0.16707155605E+02 -0.31707507973E+01  0.17123660019E+02  0.00000000000E+00 0.  1.
</event>
<event>
 7    1  0.2714068E-010  0.4778727E+02  0.7816164E-02  0.1312668E+00
        -11   -1    0    0    0    0  0.00000000000E+00  0.00000000000E+00  0.45593999997E+02  0.45594000000E+02  0.51100000000E-03 0. -1.
         11   -1    0    0    0    0 -0.00000000000E+00 -0.00000000000E+00 -0.45593999997E+02  0.45594000000E+02  0.51100000000E-03 0.  1.
    9900012    2    1    2    0    0 -0.17345830748E+02  0.15722869387E+02  0.36544996137E+02  0.47787271794E+02  0.20000003420E+02 0.  0.
        -12    1    1    2    0    0  0.17345830748E+02 -0.15722869387E+02 -0.36544996137E+02  0.43400728206E+02  0.00000000000E+00 0.  1.
         11    1    3    3    0    0 -0.38199102094E+01  0.82499475569E+01  0.14199055425E+02  0.16860205334E+02  0.51100000000E-03 0. -1.
        -11    1    3    3    0    0 -0.14024740522E+02  0.67165288906E+01  0.24256301360E+02  0.28812727448E+02  0.51100000000E-03 0.  1.
        -12    1    3    3    0    0  0.49881998301E+00  0.75639293917E+00 -0.19103606478E+01  0.21143390122E+01  0.00000000000E+00 0.  1.
</event>
<event>
 7    1  0.2714068E-010  0.4778727E+02  0.7816164E-02  0.1312668E+00
        -11   -1    0    0    0    0  0.00000000000E+00  0.00000000000E+00  0.45593999997E+02  0.45594000000E+02  0.51100000000E-03 0. -1.
         11   -1    0    0    0    0 -0.00000000000E+00 -0.00000000000E+00 -0.45593999997E+02  0.45594000000E+02  0.51100000000E-03 0.  1.
    9900012    2    1    2    0    0 -0.39118484818E+02  0.18381089375E+02  0.39374220723E+01  0.47787267360E+02  0.19999983201E+02 0.  0.
        -12    1    1    2    0    0  0.39118484818E+02 -0.18381089375E+02 -0.39374220723E+01  0.43400732640E+02  0.00000000000E+00 0.  1.
         11    1    3    3    0    0 -0.25179896695E+02  0.18299508964E+02  0.68164747988E+00  0.31134608869E+02  0.51100000000E-03 0. -1.
        -11    1    3    3    0    0 -0.94430277166E+01 -0.40025158257E+01  0.19424317799E+01  0.10438579734E+02  0.51100000000E-03 0.  1.
        -12    1    3    3    0    0 -0.44955604072E+01  0.40840962368E+01  0.13133428126E+01  0.62140787563E+01  0.00000000000E+00 0.  1.
</event>
<event>
 7    1  0.2714068E-010  0.4778727E+02  0.7816164E-02  0.1312668E+00
        -11   -1    0    0    0    0  0.00000000000E+00  0.00000000000E+00  0.45593999997E+02  0.45594000000E+02  0.51100000000E-03 0.  1.
         11   -1    0    0    0    0 -0.00000000000E+00 -0.00000000000E+00 -0.45593999997E+02  0.45594000000E+02  0.51100000000E-03 0. -1.
    9900012    2    1    2    0    0  0.17363739982E+02  0.19628656443E+02 -0.34595369526E+02  0.47787271750E+02  0.20000003219E+02 0.  0.
        -12    1    1    2    0    0 -0.17363739982E+02 -0.19628656443E+02  0.34595369526E+02  0.43400728250E+02  0.00000000000E+00 0.  1.
         11    1    3    3    0    0  0.98345726833E+01  0.21308130967E+02 -0.26111638557E+02  0.35108018080E+02  0.51100000000E-03 0. -1.
        -11    1    3    3    0    0  0.79402839239E+01 -0.38062244044E+00 -0.64782083405E+01  0.10254763079E+02  0.51100000000E-03 0.  1.
         12    1    3    3    0    0 -0.41111662512E+00 -0.12988520828E+01 -0.20055226291E+01  0.24244905915E+01  0.00000000000E+00 0. -1.
</event>
<event>
 7    1  0.2714068E-010  0.4778727E+02  0.7816164E-02  0.1312668E+00
        -11   -1    0    0    0    0  0.00000000000E+00  0.00000000000E+00  0.45593999997E+02  0.45594000000E+02  0.51100000000E-03 0.  1.
         11   -1    0    0    0    0 -0.00000000000E+00 -0.00000000000E+00 -0.45593999997E+02  0.45594000000E+02  0.51100000000E-03 0. -1.
    9900012    2    1    2    0    0 -0.62205664223E+01  0.38743152230E+02 -0.18544426368E+02  0.47787273731E+02  0.20000012250E+02 0.  0.
        -12    1    1    2    0    0  0.62205664223E+01 -0.38743152230E+02  0.18544426368E+02  0.43400726269E+02  0.00000000000E+00 0.  1.
         11    1    3    3    0    0 -0.63696417288E+01  0.20143617017E+02 -0.19667778791E+02  0.28864496619E+02  0.51100000000E-03 0. -1.
        -11    1    3    3    0    0 -0.24045092620E+00  0.17644659868E+02  0.17223754379E+01  0.17730155553E+02  0.51100000000E-03 0.  1.
         12    1    3    3    0    0  0.38952623271E+00  0.95487534538E+00 -0.59902301476E+00  0.11926215592E+01  0.00000000000E+00 0. -1.
</event>
<event>
 7    1  0.2714068E-010  0.4778727E+02  0.7816164E-02  0.1312668E+00
        -11   -1    0    0    0    0  0.00000000000E+00  0.00000000000E+00  0.45593999997E+02  0.45594000000E+02  0.51100000000E-03 0.  1.
         11   -1    0    0    0    0 -0.00000000000E+00 -0.00000000000E+00 -0.45593999997E+02  0.45594000000E+02  0.51100000000E-03 0. -1.
    9900012    2    1    2    0    0  0.24219715967E+02 -0.35680659488E+02 -0.48906921406E+01  0.47787274515E+02  0.20000015825E+02 0.  0.
        -12    1    1    2    0    0 -0.24219715967E+02  0.35680659488E+02  0.48906921406E+01  0.43400725485E+02  0.00000000000E+00 0.  1.
         11    1    3    3    0    0  0.26549496065E+01 -0.51392594970E+01 -0.46186929313E+01  0.74022341388E+01  0.51100000000E-03 0. -1.
        -11    1    3    3    0    0  0.16184880248E+02 -0.99944088278E+01  0.14402571939E+01  0.19076501187E+02  0.51100000000E-03 0.  1.
        -12    1    3    3    0    0  0.53798861118E+01 -0.20546991163E+02 -0.17122564031E+01  0.21308539190E+02  0.00000000000E+00 0.  1.
</event>
<event>
 7    1  0.2714068E-010  0.4778727E+02  0.7816164E-02  0.1312668E+00
        -11   -1    0    0    0    0  0.00000000000E+00  0.00000000000E+00  0.45593999997E+02  0.45594000000E+02  0.51100000000E-03 0. -1.
         11   -1    0    0    0    0 -0.00000000000E+00 -0.00000000000E+00 -0.45593999997E+02  0.45594000000E+02  0.51100000000E-03 0.  1.
    9900012    2    1    2    0    0  0.60759350315E+01  0.23527017061E+02  0.35960890919E+02  0.47787271965E+02  0.20000004195E+02 0.  0.
        -12    1    1    2    0    0 -0.60759350315E+01 -0.23527017061E+02 -0.35960890919E+02  0.43400728035E+02  0.00000000000E+00 0.  1.
         11    1    3    3    0    0  0.23871450844E+01  0.22345865570E+01 -0.19504075516E+01  0.38073519162E+01  0.51100000000E-03 0. -1.
        -11    1    3    3    0    0  0.62023976038E+00  0.15699687131E+02  0.29498991449E+02  0.33422378284E+02  0.51100000000E-03 0.  1.
         12    1    3    3    0    0  0.30685501867E+01  0.55927433728E+01  0.84123070217E+01  0.10557541765E+02  0.00000000000E+00 0. -1.
</event>
<event>
 7    1  0.2714068E-010  0.4778725E+02  0.7816164E-02  0.1312668E+00
        -11   -1    0    0    0    0  0.00000000000E+00  0.00000000000E+00  0.45593999997E+02  0.45594000000E+02  0.51100000000E-03 0.  1.
         11   -1    0    0    0    0 -0.00000000000E+00 -0.00000000000E+00 -0.45593999997E+02  0.45594000000E+02  0.51100000000E-03 0. -1.
    9900012    2    1    2    0    0 -0.48006354560E+01  0.93936103805E+01 -0.42099159273E+02  0.47787248528E+02  0.19999897340E+02 0.  0.
        -12    1    1    2    0    0  0.48006354560E+01 -0.93936103805E+01  0.42099159273E+02  0.43400751472E+02  0.00000000000E+00 0.  1.
         11    1    3    3    0    0  0.17959176861E+01 -0.13548637423E+01 -0.16519037008E+01  0.27910145455E+01  0.51100000000E-03 0. -1.
        -11    1    3    3    0    0 -0.54329327429E+01  0.48735380787E+01 -0.45452254082E+01  0.85980931529E+01  0.51100000000E-03 0.  1.
        -12    1    3    3    0    0 -0.11636203992E+01  0.58749360441E+01 -0.35902030164E+02  0.36398140830E+02  0.00000000000E+00 0.  1.
</event>
<event>
 7    1  0.2714068E-010  0.4778727E+02  0.7816164E-02  0.1312668E+00
        -11   -1    0    0    0    0  0.00000000000E+00  0.00000000000E+00  0.45593999997E+02  0.45594000000E+02  0.51100000000E-03 0.  1.
         11   -1    0    0    0    0 -0.00000000000E+00 -0.00000000000E+00 -0.45593999997E+02  0.45594000000E+02  0.51100000000E-03 0. -1.
    9900012    2    1    2    0    0  0.20493079962E+02 -0.16216820635E+02 -0.34650712372E+02  0.47787268834E+02  0.19999989923E+02 0.  0.
        -12    1    1    2    0    0 -0.20493079962E+02  0.16216820635E+02  0.34650712372E+02  0.43400731166E+02  0.00000000000E+00 0.  1.
         11    1    3    3    0    0  0.42649561514E+01 -0.33828884925E+01 -0.39393184416E+01  0.67195249513E+01  0.51100000000E-03 0. -1.
        -11    1    3    3    0    0  0.13521861627E+02 -0.17240238175E+02 -0.26596684629E+02  0.34459399120E+02  0.51100000000E-03 0.  1.
        -12    1    3    3    0    0  0.27062621831E+01  0.44063060334E+01 -0.41147093015E+01  0.66083447625E+01  0.00000000000E+00 0.  1.
</event>
<event>
 7    1  0.2714068E-010  0.4778727E+02  0.7816164E-02  0.1312668E+00
        -11   -1    0    0    0    0  0.00000000000E+00  0.00000000000E+00  0.45593999997E+02  0.45594000000E+02  0.51100000000E-03 0.  1.
         11   -1    0    0    0    0 -0.00000000000E+00 -0.00000000000E+00 -0.45593999997E+02  0.45594000000E+02  0.51100000000E-03 0. -1.
    9900012    2    1    2    0    0  0.22380455924E+02  0.36799758171E+02 -0.53400653105E+01  0.47787270670E+02  0.19999998295E+02 0.  0.
        -12    1    1    2    0    0 -0.22380455924E+02 -0.36799758171E+02  0.53400653105E+01  0.43400729330E+02  0.00000000000E+00 0.  1.
         11    1    3    3    0    0  0.15268453617E+02  0.30708603096E+02 -0.10698603360E+02  0.35924978693E+02  0.51100000000E-03 0. -1.
        -11    1    3    3    0    0  0.45905508982E+01  0.51251884570E+01  0.59520635672E+01  0.90976796623E+01  0.51100000000E-03 0.  1.
         12    1    3    3    0    0  0.25214514089E+01  0.96596661822E+00 -0.59352551804E+00  0.27646123156E+01  0.00000000000E+00 0. -1.
</event>
<event>
 7    1  0.2714068E-010  0.4778727E+02  0.7816164E-02  0.1312668E+00
        -11   -1    0    0    0    0  0.00000000000E+00  0.00000000000E+00  0.45593999997E+02  0.45594000000E+02  0.51100000000E-03 0. -1.
         11   -1    0    0    0    0 -0.00000000000E+00 -0.00000000000E+00 -0.45593999997E+02  0.45594000000E+02  0.51100000000E-03 0.  1.
    9900012    2    1    2    0    0 -0.21469117724E+02  0.34734827474E+01  0.37558425142E+02  0.47787269621E+02  0.19999993511E+02 0.  0.
        -12    1    1    2    0    0  0.21469117724E+02 -0.34734827474E+01 -0.37558425142E+02  0.43400730379E+02  0.00000000000E+00 0.  1.
         11    1    3    3    0    0 -0.94716159863E+01 -0.27891345377E+01  0.70354465764E+01  0.12123872717E+02  0.51100000000E-03 0. -1.
        -11    1    3    3    0    0  0.14477563374E+00  0.54548883797E+01  0.50593622353E+01  0.74413650433E+01  0.51100000000E-03 0.  1.
         12    1    3    3    0    0 -0.12142277371E+02  0.80772890537E+00  0.25463616331E+02  0.28222031861E+02  0.00000000000E+00 0. -1.
</event>
<event>
 7    1  0.2714068E-010  0.4778727E+02  0.7816164E-02  0.1312668E+00
        -11   -1    0    0    0    0  0.00000000000E+00  0.00000000000E+00  0.45593999997E+02  0.45594000000E+02  0.51100000000E-03 0.  1.
         11   -1    0    0    0    0 -0.00000000000E+00 -0.00000000000E+00 -0.45593999997E+02  0.45594000000E+02  0.51100000000E-03 0. -1.
    9900012    2    1    2    0    0 -0.34593042251E+02  0.23372063665E+02 -0.11861339278E+02  0.47787270725E+02  0.19999998543E+02 0.  0.
        -12    1    1    2    0    0  0.34593042251E+02 -0.23372063665E+02  0.11861339278E+02  0.43400729275E+02  0.00000000000E+00 0.  1.
         11    1    3    3    0    0 -0.22255042656E+02  0.17841853724E+02 -0.12129834087E+02  0.30995992372E+02  0.51100000000E-03 0. -1.
        -11    1    3    3    0    0 -0.36880196032E+01  0.68408525346E+01 -0.13671053678E+01  0.78909903904E+01  0.51100000000E-03 0.  1.
         12    1    3    3    0    0 -0.86499799920E+01 -0.13106425932E+01  0.16356001766E+01  0.89002879620E+01  0.00000000000E+00 0. -1.
</event>
<event>
 7    1  0.2714068E-010  0.4778727E+02  0.7816164E-02  0.1312668E+00
        -11   -1    0    0    0    0  0.00000000000E+00  0.00000000000E+00  0.45593999997E+02  0.45594000000E+02  0.51100000000E-03 0.  1.
         11   -1    0    0    0    0 -0.00000000000E+00 -0.00000000000E+00 -0.45593999997E+02  0.45594000000E+02  0.51100000000E-03 0. -1.
    9900012    2    1    2    0    0  0.35615154183E+02  0.23041617894E+02 -0.91797677354E+01  0.47787268459E+02  0.19999988210E+02 0.  0.
        -12    1    1    2    0    0 -0.35615154183E+02 -0.23041617894E+02  0.91797677354E+01  0.43400731541E+02  0.00000000000E+00 0.  1.
         11    1    3    3    0    0  0.23378497346E+02  0.41243776875E+01 -0.21762009335E+01  0.23839053678E+02  0.51100000000E-03 0. -1.
        -11    1    3    3    0    0  0.50498910133E+01  0.97720161831E+01 -0.52400700984E+01  0.12184089397E+02  0.51100000000E-03 0.  1.
         12    1    3    3    0    0  0.71867658233E+01  0.91452240231E+01 -0.17634967035E+01  0.11764125384E+02  0.00000000000E+00 0. -1.
</event>
<event>
 7    1  0.2714068E-010  0.4778727E+02  0.7816164E-02  0.1312668E+00
        -11   -1    0    0    0    0  0.00000000000E+00  0.00000000000E+00  0.45593999997E+02  0.45594000000E+02  0.51100000000E-03 0. -1.
         11   -1    0    0    0    0 -0.00000000000E+00 -0.00000000000E+00 -0.45593999997E+02  0.45594000000E+02  0.51100000000E-03 0.  1.
    9900012    2    1    2    0    0 -0.68249351898E+00  0.23297314114E+02  0.36611369941E+02  0.47787273609E+02  0.20000011692E+02 0.  0.
        -12    1    1    2    0    0  0.68249351898E+00 -0.23297314114E+02 -0.36611369941E+02  0.43400726391E+02  0.00000000000E+00 0.  1.
         11    1    3    3    0    0  0.39251559472E+00  0.18869850718E+02  0.33387129301E+02  0.38352649684E+02  0.51100000000E-03 0. -1.
        -11    1    3    3    0    0 -0.15230951028E+01 -0.14564957909E+00 -0.19734043846E+01  0.24970698064E+01  0.51100000000E-03 0.  1.
        -12    1    3    3    0    0  0.44808598909E+00  0.45731129746E+01  0.51976450251E+01  0.69375541179E+01  0.00000000000E+00 0.  1.
</event>
<event>
 7    1  0.2714068E-010  0.4778727E+02  0.7816164E-02  0.1312668E+00
        -11   -1    0    0    0    0  0.00000000000E+00  0.00000000000E+00  0.45593999997E+02  0.45594000000E+02  0.51100000000E-03 0. -1.
         11   -1    0    0    0    0 -0.00000000000E+00 -0.00000000000E+00 -0.45593999997E+02  0.45594000000E+02  0.51100000000E-03 0.  1.
    9900012    2    1    2    0    0 -0.32720004822E+02  0.11526772725E+02  0.26079840795E+02  0.47787270733E+02  0.19999998581E+02 0.  0.
        -12    1    1    2    0    0  0.32720004822E+02 -0.11526772725E+02 -0.26079840795E+02  0.43400729267E+02  0.00000000000E+00 0.  1.
         11    1    3    3    0    0 -0.74348629885E+01  0.15651885405E+01  0.42774440155E+01  0.87191473432E+01  0.51100000000E-03 0. -1.
        -11    1    3    3    0    0 -0.18382427397E+02 -0.19044514741E+01  0.10292316687E+02  0.21153542386E+02  0.51100000000E-03 0.  1.
        -12    1    3    3    0    0 -0.69027144370E+01  0.11866035658E+02  0.11510080092E+02  0.17914581004E+02  0.00000000000E+00 0.  1.
</event>
<event>
 7    1  0.2714068E-010  0.4778727E+02  0.7816164E-02  0.1312668E+00
        -11   -1    0    0    0    0  0.00000000000E+00  0.00000000000E+00  0.45593999997E+02  0.45594000000E+02  0.51100000000E-03 0.  1.
         11   -1    0    0    0    0 -0.00000000000E+00 -0.00000000000E+00 -0.45593999997E+02  0.45594000000E+02  0.51100000000E-03 0. -1.
    9900012    2    1    2    0    0 -0.24884079348E+01 -0.31228444551E+02 -0.30036899429E+02  0.47787271314E+02  0.20000001230E+02 0.  0.
        -12    1    1    2    0    0  0.24884079348E+01  0.31228444551E+02  0.30036899429E+02  0.43400728686E+02  0.00000000000E+00 0.  1.
         11    1    3    3    0    0 -0.72367471573E+01 -0.65290892853E+01 -0.79392930202E+01  0.12571073551E+02  0.51100000000E-03 0. -1.
        -11    1    3    3    0    0  0.82757293093E+01 -0.16457642146E+02 -0.14028010350E+02  0.23154411141E+02  0.51100000000E-03 0.  1.
        -12    1    3    3    0    0 -0.35273900868E+01 -0.82417131193E+01 -0.80695960586E+01  0.12061786622E+02  0.00000000000E+00 0.  1.
</event>
<event>
 7    1  0.2714068E-010  0.4778727E+02  0.7816164E-02  0.1312668E+00
        -11   -1    0    0    0    0  0.00000000000E+00  0.00000000000E+00  0.45593999997E+02  0.45594000000E+02  0.51100000000E-03 0. -1.
         11   -1    0    0    0    0 -0.00000000000E+00 -0.00000000000E+00 -0.45593999997E+02  0.45594000000E+02  0.51100000000E-03 0.  1.
    9900012    2    1    2    0    0 -0.80411027870E+01  0.26879532792E+02  0.33112764261E+02  0.47787265281E+02  0.19999973721E+02 0.  0.
        -12    1    1    2    0    0  0.80411027870E+01 -0.26879532792E+02 -0.33112764261E+02  0.43400734719E+02  0.00000000000E+00 0.  1.
         11    1    3    3    0    0 -0.40840499530E+01  0.53330104082E+01  0.19639214472E+02  0.20756184846E+02  0.51100000000E-03 0. -1.
        -11    1    3    3    0    0  0.66285461341E+00 -0.31307189525E-01 -0.56974250228E+00  0.87462172318E+00  0.51100000000E-03 0.  1.
         12    1    3    3    0    0 -0.46199074474E+01  0.21577829574E+02  0.14043292292E+02  0.26156458711E+02  0.00000000000E+00 0. -1.
</event>
<event>
 7    1  0.2714068E-010  0.4778727E+02  0.7816164E-02  0.1312668E+00
        -11   -1    0    0    0    0  0.00000000000E+00  0.00000000000E+00  0.45593999997E+02  0.45594000000E+02  0.51100000000E-03 0.  1.
         11   -1    0    0    0    0 -0.00000000000E+00 -0.00000000000E+00 -0.45593999997E+02  0.45594000000E+02  0.51100000000E-03 0. -1.
    9900012    2    1    2    0    0  0.40455069034E+02  0.79841163000E+01 -0.13537536959E+02  0.47787266936E+02  0.19999981267E+02 0.  0.
        -12    1    1    2    0    0 -0.40455069034E+02 -0.79841163000E+01  0.13537536959E+02  0.43400733064E+02  0.00000000000E+00 0.  1.
         11    1    3    3    0    0  0.25406570244E+02 -0.27589304855E+01 -0.12532392536E+02  0.28463421649E+02  0.51100000000E-03 0. -1.
        -11    1    3    3    0    0  0.10646469099E+02  0.98919275428E+01 -0.21641944021E+01  0.14692898708E+02  0.51100000000E-03 0.  1.
        -12    1    3    3    0    0  0.44020296905E+01  0.85111924267E+00  0.11590499796E+01  0.46309465789E+01  0.00000000000E+00 0.  1.
</event>
<event>
 7    1  0.2714068E-010  0.4778727E+02  0.7816164E-02  0.1312668E+00
        -11   -1    0    0    0    0  0.00000000000E+00  0.00000000000E+00  0.45593999997E+02  0.45594000000E+02  0.51100000000E-03 0.  1.
         11   -1    0    0    0    0 -0.00000000000E+00 -0.00000000000E+00 -0.45593999997E+02  0.45594000000E+02  0.51100000000E-03 0. -1.
    9900012    2    1    2    0    0  0.41896202931E+02 -0.52231837056E+01 -0.10052355005E+02  0.47787270637E+02  0.19999998144E+02 0.  0.
        -12    1    1    2    0    0 -0.41896202931E+02  0.52231837056E+01  0.10052355005E+02  0.43400729363E+02  0.00000000000E+00 0.  1.
         11    1    3    3    0    0  0.35287097374E+02 -0.11503354189E+02 -0.76898166132E+01  0.37903029938E+02  0.51100000000E-03 0. -1.
        -11    1    3    3    0    0  0.14167416354E+01  0.24788064259E+01  0.39662898859E+00  0.28825254508E+01  0.51100000000E-03 0.  1.
         12    1    3    3    0    0  0.51923639214E+01  0.38013640572E+01 -0.27591673808E+01  0.70017152486E+01  0.00000000000E+00 0. -1.
</event>
<event>
 7    1  0.2714068E-010  0.4778727E+02  0.7816164E-02  0.1312668E+00
        -11   -1    0    0    0    0  0.00000000000E+00  0.00000000000E+00  0.45593999997E+02  0.45594000000E+02  0.51100000000E-03 0. -1.
         11   -1    0    0    0    0 -0.00000000000E+00 -0.00000000000E+00 -0.45593999997E+02  0.45594000000E+02  0.51100000000E-03 0.  1.
    9900012    2    1    2    0    0 -0.36594390083E+02  0.16216052102E+02 -0.16778371662E+02  0.47787268590E+02  0.19999988809E+02 0.  0.
        -12    1    1    2    0    0  0.36594390083E+02 -0.16216052102E+02  0.16778371662E+02  0.43400731410E+02  0.00000000000E+00 0.  1.
         11    1    3    3    0    0 -0.26810804878E+01  0.69446389760E+01 -0.47468187059E+01  0.88288442718E+01  0.51100000000E-03 0. -1.
        -11    1    3    3    0    0 -0.34140028526E+01  0.50750510632E+01 -0.33371433696E+01  0.69676455781E+01  0.51100000000E-03 0.  1.
         12    1    3    3    0    0 -0.30499306743E+02  0.41963620625E+01 -0.86944095863E+01  0.31990778740E+02  0.00000000000E+00 0. -1.
</event>
<event>
 7    1  0.2714068E-010  0.4778727E+02  0.7816164E-02  0.1312668E+00
        -11   -1    0    0    0    0  0.00000000000E+00  0.00000000000E+00  0.45593999997E+02  0.45594000000E+02  0.51100000000E-03 0.  1.
         11   -1    0    0    0    0 -0.00000000000E+00 -0.00000000000E+00 -0.45593999997E+02  0.45594000000E+02  0.51100000000E-03 0. -1.
    9900012    2    1    2    0    0 -0.74084493049E+01  0.17485620182E+02 -0.39025521093E+02  0.47787270389E+02  0.19999997010E+02 0.  0.
        -12    1    1    2    0    0  0.74084493049E+01 -0.17485620182E+02  0.39025521093E+02  0.43400729611E+02  0.00000000000E+00 0.  1.
         11    1    3    3    0    0  0.53295401544E-01 -0.33658051321E+01 -0.59829911186E+01  0.68649594007E+01  0.51100000000E-03 0. -1.
        -11    1    3    3    0    0 -0.15765810543E+01  0.18970478781E+00 -0.69221808270E+01  0.71019844685E+01  0.51100000000E-03 0.  1.
         12    1    3    3    0    0 -0.58851636521E+01  0.20661720526E+02 -0.26120349147E+02  0.33820326519E+02  0.00000000000E+00 0. -1.
</event>
<event>
 7    1  0.2714068E-010  0.4778727E+02  0.7816164E-02  0.1312668E+00
        -11   -1    0    0    0    0  0.00000000000E+00  0.00000000000E+00  0.45593999997E+02  0.45594000000E+02  0.51100000000E-03 0.  1.
         11   -1    0    0    0    0 -0.00000000000E+00 -0.00000000000E+00 -0.45593999997E+02  0.45594000000E+02  0.51100000000E-03 0. -1.
    9900012    2    1    2    0    0  0.40956692762E+02 -0.11533944635E+02 -0.85522374088E+01  0.47787270450E+02  0.19999997288E+02 0.  0.
        -12    1    1    2    0    0 -0.40956692762E+02  0.11533944635E+02  0.85522374088E+01  0.43400729550E+02  0.00000000000E+00 0.  1.
         11    1    3    3    0    0  0.22101832194E+02 -0.11729690965E+02  0.27299109157E+01  0.25170002986E+02  0.51100000000E-03 0. -1.
        -11    1    3    3    0    0  0.13931154720E+02 -0.21365996104E+01 -0.89160686103E+01  0.16677482108E+02  0.51100000000E-03 0.  1.
         12    1    3    3    0    0  0.49237058481E+01  0.23323459403E+01 -0.23660797142E+01  0.59397853562E+01  0.00000000000E+00 0. -1.
</event>
<event>
 7    1  0.2714068E-010  0.4778727E+02  0.7816164E-02  0.1312668E+00
        -11   -1    0    0    0    0  0.00000000000E+00  0.00000000000E+00  0.45593999997E+02  0.45594000000E+02  0.51100000000E-03 0.  1.
         11   -1    0    0    0    0 -0.00000000000E+00 -0.00000000000E+00 -0.45593999997E+02  0.45594000000E+02  0.51100000000E-03 0. -1.
    9900012    2    1    2    0    0 -0.33421209566E+02  0.27681608911E+02 -0.61209238630E+00  0.47787269847E+02  0.19999994540E+02 0.  0.
        -12    1    1    2    0    0  0.33421209566E+02 -0.27681608911E+02  0.61209238630E+00  0.43400730153E+02  0.00000000000E+00 0.  1.
         11    1    3    3    0    0 -0.10853447889E+02  0.21486767802E+02  0.19874614339E+01  0.24154265148E+02  0.51100000000E-03 0. -1.
        -11    1    3    3    0    0 -0.16745764274E+01 -0.57074741836E-01 -0.53951503491E-01  0.16764172401E+01  0.51100000000E-03 0.  1.
         12    1    3    3    0    0 -0.20893185249E+02  0.62519158509E+01 -0.25456023167E+01  0.21956587458E+02  0.00000000000E+00 0. -1.
</event>
<event>
 7    1  0.2714068E-010  0.4778728E+02  0.7816164E-02  0.1312668E+00
        -11   -1    0    0    0    0  0.00000000000E+00  0.00000000000E+00  0.45593999997E+02  0.45594000000E+02  0.51100000000E-03 0.  1.
         11   -1    0    0    0    0 -0.00000000000E+00 -0.00000000000E+00 -0.45593999997E+02  0.45594000000E+02  0.51100000000E-03 0. -1.
    9900012    2    1    2    0    0  0.29477032655E+02 -0.22926639720E+02 -0.22115514393E+02  0.47787282957E+02  0.20000054313E+02 0.  0.
        -12    1    1    2    0    0 -0.29477032655E+02  0.22926639720E+02  0.22115514393E+02  0.43400717043E+02  0.00000000000E+00 0.  1.
         11    1    3    3    0    0  0.24950752456E+02 -0.24518710074E+02 -0.19529282312E+02  0.40063700025E+02  0.51100000000E-03 0. -1.
        -11    1    3    3    0    0  0.13895394066E+01  0.23404194279E+01 -0.34410913919E+01  0.43874244255E+01  0.51100000000E-03 0.  1.
        -12    1    3    3    0    0  0.31367407925E+01 -0.74834907409E+00  0.85485931128E+00  0.33361585062E+01  0.00000000000E+00 0.  1.
</event>
<event>
 7    1  0.2714068E-010  0.4778726E+02  0.7816164E-02  0.1312668E+00
        -11   -1    0    0    0    0  0.00000000000E+00  0.00000000000E+00  0.45593999997E+02  0.45594000000E+02  0.51100000000E-03 0.  1.
         11   -1    0    0    0    0 -0.00000000000E+00 -0.00000000000E+00 -0.45593999997E+02  0.45594000000E+02  0.51100000000E-03 0. -1.
    9900012    2    1    2    0    0 -0.75874788201E+01  0.36217930949E+02 -0.22678526901E+02  0.47787263377E+02  0.19999965039E+02 0.  0.
        -12    1    1    2    0    0  0.75874788201E+01 -0.36217930949E+02  0.22678526901E+02  0.43400736623E+02  0.00000000000E+00 0.  1.
         11    1    3    3    0    0 -0.40204983246E+01  0.22541563341E+02 -0.37283422510E+01  0.23198858180E+02  0.51100000000E-03 0. -1.
        -11    1    3    3    0    0 -0.19215517790E+01  0.26463404432E+01 -0.92388646654E+01  0.98006173044E+01  0.51100000000E-03 0.  1.
        -12    1    3    3    0    0 -0.16454287165E+01  0.11030027165E+02 -0.97113199846E+01  0.14787787893E+02  0.00000000000E+00 0.  1.
</event>
<event>
 7    1  0.2714068E-010  0.4778727E+02  0.7816164E-02  0.1312668E+00
        -11   -1    0    0    0    0  0.00000000000E+00  0.00000000000E+00  0.45593999997E+02  0.45594000000E+02  0.51100000000E-03 0.  1.
         11   -1    0    0    0    0 -0.00000000000E+00 -0.00000000000E+00 -0.45593999997E+02  0.45594000000E+02  0.51100000000E-03 0. -1.
    9900012    2    1    2    0    0  0.37678617586E+02 -0.12467516164E+02  0.17564344915E+02  0.47787269651E+02  0.19999993648E+02 0.  0.
        -12    1    1    2    0    0 -0.37678617586E+02  0.12467516164E+02 -0.17564344915E+02  0.43400730349E+02  0.00000000000E+00 0.  1.
         11    1    3    3    0    0  0.17651482632E+02 -0.82555980924E+01  0.24939787657E+00  0.19488251295E+02  0.51100000000E-03 0. -1.
        -11    1    3    3    0    0  0.57455849203E+00  0.94197943859E+00  0.40476772034E+01  0.41953705113E+01  0.51100000000E-03 0.  1.
        -12    1    3    3    0    0  0.19452576462E+02 -0.51538975101E+01  0.13267269835E+02  0.24103647845E+02  0.00000000000E+00 0.  1.
</event>
<event>
 7    1  0.2714068E-010  0.4778727E+02  0.7816164E-02  0.1312668E+00
        -11   -1    0    0    0    0  0.00000000000E+00  0.00000000000E+00  0.45593999997E+02  0.45594000000E+02  0.51100000000E-03 0.  1.
         11   -1    0    0    0    0 -0.00000000000E+00 -0.00000000000E+00 -0.45593999997E+02  0.45594000000E+02  0.51100000000E-03 0. -1.
    9900012    2    1    2    0    0 -0.11669674280E+02  0.32700415371E+02 -0.26040829476E+02  0.47787271169E+02  0.20000000568E+02 0.  0.
        -12    1    1    2    0    0  0.11669674280E+02 -0.32700415371E+02  0.26040829476E+02  0.43400728831E+02  0.00000000000E+00 0.  1.
         11    1    3    3    0    0 -0.39993180754E+01  0.17784295580E+02 -0.61292358802E+01  0.19231309032E+02  0.51100000000E-03 0. -1.
        -11    1    3    3    0    0 -0.23226338722E+01  0.50692953624E+01  0.14898016722E+00  0.55780443640E+01  0.51100000000E-03 0.  1.
         12    1    3    3    0    0 -0.53477223321E+01  0.98468244289E+01 -0.20060573763E+02  0.22977917773E+02  0.00000000000E+00 0. -1.
</event>
<event>
 7    1  0.2714068E-010  0.4778727E+02  0.7816164E-02  0.1312668E+00
        -11   -1    0    0    0    0  0.00000000000E+00  0.00000000000E+00  0.45593999997E+02  0.45594000000E+02  0.51100000000E-03 0. -1.
         11   -1    0    0    0    0 -0.00000000000E+00 -0.00000000000E+00 -0.45593999997E+02  0.45594000000E+02  0.51100000000E-03 0.  1.
    9900012    2    1    2    0    0  0.13229930348E+02 -0.39735070863E+02 -0.11389330736E+02  0.47787265350E+02  0.19999974038E+02 0.  0.
        -12    1    1    2    0    0 -0.13229930348E+02  0.39735070863E+02  0.11389330736E+02  0.43400734650E+02  0.00000000000E+00 0.  1.
         11    1    3    3    0    0 -0.43819035336E-01 -0.18688902074E+02  0.24670619863E+01  0.18851084212E+02  0.51100000000E-03 0. -1.
        -11    1    3    3    0    0  0.67220518208E+01 -0.70064412242E+01 -0.71277631927E+01  0.12044966073E+02  0.51100000000E-03 0.  1.
        -12    1    3    3    0    0  0.65516975629E+01 -0.14039727565E+02 -0.67286295292E+01  0.16891215065E+02  0.00000000000E+00 0.  1.
</event>
<event>
 7    1  0.2714068E-010  0.4778726E+02  0.7816164E-02  0.1312668E+00
        -11   -1    0    0    0    0  0.00000000000E+00  0.00000000000E+00  0.45593999997E+02  0.45594000000E+02  0.51100000000E-03 0.  1.
         11   -1    0    0    0    0 -0.00000000000E+00 -0.00000000000E+00 -0.45593999997E+02  0.45594000000E+02  0.51100000000E-03 0. -1.
    9900012    2    1    2    0    0  0.84944874154E+01  0.29863143815E+02 -0.30325900643E+02  0.47787263546E+02  0.19999965811E+02 0.  0.
        -12    1    1    2    0    0 -0.84944874154E+01 -0.29863143815E+02  0.30325900643E+02  0.43400736454E+02  0.00000000000E+00 0.  1.
         11    1    3    3    0    0  0.54493165387E+01  0.19587788017E+02 -0.28377514775E+02  0.34909308718E+02  0.51100000000E-03 0. -1.
        -11    1    3    3    0    0  0.97825043879E+00 -0.20270904097E+00 -0.19578058524E+01  0.21979692657E+01  0.51100000000E-03 0.  1.
         12    1    3    3    0    0  0.20669204379E+01  0.10478064839E+02  0.94199842367E-02  0.10679985562E+02  0.00000000000E+00 0. -1.
</event>
<event>
 7    1  0.2714068E-010  0.4778728E+02  0.7816164E-02  0.1312668E+00
        -11   -1    0    0    0    0  0.00000000000E+00  0.00000000000E+00  0.45593999997E+02  0.45594000000E+02  0.51100000000E-03 0. -1.
         11   -1    0    0    0    0 -0.00000000000E+00 -0.00000000000E+00 -0.45593999997E+02  0.45594000000E+02  0.51100000000E-03 0.  1.
    9900012    2    1    2    0    0 -0.15199209022E+02  0.22581008582E+02  0.33803907775E+02  0.47787284749E+02  0.20000062482E+02 0.  0.
        -12    1    1    2    0    0  0.15199209022E+02 -0.22581008582E+02 -0.33803907775E+02  0.43400715251E+02  0.00000000000E+00 0.  1.
         11    1    3    3    0    0  0.35794772236E+00  0.87904544398E+01  0.15355426849E+02  0.17697156546E+02  0.51100000000E-03 0. -1.
        -11    1    3    3    0    0 -0.12237810328E+02  0.66326480227E+01  0.55821558981E+01  0.14997215947E+02  0.51100000000E-03 0.  1.
        -12    1    3    3    0    0 -0.33193464166E+01  0.71579061198E+01  0.12866325027E+02  0.15092912256E+02  0.00000000000E+00 0.  1.
</event>
<event>
 7    1  0.2714068E-010  0.4778727E+02  0.7816164E-02  0.1312668E+00
        -11   -1    0    0    0    0  0.00000000000E+00  0.00000000000E+00  0.45593999997E+02  0.45594000000E+02  0.51100000000E-03 0. -1.
         11   -1    0    0    0    0 -0.00000000000E+00 -0.00000000000E+00 -0.45593999997E+02  0.45594000000E+02  0.51100000000E-03 0.  1.
    9900012    2    1    2    0    0 -0.43331578313E+02 -0.55078467404E+00  0.23862963231E+01  0.47787268981E+02  0.19999990593E+02 0.  0.
        -12    1    1    2    0    0  0.43331578313E+02  0.55078467404E+00 -0.23862963231E+01  0.43400731019E+02  0.00000000000E+00 0.  1.
         11    1    3    3    0    0 -0.41063406678E+01 -0.62200782327E+01 -0.69485417641E+00  0.74856014781E+01  0.51100000000E-03 0. -1.
        -11    1    3    3    0    0 -0.56298083903E+01  0.24424278165E+01  0.22659843558E+01  0.65417796900E+01  0.51100000000E-03 0.  1.
         12    1    3    3    0    0 -0.33595429255E+02  0.32268657423E+01  0.81516614368E+00  0.33759887813E+02  0.00000000000E+00 0. -1.
</event>
<event>
 7    1  0.2714068E-010  0.4778727E+02  0.7816164E-02  0.1312668E+00
        -11   -1    0    0    0    0  0.00000000000E+00  0.00000000000E+00  0.45593999997E+02  0.45594000000E+02  0.51100000000E-03 0.  1.
         11   -1    0    0    0    0 -0.00000000000E+00 -0.00000000000E+00 -0.45593999997E+02  0.45594000000E+02  0.51100000000E-03 0. -1.
    9900012    2    1    2    0    0  0.19434533071E+02 -0.30096963420E+02 -0.24496833575E+02  0.47787272610E+02  0.20000007137E+02 0.  0.
        -12    1    1    2    0    0 -0.19434533071E+02  0.30096963420E+02  0.24496833575E+02  0.43400727390E+02  0.00000000000E+00 0.  1.
         11    1    3    3    0    0  0.13091597340E+02 -0.14349107594E+02 -0.92473815316E+01  0.21512807234E+02  0.51100000000E-03 0. -1.
        -11    1    3    3    0    0 -0.31077262149E+01 -0.32463720948E+01 -0.12645893511E+00  0.44958743452E+01  0.51100000000E-03 0.  1.
        -12    1    3    3    0    0  0.94506619461E+01 -0.12501483731E+02 -0.15122993109E+02  0.21778591030E+02  0.00000000000E+00 0.  1.
</event>
<event>
 7    1  0.2714068E-010  0.4778727E+02  0.7816164E-02  0.1312668E+00
        -11   -1    0    0    0    0  0.00000000000E+00  0.00000000000E+00  0.45593999997E+02  0.45594000000E+02  0.51100000000E-03 0.  1.
         11   -1    0    0    0    0 -0.00000000000E+00 -0.00000000000E+00 -0.45593999997E+02  0.45594000000E+02  0.51100000000E-03 0. -1.
    9900012    2    1    2    0    0 -0.31999127813E+02 -0.25844416085E+02  0.13847208780E+02  0.47787271728E+02  0.20000003115E+02 0.  0.
        -12    1    1    2    0    0  0.31999127813E+02  0.25844416085E+02 -0.13847208780E+02  0.43400728272E+02  0.00000000000E+00 0.  1.
         11    1    3    3    0    0 -0.25105273877E+02 -0.14573308753E+02  0.79812122801E+01  0.30105744538E+02  0.51100000000E-03 0. -1.
        -11    1    3    3    0    0  0.81318909764E+00 -0.56247177394E+01 -0.11873758877E+01  0.58059097407E+01  0.51100000000E-03 0.  1.
         12    1    3    3    0    0 -0.77070430330E+01 -0.56463895928E+01  0.70533723881E+01  0.11875617449E+02  0.00000000000E+00 0. -1.
</event>
<event>
 7    1  0.2714068E-010  0.4778727E+02  0.7816164E-02  0.1312668E+00
        -11   -1    0    0    0    0  0.00000000000E+00  0.00000000000E+00  0.45593999997E+02  0.45594000000E+02  0.51100000000E-03 0.  1.
         11   -1    0    0    0    0 -0.00000000000E+00 -0.00000000000E+00 -0.45593999997E+02  0.45594000000E+02  0.51100000000E-03 0. -1.
    9900012    2    1    2    0    0 -0.53737624087E+01 -0.16186255835E+02 -0.39909286218E+02  0.47787270434E+02  0.19999997218E+02 0.  0.
        -12    1    1    2    0    0  0.53737624087E+01  0.16186255835E+02  0.39909286218E+02  0.43400729566E+02  0.00000000000E+00 0.  1.
         11    1    3    3    0    0 -0.65317499412E+01 -0.17695790142E+02 -0.33020117098E+02  0.38028053848E+02  0.51100000000E-03 0. -1.
        -11    1    3    3    0    0 -0.25680022434E+01  0.16507103939E+01 -0.40550496036E+01  0.50757174740E+01  0.51100000000E-03 0.  1.
         12    1    3    3    0    0  0.37259897760E+01 -0.14117608652E+00 -0.28341195170E+01  0.46834991123E+01  0.00000000000E+00 0. -1.
</event>
<event>
 7    1  0.2714068E-010  0.4778727E+02  0.7816164E-02  0.1312668E+00
        -11   -1    0    0    0    0  0.00000000000E+00  0.00000000000E+00  0.45593999997E+02  0.45594000000E+02  0.51100000000E-03 0. -1.
         11   -1    0    0    0    0 -0.00000000000E+00 -0.00000000000E+00 -0.45593999997E+02  0.45594000000E+02  0.51100000000E-03 0.  1.
    9900012    2    1    2    0    0  0.24763071271E+02 -0.34380379144E+02  0.94022855717E+01  0.47787272555E+02  0.20000006885E+02 0.  0.
        -12    1    1    2    0    0 -0.24763071271E+02  0.34380379144E+02 -0.94022855717E+01  0.43400727445E+02  0.00000000000E+00 0.  1.
         11    1    3    3    0    0  0.63150432424E+01 -0.27715387381E+01  0.86610644979E+00  0.69506358539E+01  0.51100000000E-03 0. -1.
        -11    1    3    3    0    0  0.20697996804E+02 -0.23774083542E+02  0.48580849616E+01  0.31893809896E+02  0.51100000000E-03 0.  1.
        -12    1    3    3    0    0 -0.22499687753E+01 -0.78347568638E+01  0.36780941603E+01  0.89428268046E+01  0.00000000000E+00 0.  1.
</event>
<event>
 7    1  0.2714068E-010  0.4778727E+02  0.7816164E-02  0.1312668E+00
        -11   -1    0    0    0    0  0.00000000000E+00  0.00000000000E+00  0.45593999997E+02  0.45594000000E+02  0.51100000000E-03 0.  1.
         11   -1    0    0    0    0 -0.00000000000E+00 -0.00000000000E+00 -0.45593999997E+02  0.45594000000E+02  0.51100000000E-03 0. -1.
    9900012    2    1    2    0    0 -0.34678212117E+02  0.10316579978E+02 -0.23971087194E+02  0.47787271442E+02  0.20000001815E+02 0.  0.
        -12    1    1    2    0    0  0.34678212117E+02 -0.10316579978E+02  0.23971087194E+02  0.43400728558E+02  0.00000000000E+00 0.  1.
         11    1    3    3    0    0 -0.23997926399E+02  0.82726361155E+01 -0.10249900630E+02  0.27375124528E+02  0.51100000000E-03 0. -1.
        -11    1    3    3    0    0 -0.62902314938E+00 -0.26585109637E-01 -0.91604176452E+01  0.91820274768E+01  0.51100000000E-03 0.  1.
        -12    1    3    3    0    0 -0.10051262568E+02  0.20705289717E+01 -0.45607689195E+01  0.11230119437E+02  0.00000000000E+00 0.  1.
</event>
<event>
 7    1  0.2714068E-010  0.4778727E+02  0.7816164E-02  0.1312668E+00
        -11   -1    0    0    0    0  0.00000000000E+00  0.00000000000E+00  0.45593999997E+02  0.45594000000E+02  0.51100000000E-03 0.  1.
         11   -1    0    0    0    0 -0.00000000000E+00 -0.00000000000E+00 -0.45593999997E+02  0.45594000000E+02  0.51100000000E-03 0. -1.
    9900012    2    1    2    0    0 -0.22272315342E+02 -0.21531814260E+02 -0.30396513843E+02  0.47787272934E+02  0.20000008616E+02 0.  0.
        -12    1    1    2    0    0  0.22272315342E+02  0.21531814260E+02  0.30396513843E+02  0.43400727066E+02  0.00000000000E+00 0.  1.
         11    1    3    3    0    0 -0.18979378540E+02 -0.12419365631E+02 -0.18875411884E+02  0.29508280643E+02  0.51100000000E-03 0. -1.
        -11    1    3    3    0    0 -0.36195972993E+01  0.79962538068E+00 -0.10410290095E+01  0.38502762262E+01  0.51100000000E-03 0.  1.
         12    1    3    3    0    0  0.32666049703E+00 -0.99120740097E+01 -0.10480072950E+02  0.14428716065E+02  0.00000000000E+00 0. -1.
</event>
<event>
 7    1  0.2714068E-010  0.4778727E+02  0.7816164E-02  0.1312668E+00
        -11   -1    0    0    0    0  0.00000000000E+00  0.00000000000E+00  0.45593999997E+02  0.45594000000E+02  0.51100000000E-03 0. -1.
         11   -1    0    0    0    0 -0.00000000000E+00 -0.00000000000E+00 -0.45593999997E+02  0.45594000000E+02  0.51100000000E-03 0.  1.
    9900012    2    1    2    0    0  0.15910991146E+02  0.40360560322E+02  0.12201014041E+01  0.47787272861E+02  0.20000008281E+02 0.  0.
        -12    1    1    2    0    0 -0.15910991146E+02 -0.40360560322E+02 -0.12201014041E+01  0.43400727139E+02  0.00000000000E+00 0.  1.
         11    1    3    3    0    0  0.57495521356E+01  0.48130978482E+01 -0.40818990573E+01  0.85372806461E+01  0.51100000000E-03 0. -1.
        -11    1    3    3    0    0  0.23313911330E+01  0.21941970469E+02  0.76994810954E+01  0.23370225974E+02  0.51100000000E-03 0.  1.
        -12    1    3    3    0    0  0.78300478778E+01  0.13605492005E+02 -0.23974806341E+01  0.15879766240E+02  0.00000000000E+00 0.  1.
</event>
<event>
 7    1  0.2714068E-010  0.4778729E+02  0.7816164E-02  0.1312668E+00
        -11   -1    0    0    0    0  0.00000000000E+00  0.00000000000E+00  0.45593999997E+02  0.45594000000E+02  0.51100000000E-03 0. -1.
         11   -1    0    0    0    0 -0.00000000000E+00 -0.00000000000E+00 -0.45593999997E+02  0.45594000000E+02  0.51100000000E-03 0.  1.
    9900012    2    1    2    0    0  0.12653180410E+02  0.41335840484E+02 -0.38558101592E+01  0.47787286238E+02  0.20000069274E+02 0.  0.
        -12    1    1    2    0    0 -0.12653180410E+02 -0.41335840484E+02  0.38558101592E+01  0.43400713762E+02  0.00000000000E+00 0.  1.
         11    1    3    3    0    0  0.31068850222E+01  0.19720182670E+02  0.43407365580E+01  0.20429888233E+02  0.51100000000E-03 0. -1.
        -11    1    3    3    0    0  0.27950992804E+01  0.12035471044E+02 -0.94713113113E+01  0.15568265204E+02  0.51100000000E-03 0.  1.
        -12    1    3    3    0    0  0.67511961078E+01  0.95801867707E+01  0.12747645942E+01  0.11789132802E+02  0.00000000000E+00 0.  1.
</event>
<event>
 7    1  0.2714068E-010  0.4778726E+02  0.7816164E-02  0.1312668E+00
        -11   -1    0    0    0    0  0.00000000000E+00  0.00000000000E+00  0.45593999997E+02  0.45594000000E+02  0.51100000000E-03 0.  1.
         11   -1    0    0    0    0 -0.00000000000E+00 -0.00000000000E+00 -0.45593999997E+02  0.45594000000E+02  0.51100000000E-03 0. -1.
    9900012    2    1    2    0    0  0.42819774266E+02  0.51340125432E+00  0.70588357124E+01  0.47787264860E+02  0.19999971804E+02 0.  0.
        -12    1    1    2    0    0 -0.42819774266E+02 -0.51340125432E+00 -0.70588357124E+01  0.43400735140E+02  0.00000000000E+00 0.  1.
         11    1    3    3    0    0  0.24712707240E+02  0.14066057422E+01 -0.63759607579E+00  0.24760916136E+02  0.51100000000E-03 0. -1.
        -11    1    3    3    0    0  0.73133869229E+01 -0.51292591413E+01  0.71089659425E+01  0.11416318349E+02  0.51100000000E-03 0.  1.
        -12    1    3    3    0    0  0.10793680103E+02  0.42360546534E+01  0.58746584569E+00  0.11610030375E+02  0.00000000000E+00 0.  1.
</event>
<event>
 7    1  0.2714068E-010  0.4778727E+02  0.7816164E-02  0.1312668E+00
        -11   -1    0    0    0    0  0.00000000000E+00  0.00000000000E+00  0.45593999997E+02  0.45594000000E+02  0.51100000000E-03 0. -1.
         11   -1    0    0    0    0 -0.00000000000E+00 -0.00000000000E+00 -0.45593999997E+02  0.45594000000E+02  0.51100000000E-03 0.  1.
    9900012    2    1    2    0    0  0.87959466509E+00  0.22552254405E+02  0.37070819164E+02  0.47787268451E+02  0.19999988177E+02 0.  0.
        -12    1    1    2    0    0 -0.87959466509E+00 -0.22552254405E+02 -0.37070819164E+02  0.43400731549E+02  0.00000000000E+00 0.  1.
         11    1    3    3    0    0 -0.46574283928E+01  0.82414821391E+01  0.80871098591E+01  0.12450502529E+02  0.51100000000E-03 0. -1.
        -11    1    3    3    0    0  0.92086015107E+01  0.12649868295E+02  0.19283852637E+02  0.24833132755E+02  0.51100000000E-03 0.  1.
        -12    1    3    3    0    0 -0.36715784528E+01  0.16609039704E+01  0.96998566680E+01  0.10503633167E+02  0.00000000000E+00 0.  1.
</event>
<event>
 7    1  0.2714068E-010  0.4778727E+02  0.7816164E-02  0.1312668E+00
        -11   -1    0    0    0    0  0.00000000000E+00  0.00000000000E+00  0.45593999997E+02  0.45594000000E+02  0.51100000000E-03 0. -1.
         11   -1    0    0    0    0 -0.00000000000E+00 -0.00000000000E+00 -0.45593999997E+02  0.45594000000E+02  0.51100000000E-03 0.  1.
    9900012    2    1    2    0    0 -0.36993265299E+02 -0.37423068917E+01  0.22385643393E+02  0.47787267651E+02  0.19999984526E+02 0.  0.
        -12    1    1    2    0    0  0.36993265299E+02  0.37423068917E+01 -0.22385643393E+02  0.43400732349E+02  0.00000000000E+00 0.  1.
         11    1    3    3    0    0 -0.20759697653E+02  0.72543906209E+01  0.88623296288E+01  0.23709325521E+02  0.51100000000E-03 0. -1.
        -11    1    3    3    0    0 -0.83794816359E+01 -0.47503237534E+01  0.85429652105E+01  0.12874919149E+02  0.51100000000E-03 0.  1.
         12    1    3    3    0    0 -0.78540860096E+01 -0.62463737592E+01  0.49803485537E+01  0.11203022981E+02  0.00000000000E+00 0. -1.
</event>
<event>
 7    1  0.2714068E-010  0.4778728E+02  0.7816164E-02  0.1312668E+00
        -11   -1    0    0    0    0  0.00000000000E+00  0.00000000000E+00  0.45593999997E+02  0.45594000000E+02  0.51100000000E-03 0.  1.
         11   -1    0    0    0    0 -0.00000000000E+00 -0.00000000000E+00 -0.45593999997E+02  0.45594000000E+02  0.51100000000E-03 0. -1.
    9900012    2    1    2    0    0 -0.33508971769E+02 -0.34591927560E+01 -0.27364312862E+02  0.47787276251E+02  0.20000023738E+02 0.  0.
        -12    1    1    2    0    0  0.33508971769E+02  0.34591927560E+01  0.27364312862E+02  0.43400723749E+02  0.00000000000E+00 0.  1.
         11    1    3    3    0    0 -0.24862606639E+02 -0.24757838064E+01 -0.80611612611E+01  0.26253781356E+02  0.51100000000E-03 0.  1.
        -11    1    3    3    0    0 -0.25864896093E+01 -0.91835983477E+00 -0.26634164230E+01  0.38245392648E+01  0.51100000000E-03 0. -1.
         12    1    3    3    0    0 -0.60598755203E+01 -0.65049114826E-01 -0.16639735178E+02  0.17708955630E+02  0.00000000000E+00 0. -1.
</event>
<event>
 7    1  0.2714068E-010  0.4778727E+02  0.7816164E-02  0.1312668E+00
        -11   -1    0    0    0    0  0.00000000000E+00  0.00000000000E+00  0.45593999997E+02  0.45594000000E+02  0.51100000000E-03 0.  1.
         11   -1    0    0    0    0 -0.00000000000E+00 -0.00000000000E+00 -0.45593999997E+02  0.45594000000E+02  0.51100000000E-03 0. -1.
    9900012    2    1    2    0    0 -0.50275323105E+01  0.41790036742E+02  0.10580168666E+02  0.47787271654E+02  0.20000002777E+02 0.  0.
        -12    1    1    2    0    0  0.50275323105E+01 -0.41790036742E+02 -0.10580168666E+02  0.43400728346E+02  0.00000000000E+00 0.  1.
         11    1    3    3    0    0 -0.34914211826E+01  0.22640863155E+02 -0.23369772709E+01  0.23027378689E+02  0.51100000000E-03 0. -1.
        -11    1    3    3    0    0 -0.29316541397E+01  0.19368177763E+02  0.11306922106E+02  0.22617855638E+02  0.51100000000E-03 0.  1.
         12    1    3    3    0    0  0.13955430118E+01 -0.21900417605E+00  0.16102238301E+01  0.21420373269E+01  0.00000000000E+00 0. -1.
</event>
<event>
 7    1  0.2714068E-010  0.4778728E+02  0.7816164E-02  0.1312668E+00
        -11   -1    0    0    0    0  0.00000000000E+00  0.00000000000E+00  0.45593999997E+02  0.45594000000E+02  0.51100000000E-03 0. -1.
         11   -1    0    0    0    0 -0.00000000000E+00 -0.00000000000E+00 -0.45593999997E+02  0.45594000000E+02  0.51100000000E-03 0.  1.
    9900012    2    1    2    0    0  0.29592422706E+02 -0.31584555185E+02 -0.32135203703E+01  0.47787282021E+02  0.20000050048E+02 0.  0.
        -12    1    1    2    0    0 -0.29592422706E+02  0.31584555185E+02  0.32135203703E+01  0.43400717979E+02  0.00000000000E+00 0.  1.
         11    1    3    3    0    0  0.33136878505E+01 -0.29105844241E+01 -0.65442336037E+01  0.78917059361E+01  0.51100000000E-03 0. -1.
        -11    1    3    3    0    0  0.51076789465E+01 -0.16031414651E+01  0.10364497942E+01  0.54527676655E+01  0.51100000000E-03 0.  1.
         12    1    3    3    0    0  0.21171055909E+02 -0.27070829296E+02  0.22942634392E+01  0.34442808420E+02  0.00000000000E+00 0. -1.
</event>
<event>
 7    1  0.2714068E-010  0.4778727E+02  0.7816164E-02  0.1312668E+00
        -11   -1    0    0    0    0  0.00000000000E+00  0.00000000000E+00  0.45593999997E+02  0.45594000000E+02  0.51100000000E-03 0.  1.
         11   -1    0    0    0    0 -0.00000000000E+00 -0.00000000000E+00 -0.45593999997E+02  0.45594000000E+02  0.51100000000E-03 0. -1.
    9900012    2    1    2    0    0 -0.19592382504E+01  0.19489779486E+02 -0.38728968182E+02  0.47787273101E+02  0.20000009377E+02 0.  0.
        -12    1    1    2    0    0  0.19592382504E+01 -0.19489779486E+02  0.38728968182E+02  0.43400726899E+02  0.00000000000E+00 0.  1.
         11    1    3    3    0    0 -0.13751498178E+01  0.18914908036E+01 -0.86168940278E+01  0.89285854103E+01  0.51100000000E-03 0. -1.
        -11    1    3    3    0    0 -0.58992963603E+01  0.18207334222E+02 -0.22252165854E+02  0.29350768346E+02  0.51100000000E-03 0.  1.
        -12    1    3    3    0    0  0.53152079276E+01 -0.60904554039E+00 -0.78599082999E+01  0.95079193448E+01  0.00000000000E+00 0.  1.
</event>
<event>
 7    1  0.2714068E-010  0.4778727E+02  0.7816164E-02  0.1312668E+00
        -11   -1    0    0    0    0  0.00000000000E+00  0.00000000000E+00  0.45593999997E+02  0.45594000000E+02  0.51100000000E-03 0. -1.
         11   -1    0    0    0    0 -0.00000000000E+00 -0.00000000000E+00 -0.45593999997E+02  0.45594000000E+02  0.51100000000E-03 0.  1.
    9900012    2    1    2    0    0  0.22575227228E+02 -0.34638414003E+02  0.13197064787E+02  0.47787272724E+02  0.20000007660E+02 0.  0.
        -12    1    1    2    0    0 -0.22575227228E+02  0.34638414003E+02 -0.13197064787E+02  0.43400727276E+02  0.00000000000E+00 0.  1.
         11    1    3    3    0    0  0.66100888429E+01 -0.18547671224E+02  0.33078871130E+01  0.19966259033E+02  0.51100000000E-03 0. -1.
        -11    1    3    3    0    0  0.14905708643E+02 -0.72419822304E+01  0.90177920262E+01  0.18866558512E+02  0.51100000000E-03 0.  1.
        -12    1    3    3    0    0  0.10594297418E+01 -0.88487605487E+01  0.87138564809E+00  0.89544551802E+01  0.00000000000E+00 0.  1.
</event>
<event>
 7    1  0.2714068E-010  0.4778727E+02  0.7816164E-02  0.1312668E+00
        -11   -1    0    0    0    0  0.00000000000E+00  0.00000000000E+00  0.45593999997E+02  0.45594000000E+02  0.51100000000E-03 0.  1.
         11   -1    0    0    0    0 -0.00000000000E+00 -0.00000000000E+00 -0.45593999997E+02  0.45594000000E+02  0.51100000000E-03 0. -1.
    9900012    2    1    2    0    0 -0.11242672471E+02 -0.33324123582E+02 -0.25430855253E+02  0.47787270794E+02  0.19999998856E+02 0.  0.
        -12    1    1    2    0    0  0.11242672471E+02  0.33324123582E+02  0.25430855253E+02  0.43400729206E+02  0.00000000000E+00 0.  1.
         11    1    3    3    0    0 -0.11436454325E+02 -0.22426298883E+02 -0.21446227968E+02  0.33070713077E+02  0.51100000000E-03 0. -1.
        -11    1    3    3    0    0  0.16585499494E+01  0.81633669661E+00  0.75295612031E+00  0.19960302395E+01  0.51100000000E-03 0.  1.
         12    1    3    3    0    0 -0.14647680949E+01 -0.11714161396E+02 -0.47375834048E+01  0.12720527477E+02  0.00000000000E+00 0. -1.
</event>
<event>
 7    1  0.2714068E-010  0.4778727E+02  0.7816164E-02  0.1312668E+00
        -11   -1    0    0    0    0  0.00000000000E+00  0.00000000000E+00  0.45593999997E+02  0.45594000000E+02  0.51100000000E-03 0. -1.
         11   -1    0    0    0    0 -0.00000000000E+00 -0.00000000000E+00 -0.45593999997E+02  0.45594000000E+02  0.51100000000E-03 0.  1.
    9900012    2    1    2    0    0  0.27323919705E+01 -0.79073145571E+01  0.42586753871E+02  0.47787271958E+02  0.20000004163E+02 0.  0.
        -12    1    1    2    0    0 -0.27323919705E+01  0.79073145571E+01 -0.42586753871E+02  0.43400728042E+02  0.00000000000E+00 0.  1.
         11    1    3    3    0    0 -0.41942794766E+01  0.20212736996E+01  0.32423788151E+01  0.56736715043E+01  0.51100000000E-03 0. -1.
        -11    1    3    3    0    0  0.35361081852E+01 -0.25020693340E+01  0.42005118747E+01  0.60339632349E+01  0.51100000000E-03 0.  1.
         12    1    3    3    0    0  0.33905632618E+01 -0.74265189228E+01  0.35143863181E+02  0.36079637218E+02  0.00000000000E+00 0. -1.
</event>
<event>
 7    1  0.2714068E-010  0.4778726E+02  0.7816164E-02  0.1312668E+00
        -11   -1    0    0    0    0  0.00000000000E+00  0.00000000000E+00  0.45593999997E+02  0.45594000000E+02  0.51100000000E-03 0.  1.
         11   -1    0    0    0    0 -0.00000000000E+00 -0.00000000000E+00 -0.45593999997E+02  0.45594000000E+02  0.51100000000E-03 0. -1.
    9900012    2    1    2    0    0 -0.16111155902E+02  0.15605040595E+02 -0.37155580754E+02  0.47787264780E+02  0.19999971439E+02 0.  0.
        -12    1    1    2    0    0  0.16111155902E+02 -0.15605040595E+02  0.37155580754E+02  0.43400735220E+02  0.00000000000E+00 0.  1.
         11    1    3    3    0    0 -0.10039489345E+02  0.14074608730E+02 -0.30977199836E+02  0.35474961130E+02  0.51100000000E-03 0. -1.
        -11    1    3    3    0    0 -0.16790310160E+01 -0.34572033148E+01 -0.33151964585E+01  0.50756209208E+01  0.51100000000E-03 0.  1.
         12    1    3    3    0    0 -0.43926355405E+01  0.49876351797E+01 -0.28631844592E+01  0.72366827293E+01  0.00000000000E+00 0. -1.
</event>
<event>
 7    1  0.2714068E-010  0.4778727E+02  0.7816164E-02  0.1312668E+00
        -11   -1    0    0    0    0  0.00000000000E+00  0.00000000000E+00  0.45593999997E+02  0.45594000000E+02  0.51100000000E-03 0.  1.
         11   -1    0    0    0    0 -0.00000000000E+00 -0.00000000000E+00 -0.45593999997E+02  0.45594000000E+02  0.51100000000E-03 0. -1.
    9900012    2    1    2    0    0 -0.20794683281E+02 -0.10477508239E+02 -0.36625483277E+02  0.47787273544E+02  0.20000011396E+02 0.  0.
        -12    1    1    2    0    0  0.20794683281E+02  0.10477508239E+02  0.36625483277E+02  0.43400726456E+02  0.00000000000E+00 0.  1.
         11    1    3    3    0    0 -0.10261899411E+02 -0.40187478980E+01 -0.20632579199E+02  0.23391456535E+02  0.51100000000E-03 0. -1.
        -11    1    3    3    0    0 -0.41208835117E+01 -0.98682329749E+01 -0.67693682561E+01  0.12656541779E+02  0.51100000000E-03 0.  1.
        -12    1    3    3    0    0 -0.64119003584E+01  0.34094726340E+01 -0.92235358221E+01  0.11739275229E+02  0.00000000000E+00 0.  1.
</event>
<event>
 7    1  0.2714068E-010  0.4778728E+02  0.7816164E-02  0.1312668E+00
        -11   -1    0    0    0    0  0.00000000000E+00  0.00000000000E+00  0.45593999997E+02  0.45594000000E+02  0.51100000000E-03 0.  1.
         11   -1    0    0    0    0 -0.00000000000E+00 -0.00000000000E+00 -0.45593999997E+02  0.45594000000E+02  0.51100000000E-03 0. -1.
    9900012    2    1    2    0    0 -0.69832742829E+01  0.28445474279E+02 -0.32026725809E+02  0.47787282348E+02  0.20000051538E+02 0.  0.
        -12    1    1    2    0    0  0.69832742829E+01 -0.28445474279E+02  0.32026725809E+02  0.43400717652E+02  0.00000000000E+00 0.  1.
         11    1    3    3    0    0 -0.67271510007E+01  0.15594789398E+02 -0.12675778678E+02  0.21192625659E+02  0.51100000000E-03 0. -1.
        -11    1    3    3    0    0  0.76768209235E+00  0.54626818698E+01 -0.18237353204E+02  0.19053379783E+02  0.51100000000E-03 0.  1.
        -12    1    3    3    0    0 -0.10238053746E+01  0.73880030114E+01 -0.11135939264E+01  0.75412769061E+01  0.00000000000E+00 0.  1.
</event>
<event>
 7    1  0.2714068E-010  0.4778729E+02  0.7816164E-02  0.1312668E+00
        -11   -1    0    0    0    0  0.00000000000E+00  0.00000000000E+00  0.45593999997E+02  0.45594000000E+02  0.51100000000E-03 0. -1.
         11   -1    0    0    0    0 -0.00000000000E+00 -0.00000000000E+00 -0.45593999997E+02  0.45594000000E+02  0.51100000000E-03 0.  1.
    9900012    2    1    2    0    0  0.23315194978E+01  0.36167538005E+02  0.23876663691E+02  0.47787287362E+02  0.20000074398E+02 0.  0.
        -12    1    1    2    0    0 -0.23315194978E+01 -0.36167538005E+02 -0.23876663691E+02  0.43400712638E+02  0.00000000000E+00 0.  1.
         11    1    3    3    0    0  0.30030624111E-01  0.18959065557E+01  0.69395240090E+01  0.71939111225E+01  0.51100000000E-03 0. -1.
        -11    1    3    3    0    0 -0.30296390186E+01  0.20550755359E+02  0.43456700605E+01  0.21222561272E+02  0.51100000000E-03 0.  1.
        -12    1    3    3    0    0  0.53311278924E+01  0.13720876090E+02  0.12591469621E+02  0.19370814967E+02  0.00000000000E+00 0.  1.
</event>
<event>
 7    1  0.2714068E-010  0.4778727E+02  0.7816164E-02  0.1312668E+00
        -11   -1    0    0    0    0  0.00000000000E+00  0.00000000000E+00  0.45593999997E+02  0.45594000000E+02  0.51100000000E-03 0.  1.
         11   -1    0    0    0    0 -0.00000000000E+00 -0.00000000000E+00 -0.45593999997E+02  0.45594000000E+02  0.51100000000E-03 0. -1.
    9900012    2    1    2    0    0 -0.76712053515E+01  0.30047083983E+02 -0.30363607009E+02  0.47787270996E+02  0.19999999780E+02 0.  0.
        -12    1    1    2    0    0  0.76712053515E+01 -0.30047083983E+02  0.30363607009E+02  0.43400729004E+02  0.00000000000E+00 0.  1.
         11    1    3    3    0    0 -0.78884675090E-01  0.19803337203E+02 -0.17472866833E+02  0.26409836478E+02  0.51100000000E-03 0. -1.
        -11    1    3    3    0    0 -0.29545992962E+01 -0.22568036671E+01 -0.26601373213E+01  0.45715588831E+01  0.51100000000E-03 0.  1.
         12    1    3    3    0    0 -0.46377213802E+01  0.12500550447E+02 -0.10230602855E+02  0.16805875635E+02  0.00000000000E+00 0. -1.
</event>
<event>
 7    1  0.2714068E-010  0.4778726E+02  0.7816164E-02  0.1312668E+00
        -11   -1    0    0    0    0  0.00000000000E+00  0.00000000000E+00  0.45593999997E+02  0.45594000000E+02  0.51100000000E-03 0.  1.
         11   -1    0    0    0    0 -0.00000000000E+00 -0.00000000000E+00 -0.45593999997E+02  0.45594000000E+02  0.51100000000E-03 0. -1.
    9900012    2    1    2    0    0  0.22678072196E+02  0.22943785430E+02 -0.29032951347E+02  0.47787256777E+02  0.19999934949E+02 0.  0.
        -12    1    1    2    0    0 -0.22678072196E+02 -0.22943785430E+02  0.29032951347E+02  0.43400743223E+02  0.00000000000E+00 0.  1.
         11    1    3    3    0    0  0.67885215524E+01  0.28860420367E+01 -0.12351042757E+02  0.14386157269E+02  0.51100000000E-03 0. -1.
        -11    1    3    3    0    0 -0.88825460904E+00  0.55240168447E+01  0.64314304277E-01  0.55953458286E+01  0.51100000000E-03 0.  1.
        -12    1    3    3    0    0  0.16777805253E+02  0.14533726548E+02 -0.16746222894E+02  0.27805753680E+02  0.00000000000E+00 0.  1.
</event>
<event>
 7    1  0.2714068E-010  0.4778727E+02  0.7816164E-02  0.1312668E+00
        -11   -1    0    0    0    0  0.00000000000E+00  0.00000000000E+00  0.45593999997E+02  0.45594000000E+02  0.51100000000E-03 0.  1.
         11   -1    0    0    0    0 -0.00000000000E+00 -0.00000000000E+00 -0.45593999997E+02  0.45594000000E+02  0.51100000000E-03 0. -1.
    9900012    2    1    2    0    0 -0.18855715257E+02 -0.37840758083E+02 -0.98062444596E+01  0.47787269585E+02  0.19999993346E+02 0.  0.
        -12    1    1    2    0    0  0.18855715257E+02  0.37840758083E+02  0.98062444596E+01  0.43400730415E+02  0.00000000000E+00 0.  1.
         11    1    3    3    0    0 -0.38001273112E+01 -0.20056963291E+02  0.10659794579E+01  0.20441601124E+02  0.51100000000E-03 0. -1.
        -11    1    3    3    0    0 -0.91176299150E+01 -0.41831062195E+01 -0.61748427717E+01  0.11779568601E+02  0.51100000000E-03 0.  1.
         12    1    3    3    0    0 -0.59379580309E+01 -0.13600688573E+02 -0.46973811457E+01  0.15566099860E+02  0.00000000000E+00 0. -1.
</event>
<event>
 7    1  0.2714068E-010  0.4778727E+02  0.7816164E-02  0.1312668E+00
        -11   -1    0    0    0    0  0.00000000000E+00  0.00000000000E+00  0.45593999997E+02  0.45594000000E+02  0.51100000000E-03 0.  1.
         11   -1    0    0    0    0 -0.00000000000E+00 -0.00000000000E+00 -0.45593999997E+02  0.45594000000E+02  0.51100000000E-03 0. -1.
    9900012    2    1    2    0    0  0.23600517628E+02  0.35765087334E+02 -0.68918273580E+01  0.47787272027E+02  0.20000004479E+02 0.  0.
        -12    1    1    2    0    0 -0.23600517628E+02 -0.35765087334E+02  0.68918273580E+01  0.43400727973E+02  0.00000000000E+00 0.  1.
         11    1    3    3    0    0 -0.24632740472E+01  0.46431566416E+01 -0.43493525353E+01  0.68222789717E+01  0.51100000000E-03 0. -1.
        -11    1    3    3    0    0  0.16844143201E+02  0.16831837576E+02 -0.32360884992E+00  0.23814714765E+02  0.51100000000E-03 0.  1.
         12    1    3    3    0    0  0.92196484738E+01  0.14290093116E+02 -0.22188659728E+01  0.17150278291E+02  0.00000000000E+00 0. -1.
</event>
<event>
 7    1  0.2714068E-010  0.4778725E+02  0.7816164E-02  0.1312668E+00
        -11   -1    0    0    0    0  0.00000000000E+00  0.00000000000E+00  0.45593999997E+02  0.45594000000E+02  0.51100000000E-03 0.  1.
         11   -1    0    0    0    0 -0.00000000000E+00 -0.00000000000E+00 -0.45593999997E+02  0.45594000000E+02  0.51100000000E-03 0. -1.
    9900012    2    1    2    0    0 -0.18698732873E+02 -0.27650092237E+02 -0.27739046000E+02  0.47787252486E+02  0.19999915386E+02 0.  0.
        -12    1    1    2    0    0  0.18698732873E+02  0.27650092237E+02  0.27739046000E+02  0.43400747514E+02  0.00000000000E+00 0.  1.
         11    1    3    3    0    0 -0.13000293158E+02 -0.19171729164E+02 -0.26909424787E+02  0.35506055314E+02  0.51100000000E-03 0. -1.
        -11    1    3    3    0    0 -0.32387013727E+01  0.17158355236E+00  0.65278619136E-01  0.32439002845E+01  0.51100000000E-03 0.  1.
         12    1    3    3    0    0 -0.24597383421E+01 -0.86499466251E+01 -0.89489983212E+00  0.90372968878E+01  0.00000000000E+00 0. -1.
</event>
<event>
 7    1  0.2714068E-010  0.4778727E+02  0.7816164E-02  0.1312668E+00
        -11   -1    0    0    0    0  0.00000000000E+00  0.00000000000E+00  0.45593999997E+02  0.45594000000E+02  0.51100000000E-03 0.  1.
         11   -1    0    0    0    0 -0.00000000000E+00 -0.00000000000E+00 -0.45593999997E+02  0.45594000000E+02  0.51100000000E-03 0. -1.
    9900012    2    1    2    0    0  0.33476868816E+02  0.20240778260E+02 -0.18794502187E+02  0.47787272325E+02  0.20000005839E+02 0.  0.
        -12    1    1    2    0    0 -0.33476868816E+02 -0.20240778260E+02  0.18794502187E+02  0.43400727675E+02  0.00000000000E+00 0.  1.
         11    1    3    3    0    0  0.19152855522E+02  0.19549503972E+02 -0.16013920015E+02  0.31708998954E+02  0.51100000000E-03 0. -1.
        -11    1    3    3    0    0  0.15054927163E+02  0.44727641804E+00 -0.27212592874E+01  0.15305428464E+02  0.51100000000E-03 0.  1.
        -12    1    3    3    0    0 -0.73091386963E+00  0.24399787003E+00 -0.59322884631E-01  0.77284490685E+00  0.00000000000E+00 0.  1.
</event>
<event>
 7    1  0.2714068E-010  0.4778727E+02  0.7816164E-02  0.1312668E+00
        -11   -1    0    0    0    0  0.00000000000E+00  0.00000000000E+00  0.45593999997E+02  0.45594000000E+02  0.51100000000E-03 0.  1.
         11   -1    0    0    0    0 -0.00000000000E+00 -0.00000000000E+00 -0.45593999997E+02  0.45594000000E+02  0.51100000000E-03 0. -1.
    9900012    2    1    2    0    0  0.13703383682E+02 -0.31737981570E+02 -0.26240067556E+02  0.47787270239E+02  0.19999996327E+02 0.  0.
        -12    1    1    2    0    0 -0.13703383682E+02  0.31737981570E+02  0.26240067556E+02  0.43400729761E+02  0.00000000000E+00 0.  1.
         11    1    3    3    0    0  0.81562804908E+01 -0.20548839796E+02 -0.24862265183E+02  0.33270286423E+02  0.51100000000E-03 0. -1.
        -11    1    3    3    0    0  0.40311415787E+01 -0.11874258663E+02 -0.20801307169E+01  0.12711218088E+02  0.51100000000E-03 0.  1.
        -12    1    3    3    0    0  0.15159616124E+01  0.68511688872E+00  0.70232834387E+00  0.18057657279E+01  0.00000000000E+00 0.  1.
</event>
<event>
 7    1  0.2714068E-010  0.4778727E+02  0.7816164E-02  0.1312668E+00
        -11   -1    0    0    0    0  0.00000000000E+00  0.00000000000E+00  0.45593999997E+02  0.45594000000E+02  0.51100000000E-03 0.  1.
         11   -1    0    0    0    0 -0.00000000000E+00 -0.00000000000E+00 -0.45593999997E+02  0.45594000000E+02  0.51100000000E-03 0. -1.
    9900012    2    1    2    0    0  0.13034782753E+02  0.78927962765E+01 -0.40637684466E+02  0.47787271973E+02  0.20000004234E+02 0.  0.
        -12    1    1    2    0    0 -0.13034782753E+02 -0.78927962765E+01  0.40637684466E+02  0.43400728027E+02  0.00000000000E+00 0.  1.
         11    1    3    3    0    0 -0.13109561151E+01  0.70166623457E+01 -0.18766868523E+02  0.20078533583E+02  0.51100000000E-03 0. -1.
        -11    1    3    3    0    0  0.11399500170E+02 -0.26856693828E+01 -0.11787788447E+02  0.16616659740E+02  0.51100000000E-03 0.  1.
        -12    1    3    3    0    0  0.29462386974E+01  0.35618033137E+01 -0.10083027496E+02  0.11092078651E+02  0.00000000000E+00 0.  1.
</event>
<event>
 7    1  0.2714068E-010  0.4778727E+02  0.7816164E-02  0.1312668E+00
        -11   -1    0    0    0    0  0.00000000000E+00  0.00000000000E+00  0.45593999997E+02  0.45594000000E+02  0.51100000000E-03 0.  1.
         11   -1    0    0    0    0 -0.00000000000E+00 -0.00000000000E+00 -0.45593999997E+02  0.45594000000E+02  0.51100000000E-03 0. -1.
    9900012    2    1    2    0    0  0.39964710527E+02 -0.19735644272E+01 -0.16809221220E+02  0.47787274636E+02  0.20000016377E+02 0.  0.
        -12    1    1    2    0    0 -0.39964710527E+02  0.19735644272E+01  0.16809221220E+02  0.43400725364E+02  0.00000000000E+00 0.  1.
         11    1    3    3    0    0  0.32875349697E+01  0.11679891888E+01 -0.88745377090E+00  0.35999526912E+01  0.51100000000E-03 0. -1.
        -11    1    3    3    0    0  0.34140316941E+02  0.23294224377E+01 -0.16751694958E+02  0.38099957138E+02  0.51100000000E-03 0.  1.
        -12    1    3    3    0    0  0.25368586167E+01 -0.54709760537E+01  0.82992750887E+00  0.60873648068E+01  0.00000000000E+00 0.  1.
</event>
<event>
 7    1  0.2714068E-010  0.4778727E+02  0.7816164E-02  0.1312668E+00
        -11   -1    0    0    0    0  0.00000000000E+00  0.00000000000E+00  0.45593999997E+02  0.45594000000E+02  0.51100000000E-03 0.  1.
         11   -1    0    0    0    0 -0.00000000000E+00 -0.00000000000E+00 -0.45593999997E+02  0.45594000000E+02  0.51100000000E-03 0. -1.
    9900012    2    1    2    0    0 -0.26250572100E+02 -0.24100620187E+02 -0.24772787997E+02  0.47787268968E+02  0.19999990532E+02 0.  0.
        -12    1    1    2    0    0  0.26250572100E+02  0.24100620187E+02  0.24772787997E+02  0.43400731032E+02  0.00000000000E+00 0.  1.
         11    1    3    3    0    0 -0.12246858052E+02 -0.11255672975E+02 -0.40193649843E+01  0.17112305555E+02  0.51100000000E-03 0. -1.
        -11    1    3    3    0    0 -0.38892420654E+01 -0.16543425264E+01 -0.13090666316E+02  0.13756038598E+02  0.51100000000E-03 0.  1.
        -12    1    3    3    0    0 -0.10114471983E+02 -0.11190604685E+02 -0.76627566962E+01  0.16918924815E+02  0.00000000000E+00 0.  1.
</event>
<event>
 7    1  0.2714068E-010  0.4778727E+02  0.7816164E-02  0.1312668E+00
        -11   -1    0    0    0    0  0.00000000000E+00  0.00000000000E+00  0.45593999997E+02  0.45594000000E+02  0.51100000000E-03 0.  1.
         11   -1    0    0    0    0 -0.00000000000E+00 -0.00000000000E+00 -0.45593999997E+02  0.45594000000E+02  0.51100000000E-03 0. -1.
    9900012    2    1    2    0    0 -0.21119306230E+02  0.36022466368E+02  0.11831331160E+02  0.47787267565E+02  0.19999984135E+02 0.  0.
        -12    1    1    2    0    0  0.21119306230E+02 -0.36022466368E+02 -0.11831331160E+02  0.43400732435E+02  0.00000000000E+00 0.  1.
         11    1    3    3    0    0 -0.25788335304E+01  0.67260995790E+01 -0.47805605884E+01  0.86454934923E+01  0.51100000000E-03 0. -1.
        -11    1    3    3    0    0 -0.14239728620E+02  0.21773073747E+02  0.87699031195E+01  0.27454467988E+02  0.51100000000E-03 0.  1.
        -12    1    3    3    0    0 -0.43007440796E+01  0.75232930427E+01  0.78419886293E+01  0.11687306084E+02  0.00000000000E+00 0.  1.
</event>
<event>
 7    1  0.2714068E-010  0.4778727E+02  0.7816164E-02  0.1312668E+00
        -11   -1    0    0    0    0  0.00000000000E+00  0.00000000000E+00  0.45593999997E+02  0.45594000000E+02  0.51100000000E-03 0. -1.
         11   -1    0    0    0    0 -0.00000000000E+00 -0.00000000000E+00 -0.45593999997E+02  0.45594000000E+02  0.51100000000E-03 0.  1.
    9900012    2    1    2    0    0 -0.32634979220E+02 -0.22757037975E+02  0.17340663709E+02  0.47787271158E+02  0.20000000519E+02 0.  0.
        -12    1    1    2    0    0  0.32634979220E+02  0.22757037975E+02 -0.17340663709E+02  0.43400728842E+02  0.00000000000E+00 0.  1.
         11    1    3    3    0    0 -0.17479615335E+02 -0.48765203286E+01  0.13703533513E+02  0.22739925985E+02  0.51100000000E-03 0. -1.
        -11    1    3    3    0    0 -0.14403511655E+02 -0.14000730093E+02  0.65685127400E+00  0.20097588039E+02  0.51100000000E-03 0.  1.
         12    1    3    3    0    0 -0.75185223013E+00 -0.38797875535E+01  0.29802789220E+01  0.49497571343E+01  0.00000000000E+00 0. -1.
</event>
<event>
 7    1  0.2714068E-010  0.4778727E+02  0.7816164E-02  0.1312668E+00
        -11   -1    0    0    0    0  0.00000000000E+00  0.00000000000E+00  0.45593999997E+02  0.45594000000E+02  0.51100000000E-03 0. -1.
         11   -1    0    0    0    0 -0.00000000000E+00 -0.00000000000E+00 -0.45593999997E+02  0.45594000000E+02  0.51100000000E-03 0.  1.
    9900012    2    1    2    0    0 -0.15107279359E+02  0.69454681713E+01  0.40089325445E+02  0.47787269218E+02  0.19999991673E+02 0.  0.
        -12    1    1    2    0    0  0.15107279359E+02 -0.69454681713E+01 -0.40089325445E+02  0.43400730782E+02  0.00000000000E+00 0.  1.
         11    1    3    3    0    0  0.19730650248E+00  0.36420125486E+00  0.47725109221E+00  0.63193455049E+00  0.51100000000E-03 0. -1.
        -11    1    3    3    0    0 -0.81017061466E+01  0.12968565038E+02  0.29286023778E+02  0.33037743727E+02  0.51100000000E-03 0.  1.
        -12    1    3    3    0    0 -0.72028797149E+01 -0.63872981210E+01  0.10326050575E+02  0.14117590940E+02  0.00000000000E+00 0.  1.
</event>
<event>
 7    1  0.2714068E-010  0.4778727E+02  0.7816164E-02  0.1312668E+00
        -11   -1    0    0    0    0  0.00000000000E+00  0.00000000000E+00  0.45593999997E+02  0.45594000000E+02  0.51100000000E-03 0.  1.
         11   -1    0    0    0    0 -0.00000000000E+00 -0.00000000000E+00 -0.45593999997E+02  0.45594000000E+02  0.51100000000E-03 0. -1.
    9900012    2    1    2    0    0 -0.16989226140E+02  0.29828726637E+02 -0.26556287634E+02  0.47787272466E+02  0.20000006481E+02 0.  0.
        -12    1    1    2    0    0  0.16989226140E+02 -0.29828726637E+02  0.26556287634E+02  0.43400727534E+02  0.00000000000E+00 0.  1.
         11    1    3    3    0    0 -0.13984491932E+02  0.11411580284E+02 -0.14248357505E+02  0.22995779418E+02  0.51100000000E-03 0. -1.
        -11    1    3    3    0    0  0.30064322498E+01  0.10084608336E+02 -0.94081305659E+01  0.14115625426E+02  0.51100000000E-03 0.  1.
        -12    1    3    3    0    0 -0.60111664572E+01  0.83325380164E+01 -0.28997995630E+01  0.10675867622E+02  0.00000000000E+00 0.  1.
</event>
<event>
 7    1  0.2714068E-010  0.4778731E+02  0.7816164E-02  0.1312668E+00
        -11   -1    0    0    0    0  0.00000000000E+00  0.00000000000E+00  0.45593999997E+02  0.45594000000E+02  0.51100000000E-03 0.  1.
         11   -1    0    0    0    0 -0.00000000000E+00 -0.00000000000E+00 -0.45593999997E+02  0.45594000000E+02  0.51100000000E-03 0. -1.
    9900012    2    1    2    0    0 -0.86094077537E+01 -0.34957548186E+02 -0.24237727133E+02  0.47787314595E+02  0.20000198566E+02 0.  0.
        -12    1    1    2    0    0  0.86094077537E+01  0.34957548186E+02  0.24237727133E+02  0.43400685405E+02  0.00000000000E+00 0.  1.
         11    1    3    3    0    0 -0.13022247104E+02 -0.18839993503E+02 -0.79535579411E+01  0.24244243833E+02  0.51100000000E-03 0. -1.
        -11    1    3    3    0    0  0.46041474710E+01 -0.12358661965E+02 -0.11884820735E+02  0.17753412733E+02  0.51100000000E-03 0.  1.
         12    1    3    3    0    0 -0.19130812062E+00 -0.37588927176E+01 -0.43993484568E+01  0.57896580300E+01  0.00000000000E+00 0. -1.
</event>
<event>
 7    1  0.2714068E-010  0.4778729E+02  0.7816164E-02  0.1312668E+00
        -11   -1    0    0    0    0  0.00000000000E+00  0.00000000000E+00  0.45593999997E+02  0.45594000000E+02  0.51100000000E-03 0.  1.
         11   -1    0    0    0    0 -0.00000000000E+00 -0.00000000000E+00 -0.45593999997E+02  0.45594000000E+02  0.51100000000E-03 0. -1.
    9900012    2    1    2    0    0 -0.21795369331E+02 -0.97178373890E+01 -0.36251165288E+02  0.47787291797E+02  0.20000094620E+02 0.  0.
        -12    1    1    2    0    0  0.21795369331E+02  0.97178373890E+01  0.36251165288E+02  0.43400708203E+02  0.00000000000E+00 0.  1.
         11    1    3    3    0    0 -0.17609124336E+02 -0.13300742164E+02 -0.19736621702E+02  0.29606168926E+02  0.51100000000E-03 0. -1.
        -11    1    3    3    0    0 -0.31655326900E+01  0.31927001191E+01 -0.54607725922E+01  0.70734693629E+01  0.51100000000E-03 0.  1.
         12    1    3    3    0    0 -0.10207123050E+01  0.39020465629E+00 -0.11053770994E+02  0.11107653509E+02  0.00000000000E+00 0. -1.
</event>
<event>
 7    1  0.2714068E-010  0.4778727E+02  0.7816164E-02  0.1312668E+00
        -11   -1    0    0    0    0  0.00000000000E+00  0.00000000000E+00  0.45593999997E+02  0.45594000000E+02  0.51100000000E-03 0. -1.
         11   -1    0    0    0    0 -0.00000000000E+00 -0.00000000000E+00 -0.45593999997E+02  0.45594000000E+02  0.51100000000E-03 0.  1.
    9900012    2    1    2    0    0  0.82613583498E+01 -0.28745966330E+02  0.31449046195E+02  0.47787272718E+02  0.20000007628E+02 0.  0.
        -12    1    1    2    0    0 -0.82613583498E+01  0.28745966330E+02 -0.31449046195E+02  0.43400727282E+02  0.00000000000E+00 0.  1.
         11    1    3    3    0    0  0.12290210868E+02 -0.15343913785E+02  0.13783242544E+02  0.24009638662E+02  0.51100000000E-03 0. -1.
        -11    1    3    3    0    0 -0.60334743041E+01 -0.12055313763E+02  0.14545132950E+02  0.19831648820E+02  0.51100000000E-03 0.  1.
        -12    1    3    3    0    0  0.20046217861E+01 -0.13467387824E+01  0.31206707012E+01  0.39459852355E+01  0.00000000000E+00 0.  1.
</event>
<event>
 7    1  0.2714068E-010  0.4778727E+02  0.7816164E-02  0.1312668E+00
        -11   -1    0    0    0    0  0.00000000000E+00  0.00000000000E+00  0.45593999997E+02  0.45594000000E+02  0.51100000000E-03 0. -1.
         11   -1    0    0    0    0 -0.00000000000E+00 -0.00000000000E+00 -0.45593999997E+02  0.45594000000E+02  0.51100000000E-03 0.  1.
    9900012    2    1    2    0    0  0.28761910884E+02  0.27712303348E+02  0.16982469102E+02  0.47787268078E+02  0.19999986475E+02 0.  0.
        -12    1    1    2    0    0 -0.28761910884E+02 -0.27712303348E+02 -0.16982469102E+02  0.43400731922E+02  0.00000000000E+00 0.  1.
         11    1    3    3    0    0  0.22573630057E+02  0.21871348000E+02  0.14253574170E+02  0.34512157483E+02  0.51100000000E-03 0. -1.
        -11    1    3    3    0    0  0.16313580762E+01  0.64220284695E+01 -0.17563116890E+01  0.68548092494E+01  0.51100000000E-03 0.  1.
         12    1    3    3    0    0  0.45569227507E+01 -0.58107312123E+00  0.44852066216E+01  0.64203013454E+01  0.00000000000E+00 0. -1.
</event>
<event>
 7    1  0.2714068E-010  0.4778727E+02  0.7816164E-02  0.1312668E+00
        -11   -1    0    0    0    0  0.00000000000E+00  0.00000000000E+00  0.45593999997E+02  0.45594000000E+02  0.51100000000E-03 0.  1.
         11   -1    0    0    0    0 -0.00000000000E+00 -0.00000000000E+00 -0.45593999997E+02  0.45594000000E+02  0.51100000000E-03 0. -1.
    9900012    2    1    2    0    0 -0.22501407279E+02  0.20369656596E+02 -0.31022359517E+02  0.47787273861E+02  0.20000012842E+02 0.  0.
        -12    1    1    2    0    0  0.22501407279E+02 -0.20369656596E+02  0.31022359517E+02  0.43400726139E+02  0.00000000000E+00 0.  1.
         11    1    3    3    0    0 -0.58462738643E+01  0.51077932962E+01 -0.55113057379E+01  0.95206597277E+01  0.51100000000E-03 0. -1.
        -11    1    3    3    0    0 -0.92042539669E+01  0.17010532182E+02 -0.12066754162E+02  0.22796557908E+02  0.51100000000E-03 0.  1.
        -12    1    3    3    0    0 -0.74508794481E+01 -0.17486688825E+01 -0.13444299617E+02  0.15470056225E+02  0.00000000000E+00 0.  1.
</event>
<event>
 7    1  0.2714068E-010  0.4778727E+02  0.7816164E-02  0.1312668E+00
        -11   -1    0    0    0    0  0.00000000000E+00  0.00000000000E+00  0.45593999997E+02  0.45594000000E+02  0.51100000000E-03 0.  1.
         11   -1    0    0    0    0 -0.00000000000E+00 -0.00000000000E+00 -0.45593999997E+02  0.45594000000E+02  0.51100000000E-03 0. -1.
    9900012    2    1    2    0    0 -0.11830769433E+02 -0.19614482953E+02 -0.36863640921E+02  0.47787273406E+02  0.20000010769E+02 0.  0.
        -12    1    1    2    0    0  0.11830769433E+02  0.19614482953E+02  0.36863640921E+02  0.43400726594E+02  0.00000000000E+00 0.  1.
         11    1    3    3    0    0 -0.66175073933E+01 -0.16126016588E+02 -0.35891874302E+02  0.39900707465E+02  0.51100000000E-03 0. -1.
        -11    1    3    3    0    0 -0.46060110295E+01 -0.95929636319E+00  0.75426658479E+00  0.47649244966E+01  0.51100000000E-03 0.  1.
         12    1    3    3    0    0 -0.60725101016E+00 -0.25291700010E+01 -0.17260332047E+01  0.31216414444E+01  0.00000000000E+00 0. -1.
</event>
<event>
 7    1  0.2714068E-010  0.4778726E+02  0.7816164E-02  0.1312668E+00
        -11   -1    0    0    0    0  0.00000000000E+00  0.00000000000E+00  0.45593999997E+02  0.45594000000E+02  0.51100000000E-03 0.  1.
         11   -1    0    0    0    0 -0.00000000000E+00 -0.00000000000E+00 -0.45593999997E+02  0.45594000000E+02  0.51100000000E-03 0. -1.
    9900012    2    1    2    0    0 -0.19299965899E+02  0.32928804027E+02  0.20659842497E+02  0.47787263712E+02  0.19999966568E+02 0.  0.
        -12    1    1    2    0    0  0.19299965899E+02 -0.32928804027E+02 -0.20659842497E+02  0.43400736288E+02  0.00000000000E+00 0.  1.
         11    1    3    3    0    0 -0.20755329878E+02  0.31214571606E+02  0.16545338190E+02  0.40974155452E+02  0.51100000000E-03 0. -1.
        -11    1    3    3    0    0  0.19559387863E+01  0.14714049806E+01  0.51138050283E+01  0.56693678026E+01  0.51100000000E-03 0.  1.
         12    1    3    3    0    0 -0.50057480717E+00  0.24282744007E+00 -0.99930072094E+00  0.11437404575E+01  0.00000000000E+00 0. -1.
</event>
<event>
 7    1  0.2714068E-010  0.4778727E+02  0.7816164E-02  0.1312668E+00
        -11   -1    0    0    0    0  0.00000000000E+00  0.00000000000E+00  0.45593999997E+02  0.45594000000E+02  0.51100000000E-03 0. -1.
         11   -1    0    0    0    0 -0.00000000000E+00 -0.00000000000E+00 -0.45593999997E+02  0.45594000000E+02  0.51100000000E-03 0.  1.
    9900012    2    1    2    0    0  0.39340337959E+02 -0.13457652995E+02  0.12443984298E+02  0.47787270051E+02  0.19999995471E+02 0.  0.
        -12    1    1    2    0    0 -0.39340337959E+02  0.13457652995E+02 -0.12443984298E+02  0.43400729949E+02  0.00000000000E+00 0.  1.
         11    1    3    3    0    0  0.13550598828E+02  0.29824665574E+01  0.95614759433E+01  0.16850390436E+02  0.51100000000E-03 0. -1.
        -11    1    3    3    0    0  0.17253367565E+02 -0.11124600172E+02  0.36528747562E+01  0.20851352847E+02  0.51100000000E-03 0.  1.
         12    1    3    3    0    0  0.85363715662E+01 -0.53155193796E+01 -0.77036640107E+00  0.10085526768E+02  0.00000000000E+00 0. -1.
</event>
<event>
 7    1  0.2714068E-010  0.4778728E+02  0.7816164E-02  0.1312668E+00
        -11   -1    0    0    0    0  0.00000000000E+00  0.00000000000E+00  0.45593999997E+02  0.45594000000E+02  0.51100000000E-03 0.  1.
         11   -1    0    0    0    0 -0.00000000000E+00 -0.00000000000E+00 -0.45593999997E+02  0.45594000000E+02  0.51100000000E-03 0. -1.
    9900012    2    1    2    0    0 -0.17552362332E+02  0.18955563363E+02 -0.34874397683E+02  0.47787280886E+02  0.20000044874E+02 0.  0.
        -12    1    1    2    0    0  0.17552362332E+02 -0.18955563363E+02  0.34874397683E+02  0.43400719114E+02  0.00000000000E+00 0.  1.
         11    1    3    3    0    0 -0.18138767127E+02  0.66968119216E+01 -0.16476580128E+02  0.25403540221E+02  0.51100000000E-03 0. -1.
        -11    1    3    3    0    0  0.23778185695E+00  0.46670797121E+01 -0.10117431613E+02  0.11144532110E+02  0.51100000000E-03 0.  1.
         12    1    3    3    0    0  0.34862293836E+00  0.75916717288E+01 -0.82803859420E+01  0.11239208555E+02  0.00000000000E+00 0. -1.
</event>
<event>
 7    1  0.2714068E-010  0.4778727E+02  0.7816164E-02  0.1312668E+00
        -11   -1    0    0    0    0  0.00000000000E+00  0.00000000000E+00  0.45593999997E+02  0.45594000000E+02  0.51100000000E-03 0. -1.
         11   -1    0    0    0    0 -0.00000000000E+00 -0.00000000000E+00 -0.45593999997E+02  0.45594000000E+02  0.51100000000E-03 0.  1.
    9900012    2    1    2    0    0 -0.25301583589E+02  0.29562883043E+02  0.19222105501E+02  0.47787268142E+02  0.19999986766E+02 0.  0.
        -12    1    1    2    0    0  0.25301583589E+02 -0.29562883043E+02 -0.19222105501E+02  0.43400731858E+02  0.00000000000E+00 0.  1.
         11    1    3    3    0    0 -0.20521514927E+01  0.54368194396E+01  0.43162004955E+00  0.58272315465E+01  0.51100000000E-03 0. -1.
        -11    1    3    3    0    0 -0.13684338964E+02  0.24344115470E+02  0.14634338903E+02  0.31528732392E+02  0.51100000000E-03 0.  1.
        -12    1    3    3    0    0 -0.95650931323E+01 -0.21805186619E+00  0.41561465487E+01  0.10431304203E+02  0.00000000000E+00 0.  1.
</event>
<event>
 7    1  0.2714068E-010  0.4778727E+02  0.7816164E-02  0.1312668E+00
        -11   -1    0    0    0    0  0.00000000000E+00  0.00000000000E+00  0.45593999997E+02  0.45594000000E+02  0.51100000000E-03 0.  1.
         11   -1    0    0    0    0 -0.00000000000E+00 -0.00000000000E+00 -0.45593999997E+02  0.45594000000E+02  0.51100000000E-03 0. -1.
    9900012    2    1    2    0    0 -0.12116121454E+02  0.40457644939E+02  0.10000082004E+02  0.47787273356E+02  0.20000010541E+02 0.  0.
        -12    1    1    2    0    0  0.12116121454E+02 -0.40457644939E+02 -0.10000082004E+02  0.43400726644E+02  0.00000000000E+00 0.  1.
         11    1    3    3    0    0 -0.54827380393E+01  0.11949991909E+02 -0.49399947322E+01  0.14045151165E+02  0.51100000000E-03 0.  1.
        -11    1    3    3    0    0 -0.54438221703E+00  0.50917020111E+01 -0.33054760583E+00  0.51313783089E+01  0.51100000000E-03 0. -1.
         12    1    3    3    0    0 -0.60890011973E+01  0.23415951020E+02  0.15270624342E+02  0.28610743883E+02  0.00000000000E+00 0. -1.
</event>
<event>
 7    1  0.2714068E-010  0.4778728E+02  0.7816164E-02  0.1312668E+00
        -11   -1    0    0    0    0  0.00000000000E+00  0.00000000000E+00  0.45593999997E+02  0.45594000000E+02  0.51100000000E-03 0. -1.
         11   -1    0    0    0    0 -0.00000000000E+00 -0.00000000000E+00 -0.45593999997E+02  0.45594000000E+02  0.51100000000E-03 0.  1.
    9900012    2    1    2    0    0  0.12097926565E+02  0.36586236869E+02  0.19967722280E+02  0.47787280092E+02  0.20000041254E+02 0.  0.
        -12    1    1    2    0    0 -0.12097926565E+02 -0.36586236869E+02 -0.19967722280E+02  0.43400719908E+02  0.00000000000E+00 0.  1.
         11    1    3    3    0    0  0.27716856183E+01 -0.13227903778E+01  0.45022292777E+00  0.31039839716E+01  0.51100000000E-03 0.  1.
        -11    1    3    3    0    0 -0.20194175126E+00  0.18258306176E+02  0.73466812803E+01  0.19681977822E+02  0.51100000000E-03 0. -1.
         12    1    3    3    0    0  0.95281826979E+01  0.19650721072E+02  0.12170818072E+02  0.25001318299E+02  0.00000000000E+00 0. -1.
</event>
<event>
 7    1  0.2714068E-010  0.4778725E+02  0.7816164E-02  0.1312668E+00
        -11   -1    0    0    0    0  0.00000000000E+00  0.00000000000E+00  0.45593999997E+02  0.45594000000E+02  0.51100000000E-03 0.  1.
         11   -1    0    0    0    0 -0.00000000000E+00 -0.00000000000E+00 -0.45593999997E+02  0.45594000000E+02  0.51100000000E-03 0. -1.
    9900012    2    1    2    0    0  0.10088319238E+02 -0.23476026065E+02 -0.35081716327E+02  0.47787253402E+02  0.19999919559E+02 0.  0.
        -12    1    1    2    0    0 -0.10088319238E+02  0.23476026065E+02  0.35081716327E+02  0.43400746598E+02  0.00000000000E+00 0.  1.
         11    1    3    3    0    0  0.62066015827E+01 -0.63599200681E+01 -0.11371252334E+02  0.14431765879E+02  0.51100000000E-03 0. -1.
        -11    1    3    3    0    0  0.86214331786E+01 -0.13869339643E+02 -0.11850452065E+02  0.20177237337E+02  0.51100000000E-03 0.  1.
        -12    1    3    3    0    0 -0.47397155235E+01 -0.32467663542E+01 -0.11860011929E+02  0.13178250185E+02  0.00000000000E+00 0.  1.
</event>
<event>
 7    1  0.2714068E-010  0.4778727E+02  0.7816164E-02  0.1312668E+00
        -11   -1    0    0    0    0  0.00000000000E+00  0.00000000000E+00  0.45593999997E+02  0.45594000000E+02  0.51100000000E-03 0.  1.
         11   -1    0    0    0    0 -0.00000000000E+00 -0.00000000000E+00 -0.45593999997E+02  0.45594000000E+02  0.51100000000E-03 0. -1.
    9900012    2    1    2    0    0  0.32119276688E+02 -0.51182619908E+01 -0.28736369131E+02  0.47787268997E+02  0.19999990665E+02 0.  0.
        -12    1    1    2    0    0 -0.32119276688E+02  0.51182619908E+01  0.28736369131E+02  0.43400731003E+02  0.00000000000E+00 0.  1.
         11    1    3    3    0    0  0.21865549808E+02  0.36514249379E+01 -0.18579312788E+02  0.28924488525E+02  0.51100000000E-03 0. -1.
        -11    1    3    3    0    0  0.84563973696E+01 -0.50732646795E+01 -0.25017775871E+01  0.10173866636E+02  0.51100000000E-03 0.  1.
         12    1    3    3    0    0  0.17973295099E+01 -0.36964222492E+01 -0.76552787555E+01  0.86889138352E+01  0.00000000000E+00 0. -1.
</event>
<event>
 7    1  0.2714068E-010  0.4778728E+02  0.7816164E-02  0.1312668E+00
        -11   -1    0    0    0    0  0.00000000000E+00  0.00000000000E+00  0.45593999997E+02  0.45594000000E+02  0.51100000000E-03 0. -1.
         11   -1    0    0    0    0 -0.00000000000E+00 -0.00000000000E+00 -0.45593999997E+02  0.45594000000E+02  0.51100000000E-03 0.  1.
    9900012    2    1    2    0    0  0.40297716150E+02 -0.16103826397E+02  0.61937875612E+00  0.47787276716E+02  0.20000025861E+02 0.  0.
        -12    1    1    2    0    0 -0.40297716150E+02  0.16103826397E+02 -0.61937875612E+00  0.43400723284E+02  0.00000000000E+00 0.  1.
         11    1    3    3    0    0  0.23909394812E+02 -0.16916278243E+01  0.48131384185E+01  0.24447639286E+02  0.51100000000E-03 0. -1.
        -11    1    3    3    0    0  0.27447002318E+01 -0.63934993315E+01 -0.26252871015E+01  0.74365546923E+01  0.51100000000E-03 0.  1.
         12    1    3    3    0    0  0.13643621106E+02 -0.80186992409E+01 -0.15684725609E+01  0.15903082738E+02  0.00000000000E+00 0. -1.
</event>
<event>
 7    1  0.2714068E-010  0.4778727E+02  0.7816164E-02  0.1312668E+00
        -11   -1    0    0    0    0  0.00000000000E+00  0.00000000000E+00  0.45593999997E+02  0.45594000000E+02  0.51100000000E-03 0. -1.
         11   -1    0    0    0    0 -0.00000000000E+00 -0.00000000000E+00 -0.45593999997E+02  0.45594000000E+02  0.51100000000E-03 0.  1.
    9900012    2    1    2    0    0 -0.23498693403E+02 -0.36405657319E+02  0.24622900236E+01  0.47787270183E+02  0.19999996073E+02 0.  0.
        -12    1    1    2    0    0  0.23498693403E+02  0.36405657319E+02 -0.24622900236E+01  0.43400729817E+02  0.00000000000E+00 0.  1.
         11    1    3    3    0    0  0.41818969116E+00  0.11361781041E+01  0.97328991691E+00  0.15534081323E+01  0.51100000000E-03 0. -1.
        -11    1    3    3    0    0 -0.75331987957E+01 -0.66338392057E+01 -0.40352636128E+01  0.10818514657E+02  0.51100000000E-03 0.  1.
         12    1    3    3    0    0 -0.16383684298E+02 -0.30907996218E+02  0.55242637194E+01  0.35415347394E+02  0.00000000000E+00 0. -1.
</event>
<event>
 7    1  0.2714068E-010  0.4778727E+02  0.7816164E-02  0.1312668E+00
        -11   -1    0    0    0    0  0.00000000000E+00  0.00000000000E+00  0.45593999997E+02  0.45594000000E+02  0.51100000000E-03 0.  1.
         11   -1    0    0    0    0 -0.00000000000E+00 -0.00000000000E+00 -0.45593999997E+02  0.45594000000E+02  0.51100000000E-03 0. -1.
    9900012    2    1    2    0    0  0.13195719242E+02 -0.14129890859E+02 -0.38856692232E+02  0.47787270130E+02  0.19999995831E+02 0.  0.
        -12    1    1    2    0    0 -0.13195719242E+02  0.14129890859E+02  0.38856692232E+02  0.43400729870E+02  0.00000000000E+00 0.  1.
         11    1    3    3    0    0  0.85535032956E+01  0.61541330244E+00 -0.22954281706E+02  0.24503881347E+02  0.51100000000E-03 0. -1.
        -11    1    3    3    0    0 -0.41601641559E+00 -0.96754890443E+01 -0.75405806594E+01  0.12273895667E+02  0.51100000000E-03 0.  1.
         12    1    3    3    0    0  0.50582323624E+01 -0.50698151172E+01 -0.83618298671E+01  0.11009493116E+02  0.00000000000E+00 0. -1.
</event>
<event>
 7    1  0.2714068E-010  0.4778727E+02  0.7816164E-02  0.1312668E+00
        -11   -1    0    0    0    0  0.00000000000E+00  0.00000000000E+00  0.45593999997E+02  0.45594000000E+02  0.51100000000E-03 0.  1.
         11   -1    0    0    0    0 -0.00000000000E+00 -0.00000000000E+00 -0.45593999997E+02  0.45594000000E+02  0.51100000000E-03 0. -1.
    9900012    2    1    2    0    0 -0.13258657440E+02  0.22866443437E+02 -0.34423200851E+02  0.47787274322E+02  0.20000014942E+02 0.  0.
        -12    1    1    2    0    0  0.13258657440E+02 -0.22866443437E+02  0.34423200851E+02  0.43400725678E+02  0.00000000000E+00 0.  1.
         11    1    3    3    0    0 -0.37361495954E+01  0.19022352534E+02 -0.12970588706E+02  0.23324769696E+02  0.51100000000E-03 0. -1.
        -11    1    3    3    0    0 -0.38375994707E+01  0.62951307016E-01 -0.13226521902E+02  0.13772146327E+02  0.51100000000E-03 0.  1.
         12    1    3    3    0    0 -0.56849083742E+01  0.37811395961E+01 -0.82260902431E+01  0.10690358299E+02  0.00000000000E+00 0. -1.
</event>
<event>
 7    1  0.2714068E-010  0.4778727E+02  0.7816164E-02  0.1312668E+00
        -11   -1    0    0    0    0  0.00000000000E+00  0.00000000000E+00  0.45593999997E+02  0.45594000000E+02  0.51100000000E-03 0.  1.
         11   -1    0    0    0    0 -0.00000000000E+00 -0.00000000000E+00 -0.45593999997E+02  0.45594000000E+02  0.51100000000E-03 0. -1.
    9900012    2    1    2    0    0  0.14075678871E+02  0.33747661754E+02 -0.23379354546E+02  0.47787266958E+02  0.19999981369E+02 0.  0.
        -12    1    1    2    0    0 -0.14075678871E+02 -0.33747661754E+02  0.23379354546E+02  0.43400733042E+02  0.00000000000E+00 0.  1.
         11    1    3    3    0    0 -0.12933416984E+01  0.17371123834E+02 -0.17144322010E+02  0.24440876691E+02  0.51100000000E-03 0. -1.
        -11    1    3    3    0    0  0.65418840324E+01  0.60314681688E+01 -0.23501747084E+01  0.92031612170E+01  0.51100000000E-03 0.  1.
         12    1    3    3    0    0  0.88271365374E+01  0.10345069751E+02 -0.38848578283E+01  0.14143229050E+02  0.00000000000E+00 0. -1.
</event>
<event>
 7    1  0.2714068E-010  0.4778729E+02  0.7816164E-02  0.1312668E+00
        -11   -1    0    0    0    0  0.00000000000E+00  0.00000000000E+00  0.45593999997E+02  0.45594000000E+02  0.51100000000E-03 0. -1.
         11   -1    0    0    0    0 -0.00000000000E+00 -0.00000000000E+00 -0.45593999997E+02  0.45594000000E+02  0.51100000000E-03 0.  1.
    9900012    2    1    2    0    0  0.27987204644E+02 -0.32838830473E+02  0.46850233301E+01  0.47787287399E+02  0.20000074569E+02 0.  0.
        -12    1    1    2    0    0 -0.27987204644E+02  0.32838830473E+02 -0.46850233301E+01  0.43400712601E+02  0.00000000000E+00 0.  1.
         11    1    3    3    0    0  0.21203706700E+02 -0.23091794321E+02  0.42414392928E+01  0.31635706888E+02  0.51100000000E-03 0. -1.
        -11    1    3    3    0    0 -0.13667981338E+01 -0.14370862221E+01  0.35835872501E+01  0.40957846365E+01  0.51100000000E-03 0.  1.
        -12    1    3    3    0    0  0.81502960778E+01 -0.83099499306E+01 -0.31400032128E+01  0.12055795875E+02  0.00000000000E+00 0.  1.
</event>
<event>
 7    1  0.2714068E-010  0.4778727E+02  0.7816164E-02  0.1312668E+00
        -11   -1    0    0    0    0  0.00000000000E+00  0.00000000000E+00  0.45593999997E+02  0.45594000000E+02  0.51100000000E-03 0.  1.
         11   -1    0    0    0    0 -0.00000000000E+00 -0.00000000000E+00 -0.45593999997E+02  0.45594000000E+02  0.51100000000E-03 0. -1.
    9900012    2    1    2    0    0 -0.89497655933E+01  0.30823996365E+02 -0.29213121711E+02  0.47787268023E+02  0.19999986224E+02 0.  0.
        -12    1    1    2    0    0  0.89497655933E+01 -0.30823996365E+02  0.29213121711E+02  0.43400731977E+02  0.00000000000E+00 0.  1.
         11    1    3    3    0    0 -0.95037583250E+01  0.16215004728E+02 -0.22557998994E+02  0.29361728824E+02  0.51100000000E-03 0. -1.
        -11    1    3    3    0    0  0.46926939858E+01  0.95447830241E+01 -0.43452086349E+01  0.11489347160E+02  0.51100000000E-03 0.  1.
        -12    1    3    3    0    0 -0.41387012541E+01  0.50642086124E+01 -0.23099140814E+01  0.69361920392E+01  0.00000000000E+00 0.  1.
</event>
<event>
 7    1  0.2714068E-010  0.4778727E+02  0.7816164E-02  0.1312668E+00
        -11   -1    0    0    0    0  0.00000000000E+00  0.00000000000E+00  0.45593999997E+02  0.45594000000E+02  0.51100000000E-03 0.  1.
         11   -1    0    0    0    0 -0.00000000000E+00 -0.00000000000E+00 -0.45593999997E+02  0.45594000000E+02  0.51100000000E-03 0. -1.
    9900012    2    1    2    0    0 -0.40394578121E+02 -0.13808018239E+02 -0.78255879780E+01  0.47787272627E+02  0.20000007217E+02 0.  0.
        -12    1    1    2    0    0  0.40394578121E+02  0.13808018239E+02  0.78255879780E+01  0.43400727373E+02  0.00000000000E+00 0.  1.
         11    1    3    3    0    0 -0.10749630281E+02  0.11442417433E+01  0.22128768799E+01  0.11034521498E+02  0.51100000000E-03 0. -1.
        -11    1    3    3    0    0 -0.89629712204E+01 -0.75352704081E+01 -0.89782534482E+01  0.14755479947E+02  0.51100000000E-03 0.  1.
        -12    1    3    3    0    0 -0.20681976620E+02 -0.74169895740E+01 -0.10602114097E+01  0.21997271182E+02  0.00000000000E+00 0.  1.
</event>
<event>
 7    1  0.2714068E-010  0.4778727E+02  0.7816164E-02  0.1312668E+00
        -11   -1    0    0    0    0  0.00000000000E+00  0.00000000000E+00  0.45593999997E+02  0.45594000000E+02  0.51100000000E-03 0. -1.
         11   -1    0    0    0    0 -0.00000000000E+00 -0.00000000000E+00 -0.45593999997E+02  0.45594000000E+02  0.51100000000E-03 0.  1.
    9900012    2    1    2    0    0  0.33640796713E+02  0.16183318152E+02  0.22136399508E+02  0.47787272206E+02  0.20000005296E+02 0.  0.
        -12    1    1    2    0    0 -0.33640796713E+02 -0.16183318152E+02 -0.22136399508E+02  0.43400727794E+02  0.00000000000E+00 0.  1.
         11    1    3    3    0    0  0.32658593881E+02  0.16900771474E+02  0.22391922859E+02  0.43053664656E+02  0.51100000000E-03 0. -1.
        -11    1    3    3    0    0  0.15401708012E+01 -0.20113922190E+01 -0.14212661965E+01  0.29047930422E+01  0.51100000000E-03 0.  1.
        -12    1    3    3    0    0 -0.55796796941E+00  0.12939388970E+01  0.11657428452E+01  0.18288145081E+01  0.00000000000E+00 0.  1.
</event>
<event>
 7    1  0.2714068E-010  0.4778727E+02  0.7816164E-02  0.1312668E+00
        -11   -1    0    0    0    0  0.00000000000E+00  0.00000000000E+00  0.45593999997E+02  0.45594000000E+02  0.51100000000E-03 0. -1.
         11   -1    0    0    0    0 -0.00000000000E+00 -0.00000000000E+00 -0.45593999997E+02  0.45594000000E+02  0.51100000000E-03 0.  1.
    9900012    2    1    2    0    0  0.28589543416E+02  0.11874872815E+02  0.30417901881E+02  0.47787270145E+02  0.19999995901E+02 0.  0.
        -12    1    1    2    0    0 -0.28589543416E+02 -0.11874872815E+02 -0.30417901881E+02  0.43400729855E+02  0.00000000000E+00 0.  1.
         11    1    3    3    0    0  0.18168093483E+01  0.16930499325E+01 -0.20606611537E+01  0.32270015391E+01  0.51100000000E-03 0. -1.
        -11    1    3    3    0    0 -0.11799330303E+00 -0.87699718910E+00  0.31092961623E+01  0.32327649737E+01  0.51100000000E-03 0.  1.
         12    1    3    3    0    0  0.26890727370E+02  0.11058820072E+02  0.29369266872E+02  0.41327503633E+02  0.00000000000E+00 0. -1.
</event>
<event>
 7    1  0.2714068E-010  0.4778727E+02  0.7816164E-02  0.1312668E+00
        -11   -1    0    0    0    0  0.00000000000E+00  0.00000000000E+00  0.45593999997E+02  0.45594000000E+02  0.51100000000E-03 0. -1.
         11   -1    0    0    0    0 -0.00000000000E+00 -0.00000000000E+00 -0.45593999997E+02  0.45594000000E+02  0.51100000000E-03 0.  1.
    9900012    2    1    2    0    0 -0.68153377181E+01  0.14239023776E+02  0.40428022219E+02  0.47787267209E+02  0.19999982512E+02 0.  0.
        -12    1    1    2    0    0  0.68153377181E+01 -0.14239023776E+02 -0.40428022219E+02  0.43400732791E+02  0.00000000000E+00 0.  1.
         11    1    3    3    0    0 -0.13119884454E+02  0.11290869755E+02  0.33498358259E+02  0.37706168119E+02  0.51100000000E-03 0. -1.
        -11    1    3    3    0    0  0.45720754753E+01  0.19125399699E+01  0.33836994513E+01  0.60009253892E+01  0.51100000000E-03 0.  1.
         12    1    3    3    0    0  0.17324712609E+01  0.10356140511E+01  0.35459645088E+01  0.40801737010E+01  0.00000000000E+00 0. -1.
</event>
<event>
 7    1  0.2714068E-010  0.4778727E+02  0.7816164E-02  0.1312668E+00
        -11   -1    0    0    0    0  0.00000000000E+00  0.00000000000E+00  0.45593999997E+02  0.45594000000E+02  0.51100000000E-03 0. -1.
         11   -1    0    0    0    0 -0.00000000000E+00 -0.00000000000E+00 -0.45593999997E+02  0.45594000000E+02  0.51100000000E-03 0.  1.
    9900012    2    1    2    0    0 -0.38056709584E+02 -0.19405326417E+01  0.20773645616E+02  0.47787272316E+02  0.20000005797E+02 0.  0.
        -12    1    1    2    0    0  0.38056709584E+02  0.19405326417E+01 -0.20773645616E+02  0.43400727684E+02  0.00000000000E+00 0.  1.
         11    1    3    3    0    0 -0.11662952633E+02 -0.75603561415E+01  0.10558637738E+02  0.17454749504E+02  0.51100000000E-03 0.  1.
        -11    1    3    3    0    0 -0.19741113912E+02  0.77271797165E+01  0.97625978356E+01  0.23339434475E+02  0.51100000000E-03 0. -1.
        -12    1    3    3    0    0 -0.66526430398E+01 -0.21073562167E+01  0.45241004239E+00  0.69930883368E+01  0.00000000000E+00 0.  1.
</event>
<event>
 7    1  0.2714068E-010  0.4778727E+02  0.7816164E-02  0.1312668E+00
        -11   -1    0    0    0    0  0.00000000000E+00  0.00000000000E+00  0.45593999997E+02  0.45594000000E+02  0.51100000000E-03 0.  1.
         11   -1    0    0    0    0 -0.00000000000E+00 -0.00000000000E+00 -0.45593999997E+02  0.45594000000E+02  0.51100000000E-03 0. -1.
    9900012    2    1    2    0    0  0.32728216071E+02  0.23953666620E+02 -0.15450211792E+02  0.47787270557E+02  0.19999997778E+02 0.  0.
        -12    1    1    2    0    0 -0.32728216071E+02 -0.23953666620E+02  0.15450211792E+02  0.43400729443E+02  0.00000000000E+00 0.  1.
         11    1    3    3    0    0  0.21466881070E+02  0.14877564897E+02 -0.13130539239E+02  0.29233199980E+02  0.51100000000E-03 0. -1.
        -11    1    3    3    0    0  0.54086467164E+00 -0.19569082515E+01  0.17066268123E+01  0.26522820053E+01  0.51100000000E-03 0.  1.
        -12    1    3    3    0    0  0.10720470330E+02  0.11033009975E+02 -0.40262993654E+01  0.15901788572E+02  0.00000000000E+00 0.  1.
</event>
<event>
 7    1  0.2714068E-010  0.4778730E+02  0.7816164E-02  0.1312668E+00
        -11   -1    0    0    0    0  0.00000000000E+00  0.00000000000E+00  0.45593999997E+02  0.45594000000E+02  0.51100000000E-03 0.  1.
         11   -1    0    0    0    0 -0.00000000000E+00 -0.00000000000E+00 -0.45593999997E+02  0.45594000000E+02  0.51100000000E-03 0. -1.
    9900012    2    1    2    0    0 -0.37342473966E+01  0.14866285806E+02 -0.40603813346E+02  0.47787300518E+02  0.20000134380E+02 0.  0.
        -12    1    1    2    0    0  0.37342473966E+01 -0.14866285806E+02  0.40603813346E+02  0.43400699482E+02  0.00000000000E+00 0.  1.
         11    1    3    3    0    0  0.17888542383E+00  0.30800719721E+01 -0.49319970993E+01  0.58175114093E+01  0.51100000000E-03 0. -1.
        -11    1    3    3    0    0  0.53079240212E+01  0.58584819351E+01 -0.26571698765E+02  0.27722753174E+02  0.51100000000E-03 0.  1.
        -12    1    3    3    0    0 -0.92210568416E+01  0.59277318992E+01 -0.91001174817E+01  0.14247035935E+02  0.00000000000E+00 0.  1.
</event>
<event>
 7    1  0.2714068E-010  0.4778727E+02  0.7816164E-02  0.1312668E+00
        -11   -1    0    0    0    0  0.00000000000E+00  0.00000000000E+00  0.45593999997E+02  0.45594000000E+02  0.51100000000E-03 0. -1.
         11   -1    0    0    0    0 -0.00000000000E+00 -0.00000000000E+00 -0.45593999997E+02  0.45594000000E+02  0.51100000000E-03 0.  1.
    9900012    2    1    2    0    0  0.28461311684E+02 -0.12207472512E+02  0.30406493637E+02  0.47787268403E+02  0.19999987955E+02 0.  0.
        -12    1    1    2    0    0 -0.28461311684E+02  0.12207472512E+02 -0.30406493637E+02  0.43400731597E+02  0.00000000000E+00 0.  1.
         11    1    3    3    0    0  0.11112483233E+02 -0.23492821714E+01  0.19799836603E+02  0.22826299308E+02  0.51100000000E-03 0. -1.
        -11    1    3    3    0    0  0.15147711706E+02 -0.40737217178E+01  0.46246847680E+01  0.16353473271E+02  0.51100000000E-03 0.  1.
        -12    1    3    3    0    0  0.22011167452E+01 -0.57844686225E+01  0.59819722654E+01  0.86074958236E+01  0.00000000000E+00 0.  1.
</event>
<event>
 7    1  0.2714068E-010  0.4778727E+02  0.7816164E-02  0.1312668E+00
        -11   -1    0    0    0    0  0.00000000000E+00  0.00000000000E+00  0.45593999997E+02  0.45594000000E+02  0.51100000000E-03 0.  1.
         11   -1    0    0    0    0 -0.00000000000E+00 -0.00000000000E+00 -0.45593999997E+02  0.45594000000E+02  0.51100000000E-03 0. -1.
    9900012    2    1    2    0    0 -0.13268526320E+02 -0.40370091985E+02 -0.88218513333E+01  0.47787272142E+02  0.20000005006E+02 0.  0.
        -12    1    1    2    0    0  0.13268526320E+02  0.40370091985E+02  0.88218513333E+01  0.43400727858E+02  0.00000000000E+00 0.  1.
         11    1    3    3    0    0 -0.33034695912E+01 -0.36173337521E+01 -0.21421070721E+01  0.53466473405E+01  0.51100000000E-03 0. -1.
        -11    1    3    3    0    0 -0.68492141106E+01 -0.37315732640E+02 -0.37451007418E+01  0.38123502150E+02  0.51100000000E-03 0.  1.
        -12    1    3    3    0    0 -0.31158426184E+01  0.56297440620E+00 -0.29346435194E+01  0.43171226518E+01  0.00000000000E+00 0.  1.
</event>
<event>
 7    1  0.2714068E-010  0.4778727E+02  0.7816164E-02  0.1312668E+00
        -11   -1    0    0    0    0  0.00000000000E+00  0.00000000000E+00  0.45593999997E+02  0.45594000000E+02  0.51100000000E-03 0. -1.
         11   -1    0    0    0    0 -0.00000000000E+00 -0.00000000000E+00 -0.45593999997E+02  0.45594000000E+02  0.51100000000E-03 0.  1.
    9900012    2    1    2    0    0 -0.20855281288E+02  0.38047401069E+02 -0.10373730290E+01  0.47787266959E+02  0.19999981374E+02 0.  0.
        -12    1    1    2    0    0  0.20855281288E+02 -0.38047401069E+02  0.10373730290E+01  0.43400733041E+02  0.00000000000E+00 0.  1.
         11    1    3    3    0    0 -0.53027944039E+01 -0.47918642529E+00 -0.24738432450E+00  0.53301451561E+01  0.51100000000E-03 0. -1.
        -11    1    3    3    0    0 -0.54703101803E+01  0.51543164720E+01 -0.10843388857E+01  0.75938832519E+01  0.51100000000E-03 0.  1.
         12    1    3    3    0    0 -0.10082176703E+02  0.33372271022E+02  0.29435018114E+00  0.34863238551E+02  0.00000000000E+00 0. -1.
</event>
<event>
 7    1  0.2714068E-010  0.4778728E+02  0.7816164E-02  0.1312668E+00
        -11   -1    0    0    0    0  0.00000000000E+00  0.00000000000E+00  0.45593999997E+02  0.45594000000E+02  0.51100000000E-03 0.  1.
         11   -1    0    0    0    0 -0.00000000000E+00 -0.00000000000E+00 -0.45593999997E+02  0.45594000000E+02  0.51100000000E-03 0. -1.
    9900012    2    1    2    0    0 -0.62434605085E+01  0.40219007997E+02  0.15068942255E+02  0.47787280835E+02  0.20000044637E+02 0.  0.
        -12    1    1    2    0    0  0.62434605085E+01 -0.40219007997E+02 -0.15068942255E+02  0.43400719165E+02  0.00000000000E+00 0.  1.
         11    1    3    3    0    0 -0.56328622013E+01  0.30958170414E+02  0.46064335759E+01  0.31801834578E+02  0.51100000000E-03 0. -1.
        -11    1    3    3    0    0  0.25280077651E+01  0.27225618558E+01  0.70523897011E+01  0.79711584526E+01  0.51100000000E-03 0.  1.
        -12    1    3    3    0    0 -0.31386060723E+01  0.65382757273E+01  0.34101189776E+01  0.80142878040E+01  0.00000000000E+00 0.  1.
</event>
<event>
 7    1  0.2714068E-010  0.4778730E+02  0.7816164E-02  0.1312668E+00
        -11   -1    0    0    0    0  0.00000000000E+00  0.00000000000E+00  0.45593999997E+02  0.45594000000E+02  0.51100000000E-03 0.  1.
         11   -1    0    0    0    0 -0.00000000000E+00 -0.00000000000E+00 -0.45593999997E+02  0.45594000000E+02  0.51100000000E-03 0. -1.
    9900012    2    1    2    0    0 -0.32776547857E+02 -0.16498319558E+02 -0.23175937358E+02  0.47787300581E+02  0.20000134667E+02 0.  0.
        -12    1    1    2    0    0  0.32776547857E+02  0.16498319558E+02  0.23175937358E+02  0.43400699419E+02  0.00000000000E+00 0.  1.
         11    1    3    3    0    0 -0.17107099102E+02 -0.10159735580E+02 -0.20836197102E+02  0.28810070751E+02  0.51100000000E-03 0. -1.
        -11    1    3    3    0    0 -0.64975054636E+01 -0.69747719477E+01 -0.18491508002E+00  0.95341079720E+01  0.51100000000E-03 0.  1.
         12    1    3    3    0    0 -0.91719432917E+01  0.63618796991E+00 -0.21548251757E+01  0.94431218576E+01  0.00000000000E+00 0. -1.
</event>
<event>
 7    1  0.2714068E-010  0.4778728E+02  0.7816164E-02  0.1312668E+00
        -11   -1    0    0    0    0  0.00000000000E+00  0.00000000000E+00  0.45593999997E+02  0.45594000000E+02  0.51100000000E-03 0. -1.
         11   -1    0    0    0    0 -0.00000000000E+00 -0.00000000000E+00 -0.45593999997E+02  0.45594000000E+02  0.51100000000E-03 0.  1.
    9900012    2    1    2    0    0 -0.32722067946E+01 -0.41878639354E+02  0.10913065132E+02  0.47787276941E+02  0.20000026886E+02 0.  0.
        -12    1    1    2    0    0  0.32722067946E+01  0.41878639354E+02 -0.10913065132E+02  0.43400723059E+02  0.00000000000E+00 0.  1.
         11    1    3    3    0    0  0.95450780446E+00 -0.24292984756E+02  0.19039849885E+01  0.24386171340E+02  0.51100000000E-03 0. -1.
        -11    1    3    3    0    0 -0.37552315926E+01 -0.87696148375E+00  0.48126579623E+01  0.61670497551E+01  0.51100000000E-03 0.  1.
        -12    1    3    3    0    0 -0.47148300641E+00 -0.16708693114E+02  0.41964221809E+01  0.17234055847E+02  0.00000000000E+00 0.  1.
</event>
<event>
 7    1  0.2714068E-010  0.4778727E+02  0.7816164E-02  0.1312668E+00
        -11   -1    0    0    0    0  0.00000000000E+00  0.00000000000E+00  0.45593999997E+02  0.45594000000E+02  0.51100000000E-03 0.  1.
         11   -1    0    0    0    0 -0.00000000000E+00 -0.00000000000E+00 -0.45593999997E+02  0.45594000000E+02  0.51100000000E-03 0. -1.
    9900012    2    1    2    0    0 -0.85139453789E+01  0.41877811831E+02 -0.75752847616E+01  0.47787270411E+02  0.19999997112E+02 0.  0.
        -12    1    1    2    0    0  0.85139453789E+01 -0.41877811831E+02  0.75752847616E+01  0.43400729589E+02  0.00000000000E+00 0.  1.
         11    1    3    3    0    0 -0.70423463873E+01  0.17757328871E+02 -0.33667068576E+01  0.19397218527E+02  0.51100000000E-03 0. -1.
        -11    1    3    3    0    0  0.46802783719E+01  0.98382102526E+01 -0.64769517622E+01  0.12674631790E+02  0.51100000000E-03 0.  1.
        -12    1    3    3    0    0 -0.61518773635E+01  0.14282272707E+02  0.22683738581E+01  0.15715420094E+02  0.00000000000E+00 0.  1.
</event>
<event>
 7    1  0.2714068E-010  0.4778728E+02  0.7816164E-02  0.1312668E+00
        -11   -1    0    0    0    0  0.00000000000E+00  0.00000000000E+00  0.45593999997E+02  0.45594000000E+02  0.51100000000E-03 0.  1.
         11   -1    0    0    0    0 -0.00000000000E+00 -0.00000000000E+00 -0.45593999997E+02  0.45594000000E+02  0.51100000000E-03 0. -1.
    9900012    2    1    2    0    0 -0.17609746790E+01 -0.40769000355E+02 -0.14778717624E+02  0.47787275163E+02  0.20000018779E+02 0.  0.
        -12    1    1    2    0    0  0.17609746790E+01  0.40769000355E+02  0.14778717624E+02  0.43400724837E+02  0.00000000000E+00 0.  1.
         11    1    3    3    0    0  0.18932818150E+00 -0.28253364324E+02 -0.66405483690E+01  0.29023875063E+02  0.51100000000E-03 0. -1.
        -11    1    3    3    0    0 -0.42648140123E+01 -0.26254521394E+01  0.99228391336E+00  0.51055132084E+01  0.51100000000E-03 0.  1.
        -12    1    3    3    0    0  0.23145111518E+01 -0.98901838913E+01 -0.91304531688E+01  0.13657886892E+02  0.00000000000E+00 0.  1.
</event>
<event>
 7    1  0.2714068E-010  0.4778727E+02  0.7816164E-02  0.1312668E+00
        -11   -1    0    0    0    0  0.00000000000E+00  0.00000000000E+00  0.45593999997E+02  0.45594000000E+02  0.51100000000E-03 0.  1.
         11   -1    0    0    0    0 -0.00000000000E+00 -0.00000000000E+00 -0.45593999997E+02  0.45594000000E+02  0.51100000000E-03 0. -1.
    9900012    2    1    2    0    0  0.33264424070E+02 -0.27866466905E+02 -0.74933533178E+00  0.47787269708E+02  0.19999993905E+02 0.  0.
        -12    1    1    2    0    0 -0.33264424070E+02  0.27866466905E+02  0.74933533178E+00  0.43400730292E+02  0.00000000000E+00 0.  1.
         11    1    3    3    0    0  0.16304548164E+02 -0.18305508783E+02  0.55436046604E+01  0.25132876786E+02  0.51100000000E-03 0. -1.
        -11    1    3    3    0    0  0.90641210933E+01 -0.15409556385E+00 -0.51038701629E+00  0.90797869911E+01  0.51100000000E-03 0.  1.
         12    1    3    3    0    0  0.78957548127E+01 -0.94068625585E+01 -0.57825529759E+01  0.13574605931E+02  0.00000000000E+00 0. -1.
</event>
<event>
 7    1  0.2714068E-010  0.4778727E+02  0.7816164E-02  0.1312668E+00
        -11   -1    0    0    0    0  0.00000000000E+00  0.00000000000E+00  0.45593999997E+02  0.45594000000E+02  0.51100000000E-03 0. -1.
         11   -1    0    0    0    0 -0.00000000000E+00 -0.00000000000E+00 -0.45593999997E+02  0.45594000000E+02  0.51100000000E-03 0.  1.
    9900012    2    1    2    0    0 -0.33844061552E+02  0.15432061835E+02  0.22361889715E+02  0.47787272512E+02  0.20000006691E+02 0.  0.
        -12    1    1    2    0    0  0.33844061552E+02 -0.15432061835E+02 -0.22361889715E+02  0.43400727488E+02  0.00000000000E+00 0.  1.
         11    1    3    3    0    0 -0.13925543242E+02  0.39036513021E+01  0.18381290152E+02  0.23388695474E+02  0.51100000000E-03 0. -1.
        -11    1    3    3    0    0 -0.17879379704E+02  0.73687845932E+01  0.40839688885E+01  0.19764868001E+02  0.51100000000E-03 0.  1.
         12    1    3    3    0    0 -0.20391386072E+01  0.41596259398E+01 -0.10336932535E+00  0.46337090366E+01  0.00000000000E+00 0. -1.
</event>
<event>
 7    1  0.2714068E-010  0.4778727E+02  0.7816164E-02  0.1312668E+00
        -11   -1    0    0    0    0  0.00000000000E+00  0.00000000000E+00  0.45593999997E+02  0.45594000000E+02  0.51100000000E-03 0. -1.
         11   -1    0    0    0    0 -0.00000000000E+00 -0.00000000000E+00 -0.45593999997E+02  0.45594000000E+02  0.51100000000E-03 0.  1.
    9900012    2    1    2    0    0  0.91245631226E+00 -0.11554492902E+02  0.41824451654E+02  0.47787266839E+02  0.19999980828E+02 0.  0.
        -12    1    1    2    0    0 -0.91245631226E+00  0.11554492902E+02 -0.41824451654E+02  0.43400733161E+02  0.00000000000E+00 0.  1.
         11    1    3    3    0    0 -0.60959901452E+01 -0.45144603779E+01  0.92882777078E+01  0.11992228792E+02  0.51100000000E-03 0. -1.
        -11    1    3    3    0    0 -0.26190935924E+01 -0.64996569522E+00  0.27815607282E+01  0.38754595852E+01  0.51100000000E-03 0.  1.
         12    1    3    3    0    0  0.96275400499E+01 -0.63900668287E+01  0.29754613218E+02  0.31919578462E+02  0.00000000000E+00 0. -1.
</event>
<event>
 7    1  0.2714068E-010  0.4778724E+02  0.7816164E-02  0.1312668E+00
        -11   -1    0    0    0    0  0.00000000000E+00  0.00000000000E+00  0.45593999997E+02  0.45594000000E+02  0.51100000000E-03 0.  1.
         11   -1    0    0    0    0 -0.00000000000E+00 -0.00000000000E+00 -0.45593999997E+02  0.45594000000E+02  0.51100000000E-03 0. -1.
    9900012    2    1    2    0    0 -0.37380655517E+02  0.12654468445E+02 -0.18060369219E+02  0.47787240619E+02  0.19999861280E+02 0.  0.
        -12    1    1    2    0    0  0.37380655517E+02 -0.12654468445E+02  0.18060369219E+02  0.43400759381E+02  0.00000000000E+00 0.  1.
         11    1    3    3    0    0 -0.25421644113E+02 -0.62877277187E+00 -0.13856404920E+02  0.28959545960E+02  0.51100000000E-03 0. -1.
        -11    1    3    3    0    0 -0.11795691893E+02  0.12935283587E+02 -0.47693225325E+01  0.18144044378E+02  0.51100000000E-03 0.  1.
         12    1    3    3    0    0 -0.16331951039E+00  0.34795762955E+00  0.56535823400E+00  0.68365028135E+00  0.00000000000E+00 0. -1.
</event>
<event>
 7    1  0.2714068E-010  0.4778728E+02  0.7816164E-02  0.1312668E+00
        -11   -1    0    0    0    0  0.00000000000E+00  0.00000000000E+00  0.45593999997E+02  0.45594000000E+02  0.51100000000E-03 0. -1.
         11   -1    0    0    0    0 -0.00000000000E+00 -0.00000000000E+00 -0.45593999997E+02  0.45594000000E+02  0.51100000000E-03 0.  1.
    9900012    2    1    2    0    0  0.38964952395E+02 -0.40834250547E+01 -0.18673000513E+02  0.47787276233E+02  0.20000023659E+02 0.  0.
        -12    1    1    2    0    0 -0.38964952395E+02  0.40834250547E+01  0.18673000513E+02  0.43400723767E+02  0.00000000000E+00 0.  1.
         11    1    3    3    0    0  0.73033551264E+01  0.47396897550E+01 -0.89720098343E+01  0.12502024468E+02  0.51100000000E-03 0.  1.
        -11    1    3    3    0    0  0.27745316304E+02 -0.53067938274E+01 -0.10117683886E+02  0.30005535573E+02  0.51100000000E-03 0. -1.
         12    1    3    3    0    0  0.39162809649E+01 -0.35163209822E+01  0.41669320773E+00  0.52797161927E+01  0.00000000000E+00 0. -1.
</event>
<event>
 7    1  0.2714068E-010  0.4778727E+02  0.7816164E-02  0.1312668E+00
        -11   -1    0    0    0    0  0.00000000000E+00  0.00000000000E+00  0.45593999997E+02  0.45594000000E+02  0.51100000000E-03 0.  1.
         11   -1    0    0    0    0 -0.00000000000E+00 -0.00000000000E+00 -0.45593999997E+02  0.45594000000E+02  0.51100000000E-03 0. -1.
    9900012    2    1    2    0    0 -0.27913510986E+02  0.17144960390E+02 -0.28469450285E+02  0.47787270031E+02  0.19999995377E+02 0.  0.
        -12    1    1    2    0    0  0.27913510986E+02 -0.17144960390E+02  0.28469450285E+02  0.43400729969E+02  0.00000000000E+00 0.  1.
         11    1    3    3    0    0  0.20138629062E+01  0.36020460495E+01 -0.50272166354E+01  0.65040977013E+01  0.51100000000E-03 0. -1.
        -11    1    3    3    0    0 -0.47602758631E+01 -0.10379778664E+01 -0.28327480066E+01  0.56357861807E+01  0.51100000000E-03 0.  1.
         12    1    3    3    0    0 -0.25167098029E+02  0.14580892207E+02 -0.20609485643E+02  0.35647386149E+02  0.00000000000E+00 0. -1.
</event>
<event>
 7    1  0.2714068E-010  0.4778729E+02  0.7816164E-02  0.1312668E+00
        -11   -1    0    0    0    0  0.00000000000E+00  0.00000000000E+00  0.45593999997E+02  0.45594000000E+02  0.51100000000E-03 0.  1.
         11   -1    0    0    0    0 -0.00000000000E+00 -0.00000000000E+00 -0.45593999997E+02  0.45594000000E+02  0.51100000000E-03 0. -1.
    9900012    2    1    2    0    0 -0.73132078137E+01 -0.29679725529E+02 -0.30809947008E+02  0.47787286289E+02  0.20000069505E+02 0.  0.
        -12    1    1    2    0    0  0.73132078137E+01  0.29679725529E+02  0.30809947008E+02  0.43400713711E+02  0.00000000000E+00 0.  1.
         11    1    3    3    0    0  0.37068432092E+01 -0.13461530195E+02 -0.15773570458E+02  0.21065588219E+02  0.51100000000E-03 0. -1.
        -11    1    3    3    0    0 -0.46080654976E+01 -0.18997809451E+00 -0.47771201421E+01  0.66401232233E+01  0.51100000000E-03 0.  1.
         12    1    3    3    0    0 -0.64119855253E+01 -0.16028217240E+02 -0.10259256408E+02  0.20081574846E+02  0.00000000000E+00 0. -1.
</event>
<event>
 7    1  0.2714068E-010  0.4778727E+02  0.7816164E-02  0.1312668E+00
        -11   -1    0    0    0    0  0.00000000000E+00  0.00000000000E+00  0.45593999997E+02  0.45594000000E+02  0.51100000000E-03 0.  1.
         11   -1    0    0    0    0 -0.00000000000E+00 -0.00000000000E+00 -0.45593999997E+02  0.45594000000E+02  0.51100000000E-03 0. -1.
    9900012    2    1    2    0    0 -0.33748190713E+02 -0.10813623811E+02 -0.25054905875E+02  0.47787272532E+02  0.20000006783E+02 0.  0.
        -12    1    1    2    0    0  0.33748190713E+02  0.10813623811E+02  0.25054905875E+02  0.43400727468E+02  0.00000000000E+00 0.  1.
         11    1    3    3    0    0 -0.24711796519E+02 -0.29346738769E+01 -0.89602128704E+01  0.26449397213E+02  0.51100000000E-03 0. -1.
        -11    1    3    3    0    0 -0.10154355173E+02 -0.61726002255E+01 -0.12825574479E+02  0.17484486938E+02  0.51100000000E-03 0.  1.
         12    1    3    3    0    0  0.11179609790E+01 -0.17063497087E+01 -0.32691185254E+01  0.38533883806E+01  0.00000000000E+00 0. -1.
</event>
<event>
 7    1  0.2714068E-010  0.4778727E+02  0.7816164E-02  0.1312668E+00
        -11   -1    0    0    0    0  0.00000000000E+00  0.00000000000E+00  0.45593999997E+02  0.45594000000E+02  0.51100000000E-03 0.  1.
         11   -1    0    0    0    0 -0.00000000000E+00 -0.00000000000E+00 -0.45593999997E+02  0.45594000000E+02  0.51100000000E-03 0. -1.
    9900012    2    1    2    0    0  0.80749491746E+01 -0.18858937992E+02 -0.38246037763E+02  0.47787265549E+02  0.19999974942E+02 0.  0.
        -12    1    1    2    0    0 -0.80749491746E+01  0.18858937992E+02  0.38246037763E+02  0.43400734451E+02  0.00000000000E+00 0.  1.
         11    1    3    3    0    0  0.44871349954E+01 -0.58517293798E+01 -0.17915285082E+02  0.19373553031E+02  0.51100000000E-03 0. -1.
        -11    1    3    3    0    0 -0.37887327784E+01 -0.35772696529E+01 -0.48092866906E+00  0.52328430974E+01  0.51100000000E-03 0.  1.
        -12    1    3    3    0    0  0.73765469577E+01 -0.94299389590E+01 -0.19849824012E+02  0.23180869421E+02  0.00000000000E+00 0.  1.
</event>
<event>
 7    1  0.2714068E-010  0.4778727E+02  0.7816164E-02  0.1312668E+00
        -11   -1    0    0    0    0  0.00000000000E+00  0.00000000000E+00  0.45593999997E+02  0.45594000000E+02  0.51100000000E-03 0. -1.
         11   -1    0    0    0    0 -0.00000000000E+00 -0.00000000000E+00 -0.45593999997E+02  0.45594000000E+02  0.51100000000E-03 0.  1.
    9900012    2    1    2    0    0 -0.20509126407E+02 -0.38232273018E+02  0.11367640537E+01  0.47787271911E+02  0.20000003952E+02 0.  0.
        -12    1    1    2    0    0  0.20509126407E+02  0.38232273018E+02 -0.11367640537E+01  0.43400728089E+02  0.00000000000E+00 0.  1.
         11    1    3    3    0    0 -0.89131608148E+01 -0.29018215542E+02 -0.21145846944E+01  0.30429800158E+02  0.51100000000E-03 0.  1.
        -11    1    3    3    0    0 -0.10469763911E+02 -0.93524330480E+01  0.53079634011E+01  0.15008612061E+02  0.51100000000E-03 0. -1.
        -12    1    3    3    0    0 -0.11262016806E+01  0.13837557140E+00 -0.20566146530E+01  0.23488596925E+01  0.00000000000E+00 0.  1.
</event>
<event>
 7    1  0.2714068E-010  0.4778725E+02  0.7816164E-02  0.1312668E+00
        -11   -1    0    0    0    0  0.00000000000E+00  0.00000000000E+00  0.45593999997E+02  0.45594000000E+02  0.51100000000E-03 0. -1.
         11   -1    0    0    0    0 -0.00000000000E+00 -0.00000000000E+00 -0.45593999997E+02  0.45594000000E+02  0.51100000000E-03 0.  1.
    9900012    2    1    2    0    0  0.30281241425E+01 -0.38647369693E+02 -0.19515036072E+02  0.47787247093E+02  0.19999890793E+02 0.  0.
        -12    1    1    2    0    0 -0.30281241425E+01  0.38647369693E+02  0.19515036072E+02  0.43400752907E+02  0.00000000000E+00 0.  1.
         11    1    3    3    0    0 -0.33954777103E+01 -0.83038829403E+00 -0.22874829732E+01  0.41774863511E+01  0.51100000000E-03 0. -1.
        -11    1    3    3    0    0  0.51506701718E+00 -0.30214019784E+02 -0.11079738597E+02  0.32185600712E+02  0.51100000000E-03 0.  1.
        -12    1    3    3    0    0  0.59085348356E+01 -0.76029616150E+01 -0.61478145020E+01  0.11424160029E+02  0.00000000000E+00 0.  1.
</event>
<event>
 7    1  0.2714068E-010  0.4778726E+02  0.7816164E-02  0.1312668E+00
        -11   -1    0    0    0    0  0.00000000000E+00  0.00000000000E+00  0.45593999997E+02  0.45594000000E+02  0.51100000000E-03 0.  1.
         11   -1    0    0    0    0 -0.00000000000E+00 -0.00000000000E+00 -0.45593999997E+02  0.45594000000E+02  0.51100000000E-03 0. -1.
    9900012    2    1    2    0    0  0.36405462181E+01  0.42747152463E+02 -0.65613517330E+01  0.47787263174E+02  0.19999964115E+02 0.  0.
        -12    1    1    2    0    0 -0.36405462181E+01 -0.42747152463E+02  0.65613517330E+01  0.43400736826E+02  0.00000000000E+00 0.  1.
         11    1    3    3    0    0  0.11831405542E+02  0.22186572723E+02 -0.44710626456E+01  0.25538531041E+02  0.51100000000E-03 0. -1.
        -11    1    3    3    0    0 -0.50369437049E+01  0.13531257177E+02 -0.10864656176E+01  0.14479161940E+02  0.51100000000E-03 0.  1.
         12    1    3    3    0    0 -0.31539156188E+01  0.70293225635E+01 -0.10038234698E+01  0.77695701934E+01  0.00000000000E+00 0. -1.
</event>
<event>
 7    1  0.2714068E-010  0.4778727E+02  0.7816164E-02  0.1312668E+00
        -11   -1    0    0    0    0  0.00000000000E+00  0.00000000000E+00  0.45593999997E+02  0.45594000000E+02  0.51100000000E-03 0.  1.
         11   -1    0    0    0    0 -0.00000000000E+00 -0.00000000000E+00 -0.45593999997E+02  0.45594000000E+02  0.51100000000E-03 0. -1.
    9900012    2    1    2    0    0  0.19070299196E+02 -0.37678966444E+02 -0.10012110320E+02  0.47787272163E+02  0.20000005101E+02 0.  0.
        -12    1    1    2    0    0 -0.19070299196E+02  0.37678966444E+02  0.10012110320E+02  0.43400727837E+02  0.00000000000E+00 0.  1.
         11    1    3    3    0    0 -0.13980684326E+01  0.52132884357E-01  0.14461251805E+01  0.20121111993E+01  0.51100000000E-03 0.  1.
        -11    1    3    3    0    0  0.21367134345E+02 -0.37210118392E+02 -0.12064423129E+02  0.44572386593E+02  0.51100000000E-03 0. -1.
         12    1    3    3    0    0 -0.89876671677E+00 -0.52098093623E+00  0.60618762845E+00  0.12027743712E+01  0.00000000000E+00 0. -1.
</event>
<event>
 7    1  0.2714068E-010  0.4778727E+02  0.7816164E-02  0.1312668E+00
        -11   -1    0    0    0    0  0.00000000000E+00  0.00000000000E+00  0.45593999997E+02  0.45594000000E+02  0.51100000000E-03 0. -1.
         11   -1    0    0    0    0 -0.00000000000E+00 -0.00000000000E+00 -0.45593999997E+02  0.45594000000E+02  0.51100000000E-03 0.  1.
    9900012    2    1    2    0    0  0.46330585246E+00 -0.39975131859E+02  0.16893706526E+02  0.47787272591E+02  0.20000007051E+02 0.  0.
        -12    1    1    2    0    0 -0.46330585246E+00  0.39975131859E+02 -0.16893706526E+02  0.43400727409E+02  0.00000000000E+00 0.  1.
         11    1    3    3    0    0  0.84607698873E+01 -0.19614508956E+02  0.61466665291E+01  0.22228250007E+02  0.51100000000E-03 0.  1.
        -11    1    3    3    0    0 -0.63589092298E+01 -0.19342056969E+02  0.73391108065E+01  0.21642861227E+02  0.51100000000E-03 0. -1.
        -12    1    3    3    0    0 -0.16385548051E+01 -0.10185659334E+01  0.34079291904E+01  0.39161613574E+01  0.00000000000E+00 0.  1.
</event>
<event>
 7    1  0.2714068E-010  0.4778726E+02  0.7816164E-02  0.1312668E+00
        -11   -1    0    0    0    0  0.00000000000E+00  0.00000000000E+00  0.45593999997E+02  0.45594000000E+02  0.51100000000E-03 0. -1.
         11   -1    0    0    0    0 -0.00000000000E+00 -0.00000000000E+00 -0.45593999997E+02  0.45594000000E+02  0.51100000000E-03 0.  1.
    9900012    2    1    2    0    0 -0.32480890727E+02  0.28782512960E+02  0.42721847872E+00  0.47787264634E+02  0.19999970771E+02 0.  0.
        -12    1    1    2    0    0  0.32480890727E+02 -0.28782512960E+02 -0.42721847872E+00  0.43400735366E+02  0.00000000000E+00 0.  1.
         11    1    3    3    0    0 -0.14417524105E+02  0.17906307282E+02  0.54248589013E+01  0.23620540556E+02  0.51100000000E-03 0. -1.
        -11    1    3    3    0    0 -0.15820647189E+02  0.54201030967E+01 -0.67174930959E+01  0.18022072822E+02  0.51100000000E-03 0.  1.
         12    1    3    3    0    0 -0.22427194333E+01  0.54561025814E+01  0.17198526733E+01  0.61446512556E+01  0.00000000000E+00 0. -1.
</event>
<event>
 7    1  0.2714068E-010  0.4778727E+02  0.7816164E-02  0.1312668E+00
        -11   -1    0    0    0    0  0.00000000000E+00  0.00000000000E+00  0.45593999997E+02  0.45594000000E+02  0.51100000000E-03 0.  1.
         11   -1    0    0    0    0 -0.00000000000E+00 -0.00000000000E+00 -0.45593999997E+02  0.45594000000E+02  0.51100000000E-03 0. -1.
    9900012    2    1    2    0    0 -0.10497495444E+02 -0.24885024715E+02 -0.33972948145E+02  0.47787273377E+02  0.20000010637E+02 0.  0.
        -12    1    1    2    0    0  0.10497495444E+02  0.24885024715E+02  0.33972948145E+02  0.43400726623E+02  0.00000000000E+00 0.  1.
         11    1    3    3    0    0 -0.24740903890E+01 -0.14909291259E+02 -0.98437458791E+01  0.18036280722E+02  0.51100000000E-03 0. -1.
        -11    1    3    3    0    0 -0.72402966935E+01 -0.67823188775E+01 -0.24509342065E+02  0.26441058873E+02  0.51100000000E-03 0.  1.
        -12    1    3    3    0    0 -0.78310836135E+00 -0.31934145793E+01  0.38013979901E+00  0.33099337830E+01  0.00000000000E+00 0.  1.
</event>
<event>
 7    1  0.2714068E-010  0.4778727E+02  0.7816164E-02  0.1312668E+00
        -11   -1    0    0    0    0  0.00000000000E+00  0.00000000000E+00  0.45593999997E+02  0.45594000000E+02  0.51100000000E-03 0. -1.
         11   -1    0    0    0    0 -0.00000000000E+00 -0.00000000000E+00 -0.45593999997E+02  0.45594000000E+02  0.51100000000E-03 0.  1.
    9900012    2    1    2    0    0  0.26574313223E+02  0.12432075378E+02  0.31982379791E+02  0.47787271451E+02  0.20000001855E+02 0.  0.
        -12    1    1    2    0    0 -0.26574313223E+02 -0.12432075378E+02 -0.31982379791E+02  0.43400728549E+02  0.00000000000E+00 0.  1.
         11    1    3    3    0    0  0.16418725226E+02  0.15277265794E+02  0.19853517322E+02  0.29952154155E+02  0.51100000000E-03 0. -1.
        -11    1    3    3    0    0  0.92793572960E+01 -0.40129578203E+01  0.12730063597E+02  0.16256224093E+02  0.51100000000E-03 0.  1.
         12    1    3    3    0    0  0.87623070102E+00  0.11677674045E+01 -0.60120112881E+00  0.15788932040E+01  0.00000000000E+00 0. -1.
</event>
<event>
 7    1  0.2714068E-010  0.4778727E+02  0.7816164E-02  0.1312668E+00
        -11   -1    0    0    0    0  0.00000000000E+00  0.00000000000E+00  0.45593999997E+02  0.45594000000E+02  0.51100000000E-03 0.  1.
         11   -1    0    0    0    0 -0.00000000000E+00 -0.00000000000E+00 -0.45593999997E+02  0.45594000000E+02  0.51100000000E-03 0. -1.
    9900012    2    1    2    0    0  0.29413107884E+02 -0.26193008551E+02 -0.18232345892E+02  0.47787273634E+02  0.20000011809E+02 0.  0.
        -12    1    1    2    0    0 -0.29413107884E+02  0.26193008551E+02  0.18232345892E+02  0.43400726366E+02  0.00000000000E+00 0.  1.
         11    1    3    3    0    0  0.10042586818E+02 -0.76830051906E-01 -0.13776606850E+01  0.10136932578E+02  0.51100000000E-03 0. -1.
        -11    1    3    3    0    0  0.58074217406E+01 -0.12344694860E+02 -0.32813752260E+01  0.14031573757E+02  0.51100000000E-03 0.  1.
         12    1    3    3    0    0  0.13563099325E+02 -0.13771483638E+02 -0.13573309981E+02  0.23618767300E+02  0.00000000000E+00 0. -1.
</event>
<event>
 7    1  0.2714068E-010  0.4778727E+02  0.7816164E-02  0.1312668E+00
        -11   -1    0    0    0    0  0.00000000000E+00  0.00000000000E+00  0.45593999997E+02  0.45594000000E+02  0.51100000000E-03 0.  1.
         11   -1    0    0    0    0 -0.00000000000E+00 -0.00000000000E+00 -0.45593999997E+02  0.45594000000E+02  0.51100000000E-03 0. -1.
    9900012    2    1    2    0    0 -0.28524546690E+02  0.26623133806E+02 -0.19004791741E+02  0.47787272741E+02  0.20000007735E+02 0.  0.
        -12    1    1    2    0    0  0.28524546690E+02 -0.26623133806E+02  0.19004791741E+02  0.43400727259E+02  0.00000000000E+00 0.  1.
         11    1    3    3    0    0 -0.77140052722E+01  0.49186355217E+01 -0.67933212449E+01  0.11395089580E+02  0.51100000000E-03 0. -1.
        -11    1    3    3    0    0 -0.14806341178E+02  0.37163953712E+01 -0.64525869071E+01  0.16573328323E+02  0.51100000000E-03 0.  1.
        -12    1    3    3    0    0 -0.60042002396E+01  0.17988102913E+02 -0.57588835885E+01  0.19818854838E+02  0.00000000000E+00 0.  1.
</event>
<event>
 7    1  0.2714068E-010  0.4778727E+02  0.7816164E-02  0.1312668E+00
        -11   -1    0    0    0    0  0.00000000000E+00  0.00000000000E+00  0.45593999997E+02  0.45594000000E+02  0.51100000000E-03 0. -1.
         11   -1    0    0    0    0 -0.00000000000E+00 -0.00000000000E+00 -0.45593999997E+02  0.45594000000E+02  0.51100000000E-03 0.  1.
    9900012    2    1    2    0    0  0.34568323475E+02 -0.26065874908E+02 -0.30371498250E+01  0.47787273029E+02  0.20000009048E+02 0.  0.
        -12    1    1    2    0    0 -0.34568323475E+02  0.26065874908E+02  0.30371498250E+01  0.43400726971E+02  0.00000000000E+00 0.  1.
         11    1    3    3    0    0  0.21950373459E+02 -0.24214567704E+02 -0.23295740236E+01  0.32765700046E+02  0.51100000000E-03 0. -1.
        -11    1    3    3    0    0  0.57686795332E+01 -0.95976446663E+00  0.36134289349E+01  0.68742767122E+01  0.51100000000E-03 0.  1.
         12    1    3    3    0    0  0.68492704828E+01 -0.89154273646E+00 -0.43210047362E+01  0.81472962710E+01  0.00000000000E+00 0. -1.
</event>
<event>
 7    1  0.2714068E-010  0.4778727E+02  0.7816164E-02  0.1312668E+00
        -11   -1    0    0    0    0  0.00000000000E+00  0.00000000000E+00  0.45593999997E+02  0.45594000000E+02  0.51100000000E-03 0. -1.
         11   -1    0    0    0    0 -0.00000000000E+00 -0.00000000000E+00 -0.45593999997E+02  0.45594000000E+02  0.51100000000E-03 0.  1.
    9900012    2    1    2    0    0  0.89286869541E+01  0.25858845012E+02  0.33693052136E+02  0.47787273297E+02  0.20000010271E+02 0.  0.
        -12    1    1    2    0    0 -0.89286869541E+01 -0.25858845012E+02 -0.33693052136E+02  0.43400726703E+02  0.00000000000E+00 0.  1.
         11    1    3    3    0    0  0.30469777336E+01  0.28665073412E+01  0.89155170616E+01  0.98482172185E+01  0.51100000000E-03 0. -1.
        -11    1    3    3    0    0 -0.26969034193E+00 -0.13877965667E+01  0.70091852024E+01  0.71503419256E+01  0.51100000000E-03 0.  1.
        -12    1    3    3    0    0  0.61513995624E+01  0.24380134238E+02  0.17768349872E+02  0.30788714153E+02  0.00000000000E+00 0.  1.
</event>
<event>
 7    1  0.2714068E-010  0.4778726E+02  0.7816164E-02  0.1312668E+00
        -11   -1    0    0    0    0  0.00000000000E+00  0.00000000000E+00  0.45593999997E+02  0.45594000000E+02  0.51100000000E-03 0. -1.
         11   -1    0    0    0    0 -0.00000000000E+00 -0.00000000000E+00 -0.45593999997E+02  0.45594000000E+02  0.51100000000E-03 0.  1.
    9900012    2    1    2    0    0 -0.11694530629E+02 -0.16213562538E+02  0.38522492708E+02  0.47787261512E+02  0.19999956538E+02 0.  0.
        -12    1    1    2    0    0  0.11694530629E+02  0.16213562538E+02 -0.38522492708E+02  0.43400738488E+02  0.00000000000E+00 0.  1.
         11    1    3    3    0    0 -0.52212838760E+01 -0.16458933060E+02  0.22966996122E+02  0.28733972818E+02  0.51100000000E-03 0. -1.
        -11    1    3    3    0    0  0.70789243246E+00 -0.27737426045E+01  0.22744523614E+01  0.36562130049E+01  0.51100000000E-03 0.  1.
         12    1    3    3    0    0 -0.71811391856E+01  0.30191131257E+01  0.13281044225E+02  0.15397075689E+02  0.00000000000E+00 0. -1.
</event>
<event>
 7    1  0.2714068E-010  0.4778728E+02  0.7816164E-02  0.1312668E+00
        -11   -1    0    0    0    0  0.00000000000E+00  0.00000000000E+00  0.45593999997E+02  0.45594000000E+02  0.51100000000E-03 0.  1.
         11   -1    0    0    0    0 -0.00000000000E+00 -0.00000000000E+00 -0.45593999997E+02  0.45594000000E+02  0.51100000000E-03 0. -1.
    9900012    2    1    2    0    0 -0.24592009755E+02  0.14303860961E+02 -0.32775828263E+02  0.47787282258E+02  0.20000051128E+02 0.  0.
        -12    1    1    2    0    0  0.24592009755E+02 -0.14303860961E+02  0.32775828263E+02  0.43400717742E+02  0.00000000000E+00 0.  1.
         11    1    3    3    0    0 -0.11049625145E+02  0.16828106435E+01 -0.21374613753E+02  0.24120534423E+02  0.51100000000E-03 0. -1.
        -11    1    3    3    0    0 -0.12955867453E+02  0.10683424002E+02 -0.12877025181E+02  0.21161470356E+02  0.51100000000E-03 0.  1.
         12    1    3    3    0    0 -0.58651715706E+00  0.19376263156E+01  0.14758106704E+01  0.25052774795E+01  0.00000000000E+00 0. -1.
</event>
<event>
 7    1  0.2714068E-010  0.4778728E+02  0.7816164E-02  0.1312668E+00
        -11   -1    0    0    0    0  0.00000000000E+00  0.00000000000E+00  0.45593999997E+02  0.45594000000E+02  0.51100000000E-03 0.  1.
         11   -1    0    0    0    0 -0.00000000000E+00 -0.00000000000E+00 -0.45593999997E+02  0.45594000000E+02  0.51100000000E-03 0. -1.
    9900012    2    1    2    0    0 -0.33809488384E+02 -0.26095664604E+02  0.77173129028E+01  0.47787284172E+02  0.20000059855E+02 0.  0.
        -12    1    1    2    0    0  0.33809488384E+02  0.26095664604E+02 -0.77173129028E+01  0.43400715828E+02  0.00000000000E+00 0.  1.
         11    1    3    3    0    0 -0.98218091870E+01 -0.75807003895E+01  0.49216477085E+01  0.13347567963E+02  0.51100000000E-03 0. -1.
        -11    1    3    3    0    0 -0.70842155463E+01 -0.14331154340E+01  0.69784691043E+01  0.10046838361E+02  0.51100000000E-03 0.  1.
        -12    1    3    3    0    0 -0.16903463651E+02 -0.17081848781E+02 -0.41828039099E+01  0.24392877848E+02  0.00000000000E+00 0.  1.
</event>
<event>
 7    1  0.2714068E-010  0.4778727E+02  0.7816164E-02  0.1312668E+00
        -11   -1    0    0    0    0  0.00000000000E+00  0.00000000000E+00  0.45593999997E+02  0.45594000000E+02  0.51100000000E-03 0. -1.
         11   -1    0    0    0    0 -0.00000000000E+00 -0.00000000000E+00 -0.45593999997E+02  0.45594000000E+02  0.51100000000E-03 0.  1.
    9900012    2    1    2    0    0  0.16141465885E+02 -0.26733158951E+01  0.40198629668E+02  0.47787269983E+02  0.19999995159E+02 0.  0.
        -12    1    1    2    0    0 -0.16141465885E+02  0.26733158951E+01 -0.40198629668E+02  0.43400730017E+02  0.00000000000E+00 0.  1.
         11    1    3    3    0    0 -0.17172924035E+01 -0.30352754264E+01  0.45869529689E+01  0.57621287657E+01  0.51100000000E-03 0.  1.
        -11    1    3    3    0    0  0.19989166483E+02 -0.40230941411E+00  0.31001116210E+02  0.36888993427E+02  0.51100000000E-03 0. -1.
         12    1    3    3    0    0 -0.21304081937E+01  0.76426894539E+00  0.46105604900E+01  0.51361477903E+01  0.00000000000E+00 0. -1.
</event>
<event>
 7    1  0.2714068E-010  0.4778727E+02  0.7816164E-02  0.1312668E+00
        -11   -1    0    0    0    0  0.00000000000E+00  0.00000000000E+00  0.45593999997E+02  0.45594000000E+02  0.51100000000E-03 0. -1.
         11   -1    0    0    0    0 -0.00000000000E+00 -0.00000000000E+00 -0.45593999997E+02  0.45594000000E+02  0.51100000000E-03 0.  1.
    9900012    2    1    2    0    0 -0.42452085273E+02 -0.63793785410E+01 -0.63833532297E+01  0.47787271745E+02  0.20000003194E+02 0.  0.
        -12    1    1    2    0    0  0.42452085273E+02  0.63793785410E+01  0.63833532297E+01  0.43400728255E+02  0.00000000000E+00 0.  1.
         11    1    3    3    0    0 -0.19922856632E+02 -0.66413835735E+01 -0.30968970365E+01  0.21227787536E+02  0.51100000000E-03 0. -1.
        -11    1    3    3    0    0 -0.24042125596E+02 -0.11761059952E+01 -0.38978773395E+01  0.24384431027E+02  0.51100000000E-03 0.  1.
        -12    1    3    3    0    0  0.15128969555E+01  0.14381110276E+01  0.61142114629E+00  0.21750531819E+01  0.00000000000E+00 0.  1.
</event>
<event>
 7    1  0.2714068E-010  0.4778727E+02  0.7816164E-02  0.1312668E+00
        -11   -1    0    0    0    0  0.00000000000E+00  0.00000000000E+00  0.45593999997E+02  0.45594000000E+02  0.51100000000E-03 0.  1.
         11   -1    0    0    0    0 -0.00000000000E+00 -0.00000000000E+00 -0.45593999997E+02  0.45594000000E+02  0.51100000000E-03 0. -1.
    9900012    2    1    2    0    0  0.67912836440E+01 -0.27330785466E+02 -0.33023172312E+02  0.47787271005E+02  0.19999999821E+02 0.  0.
        -12    1    1    2    0    0 -0.67912836440E+01  0.27330785466E+02  0.33023172312E+02  0.43400728995E+02  0.00000000000E+00 0.  1.
         11    1    3    3    0    0  0.48385881218E+01 -0.13862271186E+02 -0.10003946066E+02  0.17766638247E+02  0.51100000000E-03 0. -1.
        -11    1    3    3    0    0  0.23836730205E+01 -0.81858375752E+01 -0.23200337396E+02  0.24717311533E+02  0.51100000000E-03 0.  1.
        -12    1    3    3    0    0 -0.43097749838E+00 -0.52826767049E+01  0.18111114926E+00  0.53033212255E+01  0.00000000000E+00 0.  1.
</event>
<event>
 7    1  0.2714068E-010  0.4778727E+02  0.7816164E-02  0.1312668E+00
        -11   -1    0    0    0    0  0.00000000000E+00  0.00000000000E+00  0.45593999997E+02  0.45594000000E+02  0.51100000000E-03 0.  1.
         11   -1    0    0    0    0 -0.00000000000E+00 -0.00000000000E+00 -0.45593999997E+02  0.45594000000E+02  0.51100000000E-03 0. -1.
    9900012    2    1    2    0    0 -0.32249580297E+01 -0.34762593430E+02 -0.25783430468E+02  0.47787267945E+02  0.19999985866E+02 0.  0.
        -12    1    1    2    0    0  0.32249580297E+01  0.34762593430E+02  0.25783430468E+02  0.43400732055E+02  0.00000000000E+00 0.  1.
         11    1    3    3    0    0 -0.96684441406E+00 -0.13956339223E+02 -0.17716573813E+01  0.14101523420E+02  0.51100000000E-03 0.  1.
        -11    1    3    3    0    0 -0.14911515078E+01 -0.22070828599E+02 -0.22104842572E+02  0.31272497074E+02  0.51100000000E-03 0. -1.
        -12    1    3    3    0    0 -0.76696210780E+00  0.12645743921E+01 -0.19069305148E+01  0.24132474503E+01  0.00000000000E+00 0.  1.
</event>
<event>
 7    1  0.2714068E-010  0.4778727E+02  0.7816164E-02  0.1312668E+00
        -11   -1    0    0    0    0  0.00000000000E+00  0.00000000000E+00  0.45593999997E+02  0.45594000000E+02  0.51100000000E-03 0.  1.
         11   -1    0    0    0    0 -0.00000000000E+00 -0.00000000000E+00 -0.45593999997E+02  0.45594000000E+02  0.51100000000E-03 0. -1.
    9900012    2    1    2    0    0 -0.31871632808E+01 -0.21223109887E+02 -0.37723264850E+02  0.47787272886E+02  0.20000008399E+02 0.  0.
        -12    1    1    2    0    0  0.31871632808E+01  0.21223109887E+02  0.37723264850E+02  0.43400727114E+02  0.00000000000E+00 0.  1.
         11    1    3    3    0    0  0.18196196274E+01 -0.11164907468E+02 -0.19096444659E+02  0.22195503446E+02  0.51100000000E-03 0. -1.
        -11    1    3    3    0    0 -0.40680893294E+00 -0.54880800798E+01  0.37317371780E+00  0.55157751364E+01  0.51100000000E-03 0.  1.
        -12    1    3    3    0    0 -0.45999739753E+01 -0.45701223400E+01 -0.18999993909E+02  0.20075994304E+02  0.00000000000E+00 0.  1.
</event>
<event>
 7    1  0.2714068E-010  0.4778727E+02  0.7816164E-02  0.1312668E+00
        -11   -1    0    0    0    0  0.00000000000E+00  0.00000000000E+00  0.45593999997E+02  0.45594000000E+02  0.51100000000E-03 0.  1.
         11   -1    0    0    0    0 -0.00000000000E+00 -0.00000000000E+00 -0.45593999997E+02  0.45594000000E+02  0.51100000000E-03 0. -1.
    9900012    2    1    2    0    0  0.27305208721E+02 -0.77049292162E+01 -0.32843308982E+02  0.47787270716E+02  0.19999998500E+02 0.  0.
        -12    1    1    2    0    0 -0.27305208721E+02  0.77049292162E+01  0.32843308982E+02  0.43400729284E+02  0.00000000000E+00 0.  1.
         11    1    3    3    0    0  0.77945907483E+01 -0.41094111852E+01 -0.12301780286E+02  0.15131976199E+02  0.51100000000E-03 0. -1.
        -11    1    3    3    0    0  0.16275214731E+02  0.36338693591E+01 -0.17494390607E+02  0.24169015785E+02  0.51100000000E-03 0.  1.
        -12    1    3    3    0    0  0.32354032421E+01 -0.72293873901E+01 -0.30471380894E+01  0.84862787316E+01  0.00000000000E+00 0.  1.
</event>
<event>
 7    1  0.2714068E-010  0.4778727E+02  0.7816164E-02  0.1312668E+00
        -11   -1    0    0    0    0  0.00000000000E+00  0.00000000000E+00  0.45593999997E+02  0.45594000000E+02  0.51100000000E-03 0. -1.
         11   -1    0    0    0    0 -0.00000000000E+00 -0.00000000000E+00 -0.45593999997E+02  0.45594000000E+02  0.51100000000E-03 0.  1.
    9900012    2    1    2    0    0  0.11250117777E+02 -0.39838561999E+02  0.13036376685E+02  0.47787270868E+02  0.19999999196E+02 0.  0.
        -12    1    1    2    0    0 -0.11250117777E+02  0.39838561999E+02 -0.13036376685E+02  0.43400729132E+02  0.00000000000E+00 0.  1.
         11    1    3    3    0    0 -0.42834029982E+01 -0.13903422194E+02  0.25474553617E+01  0.14769638419E+02  0.51100000000E-03 0. -1.
        -11    1    3    3    0    0  0.74096318397E+01 -0.84063279528E+01  0.37840776943E+00  0.11212144592E+02  0.51100000000E-03 0.  1.
         12    1    3    3    0    0  0.81238889351E+01 -0.17528811852E+02  0.10110513554E+02  0.21805487857E+02  0.00000000000E+00 0. -1.
</event>
<event>
 7    1  0.2714068E-010  0.4778728E+02  0.7816164E-02  0.1312668E+00
        -11   -1    0    0    0    0  0.00000000000E+00  0.00000000000E+00  0.45593999997E+02  0.45594000000E+02  0.51100000000E-03 0.  1.
         11   -1    0    0    0    0 -0.00000000000E+00 -0.00000000000E+00 -0.45593999997E+02  0.45594000000E+02  0.51100000000E-03 0. -1.
    9900012    2    1    2    0    0  0.28447271407E+02  0.22294163824E+01 -0.32701760776E+02  0.47787277590E+02  0.20000029843E+02 0.  0.
        -12    1    1    2    0    0 -0.28447271407E+02 -0.22294163824E+01  0.32701760776E+02  0.43400722410E+02  0.00000000000E+00 0.  1.
         11    1    3    3    0    0  0.15024016144E+02  0.16628799815E+00 -0.16006703985E+02  0.21953662235E+02  0.51100000000E-03 0. -1.
        -11    1    3    3    0    0  0.73656903856E+01 -0.38612309416E+01 -0.15060887011E+02  0.17204441783E+02  0.51100000000E-03 0.  1.
        -12    1    3    3    0    0  0.60575648769E+01  0.59243593258E+01 -0.16341697792E+01  0.86291735715E+01  0.00000000000E+00 0.  1.
</event>
<event>
 7    1 -0.2714068E-010  0.4778727E+02  0.7816164E-02  0.1312668E+00
        -11   -1    0    0    0    0  0.00000000000E+00  0.00000000000E+00  0.45593999997E+02  0.45594000000E+02  0.51100000000E-03 0.  1.
         11   -1    0    0    0    0 -0.00000000000E+00 -0.00000000000E+00 -0.45593999997E+02  0.45594000000E+02  0.51100000000E-03 0. -1.
    9900012    2    1    2    0    0 -0.32581069775E+02  0.12258433021E+02 -0.25919641879E+02  0.47787272783E+02  0.20000007928E+02 0.  0.
        -12    1    1    2    0    0  0.32581069775E+02 -0.12258433021E+02  0.25919641879E+02  0.43400727217E+02  0.00000000000E+00 0.  1.
         11    1    3    3    0    0 -0.94844513326E+01  0.70153137247E+01 -0.17222265623E+02  0.20875245560E+02  0.51100000000E-03 0. -1.
        -11    1    3    3    0    0  0.83261813827E-01  0.33009407756E-01  0.11792667094E+01  0.11826632588E+01  0.51100000000E-03 0.  1.
         12    1    3    3    0    0 -0.23179880256E+02  0.52101098887E+01 -0.98766429647E+01  0.25729363964E+02  0.00000000000E+00 0. -1.
</event>
<event>
 7    1  0.2714068E-010  0.4778728E+02  0.7816164E-02  0.1312668E+00
        -11   -1    0    0    0    0  0.00000000000E+00  0.00000000000E+00  0.45593999997E+02  0.45594000000E+02  0.51100000000E-03 0. -1.
         11   -1    0    0    0    0 -0.00000000000E+00 -0.00000000000E+00 -0.45593999997E+02  0.45594000000E+02  0.51100000000E-03 0.  1.
    9900012    2    1    2    0    0  0.69711138325E+01 -0.17511417743E+02  0.39094458148E+02  0.47787276074E+02  0.20000022932E+02 0.  0.
        -12    1    1    2    0    0 -0.69711138325E+01  0.17511417743E+02 -0.39094458148E+02  0.43400723926E+02  0.00000000000E+00 0.  1.
         11    1    3    3    0    0 -0.37735781452E+01 -0.22953867662E+01  0.15777191470E+02  0.16383786600E+02  0.51100000000E-03 0. -1.
        -11    1    3    3    0    0  0.12617137244E+01  0.82068855775E+00  0.52104738775E+01  0.54235126551E+01  0.51100000000E-03 0.  1.
         12    1    3    3    0    0  0.94829782533E+01 -0.16036719535E+02  0.18106792801E+02  0.25979976819E+02  0.00000000000E+00 0. -1.
</event>
<event>
 7    1  0.2714068E-010  0.4778727E+02  0.7816164E-02  0.1312668E+00
        -11   -1    0    0    0    0  0.00000000000E+00  0.00000000000E+00  0.45593999997E+02  0.45594000000E+02  0.51100000000E-03 0.  1.
         11   -1    0    0    0    0 -0.00000000000E+00 -0.00000000000E+00 -0.45593999997E+02  0.45594000000E+02  0.51100000000E-03 0. -1.
    9900012    2    1    2    0    0  0.19690927477E+01 -0.36930951449E+02 -0.22712345951E+02  0.47787272359E+02  0.20000005992E+02 0.  0.
        -12    1    1    2    0    0 -0.19690927477E+01  0.36930951449E+02  0.22712345951E+02  0.43400727641E+02  0.00000000000E+00 0.  1.
         11    1    3    3    0    0  0.70434238099E+01 -0.29509543811E+02 -0.11188536295E+02  0.32335836769E+02  0.51100000000E-03 0. -1.
        -11    1    3    3    0    0 -0.12600118958E+01 -0.11515145924E+01 -0.60766674971E+01  0.63118542415E+01  0.51100000000E-03 0.  1.
         12    1    3    3    0    0 -0.38143191664E+01 -0.62698930460E+01 -0.54471421593E+01  0.91395813479E+01  0.00000000000E+00 0. -1.
</event>
<event>
 7    1  0.2714068E-010  0.4778727E+02  0.7816164E-02  0.1312668E+00
        -11   -1    0    0    0    0  0.00000000000E+00  0.00000000000E+00  0.45593999997E+02  0.45594000000E+02  0.51100000000E-03 0.  1.
         11   -1    0    0    0    0 -0.00000000000E+00 -0.00000000000E+00 -0.45593999997E+02  0.45594000000E+02  0.51100000000E-03 0. -1.
    9900012    2    1    2    0    0 -0.10260610002E+01 -0.34926280843E+02  0.25743454151E+02  0.47787270440E+02  0.19999997244E+02 0.  0.
        -12    1    1    2    0    0  0.10260610002E+01  0.34926280843E+02 -0.25743454151E+02  0.43400729560E+02  0.00000000000E+00 0.  1.
         11    1    3    3    0    0  0.47146424933E+01 -0.25978859721E+02  0.10906128576E+02  0.28566985264E+02  0.51100000000E-03 0. -1.
        -11    1    3    3    0    0 -0.48954133502E+01 -0.80789164666E+01  0.15251124881E+02  0.17939642514E+02  0.51100000000E-03 0.  1.
        -12    1    3    3    0    0 -0.84529014333E+00 -0.86850465500E+00 -0.41379930618E+00  0.12806426621E+01  0.00000000000E+00 0.  1.
</event>
<event>
 7    1  0.2714068E-010  0.4778727E+02  0.7816164E-02  0.1312668E+00
        -11   -1    0    0    0    0  0.00000000000E+00  0.00000000000E+00  0.45593999997E+02  0.45594000000E+02  0.51100000000E-03 0.  1.
         11   -1    0    0    0    0 -0.00000000000E+00 -0.00000000000E+00 -0.45593999997E+02  0.45594000000E+02  0.51100000000E-03 0. -1.
    9900012    2    1    2    0    0 -0.89320352109E+01 -0.31868993776E+02 -0.28075067033E+02  0.47787269520E+02  0.19999993051E+02 0.  0.
        -12    1    1    2    0    0  0.89320352109E+01  0.31868993776E+02  0.28075067033E+02  0.43400730480E+02  0.00000000000E+00 0.  1.
         11    1    3    3    0    0 -0.11383753638E+02 -0.12769404212E+02 -0.12283708428E+02  0.21060318702E+02  0.51100000000E-03 0. -1.
        -11    1    3    3    0    0  0.20006791253E+01 -0.18466296347E+02 -0.17072400447E+02  0.25228429896E+02  0.51100000000E-03 0.  1.
        -12    1    3    3    0    0  0.45103930201E+00 -0.63329321634E+00  0.12810418427E+01  0.14985209216E+01  0.00000000000E+00 0.  1.
</event>
<event>
 7    1  0.2714068E-010  0.4778727E+02  0.7816164E-02  0.1312668E+00
        -11   -1    0    0    0    0  0.00000000000E+00  0.00000000000E+00  0.45593999997E+02  0.45594000000E+02  0.51100000000E-03 0. -1.
         11   -1    0    0    0    0 -0.00000000000E+00 -0.00000000000E+00 -0.45593999997E+02  0.45594000000E+02  0.51100000000E-03 0.  1.
    9900012    2    1    2    0    0  0.31139942023E+02 -0.15905546930E+01  0.30189362017E+02  0.47787269218E+02  0.19999991673E+02 0.  0.
        -12    1    1    2    0    0 -0.31139942023E+02  0.15905546930E+01 -0.30189362017E+02  0.43400730782E+02  0.00000000000E+00 0.  1.
         11    1    3    3    0    0  0.85588341434E+01 -0.60077910858E+01  0.16213543643E+02  0.19293164420E+02  0.51100000000E-03 0.  1.
        -11    1    3    3    0    0 -0.21395162788E+00  0.17198088583E+01  0.25484090442E+00  0.17517025877E+01  0.51100000000E-03 0. -1.
         12    1    3    3    0    0  0.22795059507E+02  0.26974275345E+01  0.13720977470E+02  0.26742402210E+02  0.00000000000E+00 0. -1.
</event>
<event>
 7    1  0.2714068E-010  0.4778726E+02  0.7816164E-02  0.1312668E+00
        -11   -1    0    0    0    0  0.00000000000E+00  0.00000000000E+00  0.45593999997E+02  0.45594000000E+02  0.51100000000E-03 0.  1.
         11   -1    0    0    0    0 -0.00000000000E+00 -0.00000000000E+00 -0.45593999997E+02  0.45594000000E+02  0.51100000000E-03 0. -1.
    9900012    2    1    2    0    0 -0.31139971525E+02 -0.29049134416E+02 -0.83710344630E+01  0.47787259743E+02  0.19999948473E+02 0.  0.
        -12    1    1    2    0    0  0.31139971525E+02  0.29049134416E+02  0.83710344630E+01  0.43400740257E+02  0.00000000000E+00 0.  1.
         11    1    3    3    0    0 -0.13271842968E+02 -0.21408558706E+02  0.92251899324E+00  0.25205539930E+02  0.51100000000E-03 0. -1.
        -11    1    3    3    0    0 -0.12831455170E+02 -0.39806193344E+01 -0.93281355024E+01  0.16355601007E+02  0.51100000000E-03 0.  1.
        -12    1    3    3    0    0 -0.50366733864E+01 -0.36599563756E+01  0.34582046165E-01  0.62261188063E+01  0.00000000000E+00 0.  1.
</event>
<event>
 7    1  0.2714068E-010  0.4778727E+02  0.7816164E-02  0.1312668E+00
        -11   -1    0    0    0    0  0.00000000000E+00  0.00000000000E+00  0.45593999997E+02  0.45594000000E+02  0.51100000000E-03 0. -1.
         11   -1    0    0    0    0 -0.00000000000E+00 -0.00000000000E+00 -0.45593999997E+02  0.45594000000E+02  0.51100000000E-03 0.  1.
    9900012    2    1    2    0    0 -0.36225709523E+02 -0.16655368147E+02 -0.17144086825E+02  0.47787273835E+02  0.20000012725E+02 0.  0.
        -12    1    1    2    0    0  0.36225709523E+02  0.16655368147E+02  0.17144086825E+02  0.43400726165E+02  0.00000000000E+00 0.  1.
         11    1    3    3    0    0 -0.34011150296E+02 -0.15369767236E+02 -0.96028392147E+01  0.38538326515E+02  0.51100000000E-03 0. -1.
        -11    1    3    3    0    0 -0.33118462207E+01  0.29009358213E+00 -0.56392857357E+01  0.65462984615E+01  0.51100000000E-03 0.  1.
         12    1    3    3    0    0  0.10972869937E+01 -0.15756944926E+01 -0.19019618750E+01  0.27026488589E+01  0.00000000000E+00 0. -1.
</event>
<event>
 7    1  0.2714068E-010  0.4778727E+02  0.7816164E-02  0.1312668E+00
        -11   -1    0    0    0    0  0.00000000000E+00  0.00000000000E+00  0.45593999997E+02  0.45594000000E+02  0.51100000000E-03 0.  1.
         11   -1    0    0    0    0 -0.00000000000E+00 -0.00000000000E+00 -0.45593999997E+02  0.45594000000E+02  0.51100000000E-03 0. -1.
    9900012    2    1    2    0    0 -0.91750393680E-01 -0.38452484085E+02 -0.20125141810E+02  0.47787270936E+02  0.19999999505E+02 0.  0.
        -12    1    1    2    0    0  0.91750393680E-01  0.38452484085E+02  0.20125141810E+02  0.43400729064E+02  0.00000000000E+00 0.  1.
         11    1    3    3    0    0  0.53654327593E+01 -0.80975369094E+01 -0.38356267823E+01  0.10443658639E+02  0.51100000000E-03 0.  1.
        -11    1    3    3    0    0 -0.58332805345E+01 -0.17434026026E+02 -0.16066556944E+02  0.24415295975E+02  0.51100000000E-03 0. -1.
        -12    1    3    3    0    0  0.37609738154E+00 -0.12920921150E+02 -0.22295808291E+00  0.12928316321E+02  0.00000000000E+00 0.  1.
</event>
<event>
 7    1  0.2714068E-010  0.4778727E+02  0.7816164E-02  0.1312668E+00
        -11   -1    0    0    0    0  0.00000000000E+00  0.00000000000E+00  0.45593999997E+02  0.45594000000E+02  0.51100000000E-03 0. -1.
         11   -1    0    0    0    0 -0.00000000000E+00 -0.00000000000E+00 -0.45593999997E+02  0.45594000000E+02  0.51100000000E-03 0.  1.
    9900012    2    1    2    0    0 -0.38744997976E+02  0.28821830889E+01  0.19342738307E+02  0.47787269906E+02  0.19999994810E+02 0.  0.
        -12    1    1    2    0    0  0.38744997976E+02 -0.28821830889E+01 -0.19342738307E+02  0.43400730094E+02  0.00000000000E+00 0.  1.
         11    1    3    3    0    0 -0.14040346514E+02 -0.81003224727E+01  0.87604701300E+01  0.18425319307E+02  0.51100000000E-03 0. -1.
        -11    1    3    3    0    0 -0.19324230650E+02  0.10455999805E+02  0.88199025388E+01  0.23675821067E+02  0.51100000000E-03 0.  1.
        -12    1    3    3    0    0 -0.53804208116E+01  0.52650575686E+00  0.17623656378E+01  0.56861295327E+01  0.00000000000E+00 0.  1.
</event>
<event>
 7    1  0.2714068E-010  0.4778727E+02  0.7816164E-02  0.1312668E+00
        -11   -1    0    0    0    0  0.00000000000E+00  0.00000000000E+00  0.45593999997E+02  0.45594000000E+02  0.51100000000E-03 0.  1.
         11   -1    0    0    0    0 -0.00000000000E+00 -0.00000000000E+00 -0.45593999997E+02  0.45594000000E+02  0.51100000000E-03 0. -1.
    9900012    2    1    2    0    0  0.12475114942E+01  0.32591168901E+02 -0.28633596744E+02  0.47787269157E+02  0.19999991394E+02 0.  0.
        -12    1    1    2    0    0 -0.12475114942E+01 -0.32591168901E+02  0.28633596744E+02  0.43400730843E+02  0.00000000000E+00 0.  1.
         11    1    3    3    0    0  0.19533785246E+01  0.15545508181E+02 -0.13252111592E+02  0.20520647509E+02  0.51100000000E-03 0. -1.
        -11    1    3    3    0    0 -0.60915146112E+01  0.11968134426E+02 -0.14579007257E+02  0.19821459199E+02  0.51100000000E-03 0.  1.
        -12    1    3    3    0    0  0.53856475808E+01  0.50775262934E+01 -0.80247789397E+00  0.74451624492E+01  0.00000000000E+00 0.  1.
</event>
<event>
 7    1  0.2714068E-010  0.4778727E+02  0.7816164E-02  0.1312668E+00
        -11   -1    0    0    0    0  0.00000000000E+00  0.00000000000E+00  0.45593999997E+02  0.45594000000E+02  0.51100000000E-03 0. -1.
         11   -1    0    0    0    0 -0.00000000000E+00 -0.00000000000E+00 -0.45593999997E+02  0.45594000000E+02  0.51100000000E-03 0.  1.
    9900012    2    1    2    0    0  0.23724909174E+02 -0.15592598928E+02  0.32827165738E+02  0.47787271123E+02  0.20000000357E+02 0.  0.
        -12    1    1    2    0    0 -0.23724909174E+02  0.15592598928E+02 -0.32827165738E+02  0.43400728877E+02  0.00000000000E+00 0.  1.
         11    1    3    3    0    0  0.21955451704E+02 -0.14070087619E+02  0.35246965342E+02  0.43844700834E+02  0.51100000000E-03 0. -1.
        -11    1    3    3    0    0  0.10047641866E+01  0.30884076507E+00 -0.12713923490E+01  0.16496582843E+01  0.51100000000E-03 0.  1.
         12    1    3    3    0    0  0.76469328392E+00 -0.18313520742E+01 -0.11484072546E+01  0.22929120046E+01  0.00000000000E+00 0. -1.
</event>
<event>
 7    1  0.2714068E-010  0.4778727E+02  0.7816164E-02  0.1312668E+00
        -11   -1    0    0    0    0  0.00000000000E+00  0.00000000000E+00  0.45593999997E+02  0.45594000000E+02  0.51100000000E-03 0. -1.
         11   -1    0    0    0    0 -0.00000000000E+00 -0.00000000000E+00 -0.45593999997E+02  0.45594000000E+02  0.51100000000E-03 0.  1.
    9900012    2    1    2    0    0  0.14937458778E+02 -0.40297818955E+02 -0.60482571412E+01  0.47787270724E+02  0.19999998537E+02 0.  0.
        -12    1    1    2    0    0 -0.14937458778E+02  0.40297818955E+02  0.60482571412E+01  0.43400729276E+02  0.00000000000E+00 0.  1.
         11    1    3    3    0    0  0.13760018308E+02 -0.39184262550E+02 -0.55428147971E+00  0.41533742471E+02  0.51100000000E-03 0. -1.
        -11    1    3    3    0    0  0.18536949598E+01 -0.96777582569E+00 -0.49497027130E+01  0.53732980804E+01  0.51100000000E-03 0.  1.
         12    1    3    3    0    0 -0.67625449037E+00 -0.14578057910E+00 -0.54427294843E+00  0.88023017182E+00  0.00000000000E+00 0. -1.
</event>
<event>
 7    1  0.2714068E-010  0.4778728E+02  0.7816164E-02  0.1312668E+00
        -11   -1    0    0    0    0  0.00000000000E+00  0.00000000000E+00  0.45593999997E+02  0.45594000000E+02  0.51100000000E-03 0.  1.
         11   -1    0    0    0    0 -0.00000000000E+00 -0.00000000000E+00 -0.45593999997E+02  0.45594000000E+02  0.51100000000E-03 0. -1.
    9900012    2    1    2    0    0  0.25547520969E+02 -0.29540379654E+02 -0.18929159222E+02  0.47787275045E+02  0.20000018239E+02 0.  0.
        -12    1    1    2    0    0 -0.25547520969E+02  0.29540379654E+02  0.18929159222E+02  0.43400724955E+02  0.00000000000E+00 0.  1.
         11    1    3    3    0    0  0.50192752767E+01 -0.49819440176E+01 -0.11223091671E+02  0.13265393979E+02  0.51100000000E-03 0. -1.
        -11    1    3    3    0    0  0.94857786938E+01 -0.84606801444E+01  0.17507424981E+01  0.12830752335E+02  0.51100000000E-03 0.  1.
        -12    1    3    3    0    0  0.11042466999E+02 -0.16097755492E+02 -0.94568100490E+01  0.21691128731E+02  0.00000000000E+00 0.  1.
</event>
<event>
 7    1  0.2714068E-010  0.4778725E+02  0.7816164E-02  0.1312668E+00
        -11   -1    0    0    0    0  0.00000000000E+00  0.00000000000E+00  0.45593999997E+02  0.45594000000E+02  0.51100000000E-03 0.  1.
         11   -1    0    0    0    0 -0.00000000000E+00 -0.00000000000E+00 -0.45593999997E+02  0.45594000000E+02  0.51100000000E-03 0. -1.
    9900012    2    1    2    0    0 -0.22499367929E+02 -0.35434395005E+02 -0.11036618418E+02  0.47787252856E+02  0.19999917070E+02 0.  0.
        -12    1    1    2    0    0  0.22499367929E+02  0.35434395005E+02  0.11036618418E+02  0.43400747144E+02  0.00000000000E+00 0.  1.
         11    1    3    3    0    0 -0.18075195217E+02 -0.24266742954E+02 -0.10958185790E+02  0.32181816788E+02  0.51100000000E-03 0. -1.
        -11    1    3    3    0    0 -0.35101501534E+01 -0.27539707618E+01  0.41954498397E+01  0.61243210787E+01  0.51100000000E-03 0.  1.
         12    1    3    3    0    0 -0.91402255815E+00 -0.84136812893E+01 -0.42738824686E+01  0.94811149887E+01  0.00000000000E+00 0. -1.
</event>
<event>
 7    1  0.2714068E-010  0.4778727E+02  0.7816164E-02  0.1312668E+00
        -11   -1    0    0    0    0  0.00000000000E+00  0.00000000000E+00  0.45593999997E+02  0.45594000000E+02  0.51100000000E-03 0.  1.
         11   -1    0    0    0    0 -0.00000000000E+00 -0.00000000000E+00 -0.45593999997E+02  0.45594000000E+02  0.51100000000E-03 0. -1.
    9900012    2    1    2    0    0  0.20890527376E+02  0.37487571700E+02  0.64723329385E+01  0.47787271208E+02  0.20000000745E+02 0.  0.
        -12    1    1    2    0    0 -0.20890527376E+02 -0.37487571700E+02 -0.64723329385E+01  0.43400728792E+02  0.00000000000E+00 0.  1.
         11    1    3    3    0    0  0.18417471780E+02  0.28270202427E+02  0.70023538820E+01  0.34459259600E+02  0.51100000000E-03 0. -1.
        -11    1    3    3    0    0  0.30214966482E+00  0.10080204610E+02 -0.23639115054E+01  0.10358083667E+02  0.51100000000E-03 0.  1.
        -12    1    3    3    0    0  0.21709059312E+01 -0.86283533609E+00  0.18338905619E+01  0.29699279406E+01  0.00000000000E+00 0.  1.
</event>
<event>
 7    1  0.2714068E-010  0.4778726E+02  0.7816164E-02  0.1312668E+00
        -11   -1    0    0    0    0  0.00000000000E+00  0.00000000000E+00  0.45593999997E+02  0.45594000000E+02  0.51100000000E-03 0. -1.
         11   -1    0    0    0    0 -0.00000000000E+00 -0.00000000000E+00 -0.45593999997E+02  0.45594000000E+02  0.51100000000E-03 0.  1.
    9900012    2    1    2    0    0  0.20985230820E+02 -0.25477632573E+02  0.28180387174E+02  0.47787263885E+02  0.19999967355E+02 0.  0.
        -12    1    1    2    0    0 -0.20985230820E+02  0.25477632573E+02 -0.28180387174E+02  0.43400736115E+02  0.00000000000E+00 0.  1.
         11    1    3    3    0    0  0.70921011669E+00 -0.70796500582E+01 -0.10782578314E+01  0.71963229603E+01  0.51100000000E-03 0. -1.
        -11    1    3    3    0    0  0.10509054406E+02 -0.11796694738E+02  0.20616710594E+02  0.25974044491E+02  0.51100000000E-03 0.  1.
         12    1    3    3    0    0  0.97669662971E+01 -0.66012877770E+01  0.86419344114E+01  0.14616896433E+02  0.00000000000E+00 0. -1.
</event>
<event>
 7    1  0.2714068E-010  0.4778727E+02  0.7816164E-02  0.1312668E+00
        -11   -1    0    0    0    0  0.00000000000E+00  0.00000000000E+00  0.45593999997E+02  0.45594000000E+02  0.51100000000E-03 0. -1.
         11   -1    0    0    0    0 -0.00000000000E+00 -0.00000000000E+00 -0.45593999997E+02  0.45594000000E+02  0.51100000000E-03 0.  1.
    9900012    2    1    2    0    0 -0.10878535960E+02  0.34990533681E+01  0.41869292835E+02  0.47787267269E+02  0.19999982787E+02 0.  0.
        -12    1    1    2    0    0  0.10878535960E+02 -0.34990533681E+01 -0.41869292835E+02  0.43400732731E+02  0.00000000000E+00 0.  1.
         11    1    3    3    0    0 -0.31929028509E+01 -0.15817469025E+00  0.10292563006E+02  0.10777592558E+02  0.51100000000E-03 0. -1.
        -11    1    3    3    0    0 -0.11805281888E+01 -0.53429683670E+01  0.27625874916E+01  0.61296694597E+01  0.51100000000E-03 0.  1.
        -12    1    3    3    0    0 -0.65051049200E+01  0.90001964253E+01  0.28814142337E+02  0.30880005252E+02  0.00000000000E+00 0.  1.
</event>
<event>
 7    1  0.2714068E-010  0.4778727E+02  0.7816164E-02  0.1312668E+00
        -11   -1    0    0    0    0  0.00000000000E+00  0.00000000000E+00  0.45593999997E+02  0.45594000000E+02  0.51100000000E-03 0.  1.
         11   -1    0    0    0    0 -0.00000000000E+00 -0.00000000000E+00 -0.45593999997E+02  0.45594000000E+02  0.51100000000E-03 0. -1.
    9900012    2    1    2    0    0  0.20377381932E+02 -0.17787831188E+02 -0.33940814358E+02  0.47787268301E+02  0.19999987489E+02 0.  0.
        -12    1    1    2    0    0 -0.20377381932E+02  0.17787831188E+02  0.33940814358E+02  0.43400731699E+02  0.00000000000E+00 0.  1.
         11    1    3    3    0    0  0.16631392611E+02 -0.65372184262E+01 -0.16225876526E+02  0.24137471164E+02  0.51100000000E-03 0. -1.
        -11    1    3    3    0    0  0.33267224613E+01 -0.12226469770E+02 -0.10786373357E+02  0.16640297347E+02  0.51100000000E-03 0.  1.
        -12    1    3    3    0    0  0.41926686044E+00  0.97585700777E+00 -0.69285644754E+01  0.70094997888E+01  0.00000000000E+00 0.  1.
</event>
<event>
 7    1  0.2714068E-010  0.4778727E+02  0.7816164E-02  0.1312668E+00
        -11   -1    0    0    0    0  0.00000000000E+00  0.00000000000E+00  0.45593999997E+02  0.45594000000E+02  0.51100000000E-03 0.  1.
         11   -1    0    0    0    0 -0.00000000000E+00 -0.00000000000E+00 -0.45593999997E+02  0.45594000000E+02  0.51100000000E-03 0. -1.
    9900012    2    1    2    0    0 -0.35743520507E+02 -0.23767781416E+02 -0.64122217270E+01  0.47787270984E+02  0.19999999722E+02 0.  0.
        -12    1    1    2    0    0  0.35743520507E+02  0.23767781416E+02  0.64122217270E+01  0.43400729016E+02  0.00000000000E+00 0.  1.
         11    1    3    3    0    0 -0.18469901314E+02 -0.45883398760E+01 -0.69399355497E+01  0.20257167203E+02  0.51100000000E-03 0. -1.
        -11    1    3    3    0    0 -0.14317227655E+02 -0.15981310387E+02  0.41634002346E+01  0.21856788217E+02  0.51100000000E-03 0.  1.
        -12    1    3    3    0    0 -0.29563915377E+01 -0.31981311529E+01 -0.36356864119E+01  0.56733155633E+01  0.00000000000E+00 0.  1.
</event>
<event>
 7    1  0.2714068E-010  0.4778727E+02  0.7816164E-02  0.1312668E+00
        -11   -1    0    0    0    0  0.00000000000E+00  0.00000000000E+00  0.45593999997E+02  0.45594000000E+02  0.51100000000E-03 0. -1.
         11   -1    0    0    0    0 -0.00000000000E+00 -0.00000000000E+00 -0.45593999997E+02  0.45594000000E+02  0.51100000000E-03 0.  1.
    9900012    2    1    2    0    0 -0.16543900531E+02 -0.39089854125E+02  0.90501968735E+01  0.47787269548E+02  0.19999993179E+02 0.  0.
        -12    1    1    2    0    0  0.16543900531E+02  0.39089854125E+02 -0.90501968735E+01  0.43400730452E+02  0.00000000000E+00 0.  1.
         11    1    3    3    0    0 -0.29437404405E+01 -0.19652423718E+02 -0.21070484527E+01  0.19983068313E+02  0.51100000000E-03 0.  1.
        -11    1    3    3    0    0  0.87005213640E+00 -0.41647038841E+01  0.70793161391E+00  0.43131098517E+01  0.51100000000E-03 0. -1.
         12    1    3    3    0    0 -0.14470212227E+02 -0.15272726523E+02  0.10449313712E+02  0.23491091384E+02  0.00000000000E+00 0. -1.
</event>
<event>
 7    1  0.2714068E-010  0.4778727E+02  0.7816164E-02  0.1312668E+00
        -11   -1    0    0    0    0  0.00000000000E+00  0.00000000000E+00  0.45593999997E+02  0.45594000000E+02  0.51100000000E-03 0. -1.
         11   -1    0    0    0    0 -0.00000000000E+00 -0.00000000000E+00 -0.45593999997E+02  0.45594000000E+02  0.51100000000E-03 0.  1.
    9900012    2    1    2    0    0 -0.41071367653E+02  0.13525756602E+02  0.37175227931E+01  0.47787270649E+02  0.19999998196E+02 0.  0.
        -12    1    1    2    0    0  0.41071367653E+02 -0.13525756602E+02 -0.37175227931E+01  0.43400729351E+02  0.00000000000E+00 0.  1.
         11    1    3    3    0    0 -0.26511478993E+01  0.71407102837E+01 -0.17291298856E+01  0.78107758233E+01  0.51100000000E-03 0.  1.
        -11    1    3    3    0    0 -0.25272118568E+02  0.23297918159E+01  0.64330651860E+01  0.26181906629E+02  0.51100000000E-03 0. -1.
         12    1    3    3    0    0 -0.13148101186E+02  0.40552545020E+01 -0.98641250735E+00  0.13794588196E+02  0.00000000000E+00 0. -1.
</event>
<event>
 7    1  0.2714068E-010  0.4778727E+02  0.7816164E-02  0.1312668E+00
        -11   -1    0    0    0    0  0.00000000000E+00  0.00000000000E+00  0.45593999997E+02  0.45594000000E+02  0.51100000000E-03 0.  1.
         11   -1    0    0    0    0 -0.00000000000E+00 -0.00000000000E+00 -0.45593999997E+02  0.45594000000E+02  0.51100000000E-03 0. -1.
    9900012    2    1    2    0    0 -0.33312925998E+02 -0.24609653134E+02  0.12970632959E+02  0.47787269761E+02  0.19999994150E+02 0.  0.
        -12    1    1    2    0    0  0.33312925998E+02  0.24609653134E+02 -0.12970632959E+02  0.43400730239E+02  0.00000000000E+00 0.  1.
         11    1    3    3    0    0 -0.13021564656E+02 -0.17501208325E+02  0.69899263955E+01  0.22906604074E+02  0.51100000000E-03 0. -1.
        -11    1    3    3    0    0 -0.54469281848E+01  0.29498720006E+01  0.10384249661E+01  0.62808517052E+01  0.51100000000E-03 0.  1.
        -12    1    3    3    0    0 -0.14844433157E+02 -0.10058316809E+02  0.49422815976E+01  0.18599813982E+02  0.00000000000E+00 0.  1.
</event>
<event>
 7    1  0.2714068E-010  0.4778727E+02  0.7816164E-02  0.1312668E+00
        -11   -1    0    0    0    0  0.00000000000E+00  0.00000000000E+00  0.45593999997E+02  0.45594000000E+02  0.51100000000E-03 0. -1.
         11   -1    0    0    0    0 -0.00000000000E+00 -0.00000000000E+00 -0.45593999997E+02  0.45594000000E+02  0.51100000000E-03 0.  1.
    9900012    2    1    2    0    0 -0.40618030224E+02 -0.15264450960E+02  0.89179722271E+00  0.47787272533E+02  0.20000006786E+02 0.  0.
        -12    1    1    2    0    0  0.40618030224E+02  0.15264450960E+02 -0.89179722271E+00  0.43400727467E+02  0.00000000000E+00 0.  1.
         11    1    3    3    0    0 -0.31403264767E+02 -0.17316887872E+02 -0.39813585122E+01  0.36081724729E+02  0.51100000000E-03 0. -1.
        -11    1    3    3    0    0 -0.94836168896E+01  0.22535610829E+01  0.53523104275E+01  0.11120465550E+02  0.51100000000E-03 0.  1.
        -12    1    3    3    0    0  0.26885143191E+00 -0.20112417009E+00 -0.47915469256E+00  0.58508225374E+00  0.00000000000E+00 0.  1.
</event>
<event>
 7    1  0.2714068E-010  0.4778728E+02  0.7816164E-02  0.1312668E+00
        -11   -1    0    0    0    0  0.00000000000E+00  0.00000000000E+00  0.45593999997E+02  0.45594000000E+02  0.51100000000E-03 0.  1.
         11   -1    0    0    0    0 -0.00000000000E+00 -0.00000000000E+00 -0.45593999997E+02  0.45594000000E+02  0.51100000000E-03 0. -1.
    9900012    2    1    2    0    0  0.16325846219E+02  0.24046090395E+02 -0.32231582103E+02  0.47787278774E+02  0.20000035243E+02 0.  0.
        -12    1    1    2    0    0 -0.16325846219E+02 -0.24046090395E+02  0.32231582103E+02  0.43400721226E+02  0.00000000000E+00 0.  1.
         11    1    3    3    0    0  0.17540973924E+01  0.13401670019E+02 -0.23994823150E+02  0.27539665125E+02  0.51100000000E-03 0. -1.
        -11    1    3    3    0    0  0.96349385486E+01  0.49458602844E+01 -0.36819478439E+01  0.11438982253E+02  0.51100000000E-03 0.  1.
         12    1    3    3    0    0  0.49368102779E+01  0.56985600919E+01 -0.45548111096E+01  0.88086313968E+01  0.00000000000E+00 0. -1.
</event>
<event>
 7    1  0.2714068E-010  0.4778727E+02  0.7816164E-02  0.1312668E+00
        -11   -1    0    0    0    0  0.00000000000E+00  0.00000000000E+00  0.45593999997E+02  0.45594000000E+02  0.51100000000E-03 0.  1.
         11   -1    0    0    0    0 -0.00000000000E+00 -0.00000000000E+00 -0.45593999997E+02  0.45594000000E+02  0.51100000000E-03 0. -1.
    9900012    2    1    2    0    0  0.19903694662E+02  0.37506427372E+02 -0.89852233073E+01  0.47787269668E+02  0.19999993726E+02 0.  0.
        -12    1    1    2    0    0 -0.19903694662E+02 -0.37506427372E+02  0.89852233073E+01  0.43400730332E+02  0.00000000000E+00 0.  1.
         11    1    3    3    0    0  0.11383564525E+02  0.24126276857E+02 -0.10591573430E+02  0.28702686360E+02  0.51100000000E-03 0. -1.
        -11    1    3    3    0    0  0.94583290970E+01  0.52651563128E+01  0.13773059032E+01  0.10912324781E+02  0.51100000000E-03 0.  1.
        -12    1    3    3    0    0 -0.93819895977E+00  0.81149942024E+01  0.22904421948E+00  0.81722585280E+01  0.00000000000E+00 0.  1.
</event>
<event>
 7    1  0.2714068E-010  0.4778729E+02  0.7816164E-02  0.1312668E+00
        -11   -1    0    0    0    0  0.00000000000E+00  0.00000000000E+00  0.45593999997E+02  0.45594000000E+02  0.51100000000E-03 0.  1.
         11   -1    0    0    0    0 -0.00000000000E+00 -0.00000000000E+00 -0.45593999997E+02  0.45594000000E+02  0.51100000000E-03 0. -1.
    9900012    2    1    2    0    0 -0.20339215071E+02  0.32870398348E+02 -0.19735125588E+02  0.47787286420E+02  0.20000070103E+02 0.  0.
        -12    1    1    2    0    0  0.20339215071E+02 -0.32870398348E+02  0.19735125588E+02  0.43400713580E+02  0.00000000000E+00 0.  1.
         11    1    3    3    0    0 -0.12672161509E+02  0.30469594535E+02 -0.14562478621E+02  0.36070010428E+02  0.51100000000E-03 0. -1.
        -11    1    3    3    0    0 -0.36370657997E+00 -0.19503679316E+01 -0.64941657287E+00  0.20875726792E+01  0.51100000000E-03 0.  1.
         12    1    3    3    0    0 -0.73033469822E+01  0.43511717451E+01 -0.45232303937E+01  0.96297033128E+01  0.00000000000E+00 0. -1.
</event>
<event>
 7    1  0.2714068E-010  0.4778728E+02  0.7816164E-02  0.1312668E+00
        -11   -1    0    0    0    0  0.00000000000E+00  0.00000000000E+00  0.45593999997E+02  0.45594000000E+02  0.51100000000E-03 0.  1.
         11   -1    0    0    0    0 -0.00000000000E+00 -0.00000000000E+00 -0.45593999997E+02  0.45594000000E+02  0.51100000000E-03 0. -1.
    9900012    2    1    2    0    0 -0.48476104389E+01  0.22323169269E+02 -0.36902569009E+02  0.47787276358E+02  0.20000024226E+02 0.  0.
        -12    1    1    2    0    0  0.48476104389E+01 -0.22323169269E+02  0.36902569009E+02  0.43400723642E+02  0.00000000000E+00 0.  1.
         11    1    3    3    0    0 -0.66090146061E+01  0.12015298051E+02 -0.98060606571E+01  0.16858389223E+02  0.51100000000E-03 0. -1.
        -11    1    3    3    0    0 -0.40495284956E+01  0.33845167716E+01 -0.60799670866E+01  0.80510642060E+01  0.51100000000E-03 0.  1.
         12    1    3    3    0    0  0.58109326627E+01  0.69233544458E+01 -0.21016541266E+02  0.22877822929E+02  0.00000000000E+00 0. -1.
</event>
<event>
 7    1  0.2714068E-010  0.4778727E+02  0.7816164E-02  0.1312668E+00
        -11   -1    0    0    0    0  0.00000000000E+00  0.00000000000E+00  0.45593999997E+02  0.45594000000E+02  0.51100000000E-03 0.  1.
         11   -1    0    0    0    0 -0.00000000000E+00 -0.00000000000E+00 -0.45593999997E+02  0.45594000000E+02  0.51100000000E-03 0. -1.
    9900012    2    1    2    0    0 -0.42720523508E+02  0.72484649681E+01 -0.24576084705E+01  0.47787271750E+02  0.20000003218E+02 0.  0.
        -12    1    1    2    0    0  0.42720523508E+02 -0.72484649681E+01  0.24576084705E+01  0.43400728250E+02  0.00000000000E+00 0.  1.
         11    1    3    3    0    0 -0.11498605206E+02 -0.15478817499E+01 -0.16044221277E+01  0.11712729410E+02  0.51100000000E-03 0. -1.
        -11    1    3    3    0    0 -0.33260002542E+01 -0.78561554340E+00  0.49482669242E+01  0.60137189232E+01  0.51100000000E-03 0.  1.
        -12    1    3    3    0    0 -0.27895918048E+02  0.95819622614E+01 -0.58014532670E+01  0.30060823417E+02  0.00000000000E+00 0.  1.
</event>
<event>
 7    1  0.2714068E-010  0.4778727E+02  0.7816164E-02  0.1312668E+00
        -11   -1    0    0    0    0  0.00000000000E+00  0.00000000000E+00  0.45593999997E+02  0.45594000000E+02  0.51100000000E-03 0.  1.
         11   -1    0    0    0    0 -0.00000000000E+00 -0.00000000000E+00 -0.45593999997E+02  0.45594000000E+02  0.51100000000E-03 0. -1.
    9900012    2    1    2    0    0 -0.11919112872E+02  0.41676106841E+02  0.21588189687E+01  0.47787266914E+02  0.19999981167E+02 0.  0.
        -12    1    1    2    0    0  0.11919112872E+02 -0.41676106841E+02 -0.21588189687E+01  0.43400733086E+02  0.00000000000E+00 0.  1.
         11    1    3    3    0    0  0.23892382007E+01  0.69751662036E+01 -0.57151636786E+01  0.93286922386E+01  0.51100000000E-03 0. -1.
        -11    1    3    3    0    0 -0.80280742722E+01  0.23047703594E+02  0.50453240958E+01  0.24921916318E+02  0.51100000000E-03 0.  1.
         12    1    3    3    0    0 -0.62802768005E+01  0.11653237043E+02  0.28286585515E+01  0.13536658357E+02  0.00000000000E+00 0. -1.
</event>
<event>
 7    1  0.2714068E-010  0.4778726E+02  0.7816164E-02  0.1312668E+00
        -11   -1    0    0    0    0  0.00000000000E+00  0.00000000000E+00  0.45593999997E+02  0.45594000000E+02  0.51100000000E-03 0.  1.
         11   -1    0    0    0    0 -0.00000000000E+00 -0.00000000000E+00 -0.45593999997E+02  0.45594000000E+02  0.51100000000E-03 0. -1.
    9900012    2    1    2    0    0  0.88016427244E+01  0.40789477487E+02 -0.11932036037E+02  0.47787264151E+02  0.19999968569E+02 0.  0.
        -12    1    1    2    0    0 -0.88016427244E+01 -0.40789477487E+02  0.11932036037E+02  0.43400735849E+02  0.00000000000E+00 0.  1.
         11    1    3    3    0    0  0.78999983782E+01  0.10834920491E+02  0.10257748368E+01  0.13448334124E+02  0.51100000000E-03 0. -1.
        -11    1    3    3    0    0  0.30962692061E+01  0.44417682405E+01 -0.53832029114E+01  0.76351202967E+01  0.51100000000E-03 0.  1.
         12    1    3    3    0    0 -0.21946248599E+01  0.25512788755E+02 -0.75746079623E+01  0.26703809730E+02  0.00000000000E+00 0. -1.
</event>
<event>
 7    1  0.2714068E-010  0.4778727E+02  0.7816164E-02  0.1312668E+00
        -11   -1    0    0    0    0  0.00000000000E+00  0.00000000000E+00  0.45593999997E+02  0.45594000000E+02  0.51100000000E-03 0. -1.
         11   -1    0    0    0    0 -0.00000000000E+00 -0.00000000000E+00 -0.45593999997E+02  0.45594000000E+02  0.51100000000E-03 0.  1.
    9900012    2    1    2    0    0  0.18382551370E+02  0.90775627617E+01  0.38253139838E+02  0.47787273647E+02  0.20000011864E+02 0.  0.
        -12    1    1    2    0    0 -0.18382551370E+02 -0.90775627617E+01 -0.38253139838E+02  0.43400726353E+02  0.00000000000E+00 0.  1.
         11    1    3    3    0    0  0.58077620004E+01  0.12123812444E+02  0.10919990297E+02  0.17319443293E+02  0.51100000000E-03 0.  1.
        -11    1    3    3    0    0  0.79200542982E+01 -0.18053029630E+01  0.20958589674E+02  0.22477741440E+02  0.51100000000E-03 0. -1.
        -12    1    3    3    0    0  0.46547350714E+01 -0.12409467194E+01  0.63745598668E+01  0.79900889132E+01  0.00000000000E+00 0.  1.
</event>
<event>
 7    1  0.2714068E-010  0.4778727E+02  0.7816164E-02  0.1312668E+00
        -11   -1    0    0    0    0  0.00000000000E+00  0.00000000000E+00  0.45593999997E+02  0.45594000000E+02  0.51100000000E-03 0.  1.
         11   -1    0    0    0    0 -0.00000000000E+00 -0.00000000000E+00 -0.45593999997E+02  0.45594000000E+02  0.51100000000E-03 0. -1.
    9900012    2    1    2    0    0  0.36946094221E+02  0.18151468699E+02  0.13752581945E+02  0.47787271846E+02  0.20000003656E+02 0.  0.
        -12    1    1    2    0    0 -0.36946094221E+02 -0.18151468699E+02 -0.13752581945E+02  0.43400728154E+02  0.00000000000E+00 0.  1.
         11    1    3    3    0    0  0.98870725887E+01  0.35578656784E+01 -0.33487617851E+01  0.11028454938E+02  0.51100000000E-03 0. -1.
        -11    1    3    3    0    0  0.24577289138E+02  0.10744489465E+02  0.17704689477E+02  0.32139434112E+02  0.51100000000E-03 0.  1.
         12    1    3    3    0    0  0.24817324938E+01  0.38491135554E+01 -0.60334574693E+00  0.46193827968E+01  0.00000000000E+00 0. -1.
</event>
<event>
 7    1  0.2714068E-010  0.4778727E+02  0.7816164E-02  0.1312668E+00
        -11   -1    0    0    0    0  0.00000000000E+00  0.00000000000E+00  0.45593999997E+02  0.45594000000E+02  0.51100000000E-03 0.  1.
         11   -1    0    0    0    0 -0.00000000000E+00 -0.00000000000E+00 -0.45593999997E+02  0.45594000000E+02  0.51100000000E-03 0. -1.
    9900012    2    1    2    0    0  0.23815921466E+02  0.10203205076E+02 -0.34818385124E+02  0.47787268995E+02  0.19999990656E+02 0.  0.
        -12    1    1    2    0    0 -0.23815921466E+02 -0.10203205076E+02  0.34818385124E+02  0.43400731005E+02  0.00000000000E+00 0.  1.
         11    1    3    3    0    0  0.19561524086E+02  0.59976441631E+01 -0.18224722981E+02  0.27400100147E+02  0.51100000000E-03 0. -1.
        -11    1    3    3    0    0 -0.23589845045E+00  0.33656017238E+00 -0.13849378465E+02  0.13855475630E+02  0.51100000000E-03 0.  1.
        -12    1    3    3    0    0  0.44902958312E+01  0.38690007408E+01 -0.27442836781E+01  0.65316932177E+01  0.00000000000E+00 0.  1.
</event>
<event>
 7    1  0.2714068E-010  0.4778727E+02  0.7816164E-02  0.1312668E+00
        -11   -1    0    0    0    0  0.00000000000E+00  0.00000000000E+00  0.45593999997E+02  0.45594000000E+02  0.51100000000E-03 0.  1.
         11   -1    0    0    0    0 -0.00000000000E+00 -0.00000000000E+00 -0.45593999997E+02  0.45594000000E+02  0.51100000000E-03 0. -1.
    9900012    2    1    2    0    0 -0.60385823911E+01 -0.13269029896E+02 -0.40878988096E+02  0.47787270750E+02  0.19999998659E+02 0.  0.
        -12    1    1    2    0    0  0.60385823911E+01  0.13269029896E+02  0.40878988096E+02  0.43400729250E+02  0.00000000000E+00 0.  1.
         11    1    3    3    0    0 -0.79267713813E+01 -0.64012884149E+01 -0.37110471608E+02  0.38483727745E+02  0.51100000000E-03 0. -1.
        -11    1    3    3    0    0  0.20963866382E+01 -0.17695160417E+01  0.32423301170E+00  0.27624538486E+01  0.51100000000E-03 0.  1.
        -12    1    3    3    0    0 -0.20819764797E+00 -0.50982254396E+01 -0.40927494993E+01  0.65410891569E+01  0.00000000000E+00 0.  1.
</event>
<event>
 7    1  0.3685040E-010  0.4778727E+02  0.7816164E-02  0.1312668E+00
        -11   -1    0    0    0    0  0.00000000000E+00  0.00000000000E+00  0.45593999997E+02  0.45594000000E+02  0.51100000000E-03 0. -1.
         11   -1    0    0    0    0 -0.00000000000E+00 -0.00000000000E+00 -0.45593999997E+02  0.45594000000E+02  0.51100000000E-03 0.  1.
    9900012    2    1    2    0    0  0.28945969983E+02 -0.12215246858E+02  0.29942306125E+02  0.47787272700E+02  0.20000007549E+02 0.  0.
        -12    1    1    2    0    0 -0.28945969983E+02  0.12215246858E+02 -0.29942306125E+02  0.43400727300E+02  0.00000000000E+00 0.  1.
         11    1    3    3    0    0  0.22265309710E+02 -0.12634470454E+02  0.25693757037E+02  0.36270415094E+02  0.51100000000E-03 0. -1.
        -11    1    3    3    0    0  0.71065222425E+01 -0.24664757051E+00 -0.85509065464E-01  0.71113153121E+01  0.51100000000E-03 0.  1.
        -12    1    3    3    0    0 -0.42586196939E+00  0.66587116647E+00  0.43340581533E+01  0.44055422939E+01  0.00000000000E+00 0.  1.
</event>
<event>
 7    1  0.2714068E-010  0.4778728E+02  0.7816164E-02  0.1312668E+00
        -11   -1    0    0    0    0  0.00000000000E+00  0.00000000000E+00  0.45593999997E+02  0.45594000000E+02  0.51100000000E-03 0.  1.
         11   -1    0    0    0    0 -0.00000000000E+00 -0.00000000000E+00 -0.45593999997E+02  0.45594000000E+02  0.51100000000E-03 0. -1.
    9900012    2    1    2    0    0  0.18295703830E+01  0.15626135459E+02 -0.40448719043E+02  0.47787282156E+02  0.20000050663E+02 0.  0.
        -12    1    1    2    0    0 -0.18295703830E+01 -0.15626135459E+02  0.40448719043E+02  0.43400717844E+02  0.00000000000E+00 0.  1.
         11    1    3    3    0    0 -0.23028227162E+01  0.10432022948E+02 -0.17258290760E+02  0.20297258324E+02  0.51100000000E-03 0. -1.
        -11    1    3    3    0    0  0.14544591362E+00 -0.39635851983E+01 -0.30303770006E+01  0.49914273675E+01  0.51100000000E-03 0.  1.
        -12    1    3    3    0    0  0.39869471855E+01  0.91576977089E+01 -0.20160051282E+02  0.22498596465E+02  0.00000000000E+00 0.  1.
</event>
<event>
 7    1  0.2714068E-010  0.4778727E+02  0.7816164E-02  0.1312668E+00
        -11   -1    0    0    0    0  0.00000000000E+00  0.00000000000E+00  0.45593999997E+02  0.45594000000E+02  0.51100000000E-03 0.  1.
         11   -1    0    0    0    0 -0.00000000000E+00 -0.00000000000E+00 -0.45593999997E+02  0.45594000000E+02  0.51100000000E-03 0. -1.
    9900012    2    1    2    0    0  0.15643554055E+02 -0.14614389859E+02 -0.37753435114E+02  0.47787273769E+02  0.20000012424E+02 0.  0.
        -12    1    1    2    0    0 -0.15643554055E+02  0.14614389859E+02  0.37753435114E+02  0.43400726231E+02  0.00000000000E+00 0.  1.
         11    1    3    3    0    0 -0.23720884559E+01 -0.31987289174E+01 -0.34639597902E+01  0.52780382738E+01  0.51100000000E-03 0. -1.
        -11    1    3    3    0    0  0.10530996100E+02  0.80725006760E+00 -0.11754425535E+02  0.15802533071E+02  0.51100000000E-03 0.  1.
        -12    1    3    3    0    0  0.74846464114E+01 -0.12222911009E+02 -0.22535049789E+02  0.26706702425E+02  0.00000000000E+00 0.  1.
</event>
<event>
 7    1  0.2714068E-010  0.4778727E+02  0.7816164E-02  0.1312668E+00
        -11   -1    0    0    0    0  0.00000000000E+00  0.00000000000E+00  0.45593999997E+02  0.45594000000E+02  0.51100000000E-03 0. -1.
         11   -1    0    0    0    0 -0.00000000000E+00 -0.00000000000E+00 -0.45593999997E+02  0.45594000000E+02  0.51100000000E-03 0.  1.
    9900012    2    1    2    0    0  0.37342808952E+02 -0.66591569633E+01  0.21090130661E+02  0.47787270016E+02  0.19999995309E+02 0.  0.
        -12    1    1    2    0    0 -0.37342808952E+02  0.66591569633E+01 -0.21090130661E+02  0.43400729984E+02  0.00000000000E+00 0.  1.
         11    1    3    3    0    0  0.27712516201E+02 -0.57363275414E+01  0.14667247248E+02  0.31875023921E+02  0.51100000000E-03 0. -1.
        -11    1    3    3    0    0  0.94657334784E+00 -0.22663990330E+01 -0.24185142751E+01  0.34469953931E+01  0.51100000000E-03 0.  1.
         12    1    3    3    0    0  0.86837194031E+01  0.13435696111E+01  0.88413976886E+01  0.12465250702E+02  0.00000000000E+00 0. -1.
</event>
<event>
 7    1  0.2714068E-010  0.4778727E+02  0.7816164E-02  0.1312668E+00
        -11   -1    0    0    0    0  0.00000000000E+00  0.00000000000E+00  0.45593999997E+02  0.45594000000E+02  0.51100000000E-03 0.  1.
         11   -1    0    0    0    0 -0.00000000000E+00 -0.00000000000E+00 -0.45593999997E+02  0.45594000000E+02  0.51100000000E-03 0. -1.
    9900012    2    1    2    0    0 -0.42216384852E+02  0.90815438320E+01 -0.43503578700E+01  0.47787271874E+02  0.20000003780E+02 0.  0.
        -12    1    1    2    0    0  0.42216384852E+02 -0.90815438320E+01  0.43503578700E+01  0.43400728126E+02  0.00000000000E+00 0.  1.
         11    1    3    3    0    0 -0.22412196116E+02 -0.38042501525E+00  0.24439080520E+01  0.22548258131E+02  0.51100000000E-03 0.  1.
        -11    1    3    3    0    0 -0.11054135604E+02  0.10282985752E+02 -0.20042453559E+01  0.15229928090E+02  0.51100000000E-03 0. -1.
        -12    1    3    3    0    0 -0.87500531317E+01 -0.82101690459E+00 -0.47900205661E+01  0.10009085652E+02  0.00000000000E+00 0.  1.
</event>
<event>
 7    1  0.2714068E-010  0.4778726E+02  0.7816164E-02  0.1312668E+00
        -11   -1    0    0    0    0  0.00000000000E+00  0.00000000000E+00  0.45593999997E+02  0.45594000000E+02  0.51100000000E-03 0.  1.
         11   -1    0    0    0    0 -0.00000000000E+00 -0.00000000000E+00 -0.45593999997E+02  0.45594000000E+02  0.51100000000E-03 0. -1.
    9900012    2    1    2    0    0 -0.38123686466E+02 -0.17604531147E+02 -0.10967636309E+02  0.47787262300E+02  0.19999960132E+02 0.  0.
        -12    1    1    2    0    0  0.38123686466E+02  0.17604531147E+02  0.10967636309E+02  0.43400737700E+02  0.00000000000E+00 0.  1.
         11    1    3    3    0    0 -0.59428941394E+01 -0.26869728272E+01 -0.58690552948E+01  0.87740312309E+01  0.51100000000E-03 0.  1.
        -11    1    3    3    0    0 -0.23413453152E+02 -0.17831203460E+02 -0.42493149528E+01  0.29735471800E+02  0.51100000000E-03 0. -1.
        -12    1    3    3    0    0 -0.87673391747E+01  0.29136451410E+01 -0.84926606137E+00  0.92777592691E+01  0.00000000000E+00 0.  1.
</event>
<event>
 7    1  0.2714068E-010  0.4778726E+02  0.7816164E-02  0.1312668E+00
        -11   -1    0    0    0    0  0.00000000000E+00  0.00000000000E+00  0.45593999997E+02  0.45594000000E+02  0.51100000000E-03 0. -1.
         11   -1    0    0    0    0 -0.00000000000E+00 -0.00000000000E+00 -0.45593999997E+02  0.45594000000E+02  0.51100000000E-03 0.  1.
    9900012    2    1    2    0    0  0.36044908507E+02 -0.23840669256E+02  0.40013888669E+01  0.47787262072E+02  0.19999959089E+02 0.  0.
        -12    1    1    2    0    0 -0.36044908507E+02  0.23840669256E+02 -0.40013888669E+01  0.43400737928E+02  0.00000000000E+00 0.  1.
         11    1    3    3    0    0  0.65031215478E+01 -0.10810547263E+02  0.77049734892E+01  0.14782595805E+02  0.51100000000E-03 0.  1.
        -11    1    3    3    0    0  0.11520197960E+02 -0.58705899199E+01 -0.42351850832E+01  0.13605718651E+02  0.51100000000E-03 0. -1.
        -12    1    3    3    0    0  0.18021588999E+02 -0.71595320726E+01  0.53160046097E+00  0.19398947616E+02  0.00000000000E+00 0.  1.
</event>
<event>
 7    1  0.2714068E-010  0.4778727E+02  0.7816164E-02  0.1312668E+00
        -11   -1    0    0    0    0  0.00000000000E+00  0.00000000000E+00  0.45593999997E+02  0.45594000000E+02  0.51100000000E-03 0.  1.
         11   -1    0    0    0    0 -0.00000000000E+00 -0.00000000000E+00 -0.45593999997E+02  0.45594000000E+02  0.51100000000E-03 0. -1.
    9900012    2    1    2    0    0 -0.24515623374E+02 -0.17391398191E+02 -0.31307296389E+02  0.47787270424E+02  0.19999997173E+02 0.  0.
        -12    1    1    2    0    0  0.24515623374E+02  0.17391398191E+02  0.31307296389E+02  0.43400729576E+02  0.00000000000E+00 0.  1.
         11    1    3    3    0    0 -0.13333209094E+02 -0.41669295674E+00 -0.66773396443E+01  0.14917605799E+02  0.51100000000E-03 0. -1.
        -11    1    3    3    0    0 -0.17108239073E+01 -0.82950085982E-01 -0.24516162440E+00  0.17302900456E+01  0.51100000000E-03 0.  1.
         12    1    3    3    0    0 -0.94715903728E+01 -0.16891755149E+02 -0.24384795120E+02  0.31139374580E+02  0.00000000000E+00 0. -1.
</event>
<event>
 7    1  0.2714068E-010  0.4778727E+02  0.7816164E-02  0.1312668E+00
        -11   -1    0    0    0    0  0.00000000000E+00  0.00000000000E+00  0.45593999997E+02  0.45594000000E+02  0.51100000000E-03 0. -1.
         11   -1    0    0    0    0 -0.00000000000E+00 -0.00000000000E+00 -0.45593999997E+02  0.45594000000E+02  0.51100000000E-03 0.  1.
    9900012    2    1    2    0    0  0.42395097488E+02  0.29307627730E+00  0.92840301274E+01  0.47787269590E+02  0.19999993370E+02 0.  0.
        -12    1    1    2    0    0 -0.42395097488E+02 -0.29307627730E+00 -0.92840301274E+01  0.43400730410E+02  0.00000000000E+00 0.  1.
         11    1    3    3    0    0  0.82288675653E+01  0.60691623525E+01  0.58387813555E+01  0.11774564155E+02  0.51100000000E-03 0. -1.
        -11    1    3    3    0    0  0.12795417900E+02 -0.42595869030E+01 -0.26377164870E+01  0.13741337211E+02  0.51100000000E-03 0.  1.
         12    1    3    3    0    0  0.21370812023E+02 -0.15164991721E+01  0.60829652589E+01  0.22271368224E+02  0.00000000000E+00 0. -1.
</event>
<event>
 7    1  0.2714068E-010  0.4778727E+02  0.7816164E-02  0.1312668E+00
        -11   -1    0    0    0    0  0.00000000000E+00  0.00000000000E+00  0.45593999997E+02  0.45594000000E+02  0.51100000000E-03 0. -1.
         11   -1    0    0    0    0 -0.00000000000E+00 -0.00000000000E+00 -0.45593999997E+02  0.45594000000E+02  0.51100000000E-03 0.  1.
    9900012    2    1    2    0    0  0.10686685774E+02 -0.41836263005E+02  0.43755142489E+01  0.47787270973E+02  0.19999999676E+02 0.  0.
        -12    1    1    2    0    0 -0.10686685774E+02  0.41836263005E+02 -0.43755142489E+01  0.43400729027E+02  0.00000000000E+00 0.  1.
         11    1    3    3    0    0  0.77147435277E+01 -0.21009313197E+02 -0.53198756914E+01  0.23004555774E+02  0.51100000000E-03 0. -1.
        -11    1    3    3    0    0  0.11901306596E+01 -0.12644924490E+01 -0.13926243948E+01  0.22259279204E+01  0.51100000000E-03 0.  1.
         12    1    3    3    0    0  0.17818115870E+01 -0.19562457359E+02  0.11088014335E+02  0.22556787279E+02  0.00000000000E+00 0. -1.
</event>
<event>
 7    1  0.2714068E-010  0.4778727E+02  0.7816164E-02  0.1312668E+00
        -11   -1    0    0    0    0  0.00000000000E+00  0.00000000000E+00  0.45593999997E+02  0.45594000000E+02  0.51100000000E-03 0.  1.
         11   -1    0    0    0    0 -0.00000000000E+00 -0.00000000000E+00 -0.45593999997E+02  0.45594000000E+02  0.51100000000E-03 0. -1.
    9900012    2    1    2    0    0  0.75777477709E+01  0.14606474595E+02 -0.40160331724E+02  0.47787267223E+02  0.19999982578E+02 0.  0.
        -12    1    1    2    0    0 -0.75777477709E+01 -0.14606474595E+02  0.40160331724E+02  0.43400732777E+02  0.00000000000E+00 0.  1.
         11    1    3    3    0    0  0.10484889026E+02  0.11090688897E+02 -0.24348151893E+02  0.28736192840E+02  0.51100000000E-03 0. -1.
        -11    1    3    3    0    0 -0.32728320934E+01 -0.92351662997E+00 -0.13710271463E+02  0.14125716149E+02  0.51100000000E-03 0.  1.
        -12    1    3    3    0    0  0.36569083809E+00  0.44393023272E+01 -0.21019083681E+01  0.49253582336E+01  0.00000000000E+00 0.  1.
</event>
<event>
 7    1  0.2714068E-010  0.4778727E+02  0.7816164E-02  0.1312668E+00
        -11   -1    0    0    0    0  0.00000000000E+00  0.00000000000E+00  0.45593999997E+02  0.45594000000E+02  0.51100000000E-03 0. -1.
         11   -1    0    0    0    0 -0.00000000000E+00 -0.00000000000E+00 -0.45593999997E+02  0.45594000000E+02  0.51100000000E-03 0.  1.
    9900012    2    1    2    0    0  0.31294095453E+02 -0.25108565720E+02  0.16548795040E+02  0.47787273047E+02  0.20000009131E+02 0.  0.
        -12    1    1    2    0    0 -0.31294095453E+02  0.25108565720E+02 -0.16548795040E+02  0.43400726953E+02  0.00000000000E+00 0.  1.
         11    1    3    3    0    0  0.20995120701E+01 -0.50698222295E+01  0.12296833872E+01  0.56234482184E+01  0.51100000000E-03 0. -1.
        -11    1    3    3    0    0  0.32172324719E+01 -0.71358045636E+01 -0.23843595035E+01  0.81826317314E+01  0.51100000000E-03 0.  1.
        -12    1    3    3    0    0  0.25977350911E+02 -0.12902938927E+02  0.17703471157E+02  0.33981193097E+02  0.00000000000E+00 0.  1.
</event>
<event>
 7    1  0.2714068E-010  0.4778728E+02  0.7816164E-02  0.1312668E+00
        -11   -1    0    0    0    0  0.00000000000E+00  0.00000000000E+00  0.45593999997E+02  0.45594000000E+02  0.51100000000E-03 0. -1.
         11   -1    0    0    0    0 -0.00000000000E+00 -0.00000000000E+00 -0.45593999997E+02  0.45594000000E+02  0.51100000000E-03 0.  1.
    9900012    2    1    2    0    0  0.52244937968E+01 -0.37360291269E+02 -0.21460107522E+02  0.47787275191E+02  0.20000018906E+02 0.  0.
        -12    1    1    2    0    0 -0.52244937968E+01  0.37360291269E+02  0.21460107522E+02  0.43400724809E+02  0.00000000000E+00 0.  1.
         11    1    3    3    0    0  0.13514863677E+01 -0.30955929457E+02 -0.17383598192E+02  0.35528658437E+02  0.51100000000E-03 0. -1.
        -11    1    3    3    0    0  0.55324564088E+00  0.22342316029E+01 -0.95299315832E+00  0.24911980683E+01  0.51100000000E-03 0.  1.
        -12    1    3    3    0    0  0.33197617882E+01 -0.86385934147E+01 -0.31235161711E+01  0.97674186859E+01  0.00000000000E+00 0.  1.
</event>
<event>
 7    1  0.2714068E-010  0.4778731E+02  0.7816164E-02  0.1312668E+00
        -11   -1    0    0    0    0  0.00000000000E+00  0.00000000000E+00  0.45593999997E+02  0.45594000000E+02  0.51100000000E-03 0.  1.
         11   -1    0    0    0    0 -0.00000000000E+00 -0.00000000000E+00 -0.45593999997E+02  0.45594000000E+02  0.51100000000E-03 0. -1.
    9900012    2    1    2    0    0  0.33922163364E+02  0.26723347692E+02 -0.43324153253E+01  0.47787305285E+02  0.20000156117E+02 0.  0.
        -12    1    1    2    0    0 -0.33922163364E+02 -0.26723347692E+02  0.43324153253E+01  0.43400694715E+02  0.00000000000E+00 0.  1.
         11    1    3    3    0    0  0.82949060033E+01  0.25486935394E+01  0.22555568879E+01  0.89659824613E+01  0.51100000000E-03 0. -1.
        -11    1    3    3    0    0  0.44712319031E+01 -0.80009213737E+00 -0.38883227842E+01  0.59792237368E+01  0.51100000000E-03 0.  1.
        -12    1    3    3    0    0  0.21156025457E+02  0.24974746290E+02 -0.26996494291E+01  0.32842099087E+02  0.00000000000E+00 0.  1.
</event>
<event>
 7    1  0.2714068E-010  0.4778727E+02  0.7816164E-02  0.1312668E+00
        -11   -1    0    0    0    0  0.00000000000E+00  0.00000000000E+00  0.45593999997E+02  0.45594000000E+02  0.51100000000E-03 0.  1.
         11   -1    0    0    0    0 -0.00000000000E+00 -0.00000000000E+00 -0.45593999997E+02  0.45594000000E+02  0.51100000000E-03 0. -1.
    9900012    2    1    2    0    0  0.25150836411E+02  0.34778545547E+02 -0.64429307760E+01  0.47787272362E+02  0.20000006007E+02 0.  0.
        -12    1    1    2    0    0 -0.25150836411E+02 -0.34778545547E+02  0.64429307760E+01  0.43400727638E+02  0.00000000000E+00 0.  1.
         11    1    3    3    0    0  0.21281051565E+02  0.27104431093E+02 -0.11299971364E+02  0.36265999141E+02  0.51100000000E-03 0. -1.
        -11    1    3    3    0    0  0.28807994894E+01  0.85860538351E+01  0.45763792637E+01  0.10147047530E+02  0.51100000000E-03 0.  1.
        -12    1    3    3    0    0  0.98898535604E+00 -0.91193938105E+00  0.28066132463E+00  0.13742256905E+01  0.00000000000E+00 0.  1.
</event>
<event>
 7    1  0.2714068E-010  0.4778722E+02  0.7816164E-02  0.1312668E+00
        -11   -1    0    0    0    0  0.00000000000E+00  0.00000000000E+00  0.45593999997E+02  0.45594000000E+02  0.51100000000E-03 0.  1.
         11   -1    0    0    0    0 -0.00000000000E+00 -0.00000000000E+00 -0.45593999997E+02  0.45594000000E+02  0.51100000000E-03 0. -1.
    9900012    2    1    2    0    0  0.40833689968E+02  0.11960429701E+02 -0.85548337241E+01  0.47787224717E+02  0.19999788776E+02 0.  0.
        -12    1    1    2    0    0 -0.40833689968E+02 -0.11960429701E+02  0.85548337241E+01  0.43400775283E+02  0.00000000000E+00 0.  1.
         11    1    3    3    0    0  0.51292396026E+01  0.30981880693E+01  0.45785171441E+01  0.75412656573E+01  0.51100000000E-03 0. -1.
        -11    1    3    3    0    0  0.31123108875E+02  0.52145404247E+01 -0.82412580390E+01  0.32615298132E+02  0.51100000000E-03 0.  1.
        -12    1    3    3    0    0  0.45813414904E+01  0.36477012076E+01 -0.48920928291E+01  0.76306609281E+01  0.00000000000E+00 0.  1.
</event>
<event>
 7    1  0.2714068E-010  0.4778728E+02  0.7816164E-02  0.1312668E+00
        -11   -1    0    0    0    0  0.00000000000E+00  0.00000000000E+00  0.45593999997E+02  0.45594000000E+02  0.51100000000E-03 0.  1.
         11   -1    0    0    0    0 -0.00000000000E+00 -0.00000000000E+00 -0.45593999997E+02  0.45594000000E+02  0.51100000000E-03 0. -1.
    9900012    2    1    2    0    0 -0.23133055266E+02  0.28107443262E+02  0.23631677876E+02  0.47787276367E+02  0.20000024269E+02 0.  0.
        -12    1    1    2    0    0  0.23133055266E+02 -0.28107443262E+02 -0.23631677876E+02  0.43400723633E+02  0.00000000000E+00 0.  1.
         11    1    3    3    0    0 -0.73320154210E+01  0.95370864493E+01  0.36944494077E+01  0.12584253047E+02  0.51100000000E-03 0. -1.
        -11    1    3    3    0    0  0.45370905768E+00  0.83892076185E+01  0.13779670897E+01  0.85137212744E+01  0.51100000000E-03 0.  1.
         12    1    3    3    0    0 -0.16254748902E+02  0.10181149194E+02  0.18559261378E+02  0.26689302046E+02  0.00000000000E+00 0. -1.
</event>
<event>
 7    1  0.2714068E-010  0.4778727E+02  0.7816164E-02  0.1312668E+00
        -11   -1    0    0    0    0  0.00000000000E+00  0.00000000000E+00  0.45593999997E+02  0.45594000000E+02  0.51100000000E-03 0.  1.
         11   -1    0    0    0    0 -0.00000000000E+00 -0.00000000000E+00 -0.45593999997E+02  0.45594000000E+02  0.51100000000E-03 0. -1.
    9900012    2    1    2    0    0  0.31765309738E+02 -0.10283928048E+02 -0.27727775720E+02  0.47787266997E+02  0.19999981545E+02 0.  0.
        -12    1    1    2    0    0 -0.31765309738E+02  0.10283928048E+02  0.27727775720E+02  0.43400733003E+02  0.00000000000E+00 0.  1.
         11    1    3    3    0    0  0.30873371245E+01  0.90184629162E+00 -0.35074296602E+01  0.47588906624E+01  0.51100000000E-03 0. -1.
        -11    1    3    3    0    0  0.37381802756E+01  0.30508399776E+01 -0.97340368255E+01  0.10864303453E+02  0.51100000000E-03 0.  1.
        -12    1    3    3    0    0  0.24939792338E+02 -0.14236614317E+02 -0.14486309234E+02  0.32164072881E+02  0.00000000000E+00 0.  1.
</event>
<event>
 7    1  0.2714068E-010  0.4778728E+02  0.7816164E-02  0.1312668E+00
        -11   -1    0    0    0    0  0.00000000000E+00  0.00000000000E+00  0.45593999997E+02  0.45594000000E+02  0.51100000000E-03 0.  1.
         11   -1    0    0    0    0 -0.00000000000E+00 -0.00000000000E+00 -0.45593999997E+02  0.45594000000E+02  0.51100000000E-03 0. -1.
    9900012    2    1    2    0    0 -0.14739711206E+02 -0.20017579427E+02 -0.35576118814E+02  0.47787276476E+02  0.20000024763E+02 0.  0.
        -12    1    1    2    0    0  0.14739711206E+02  0.20017579427E+02  0.35576118814E+02  0.43400723524E+02  0.00000000000E+00 0.  1.
         11    1    3    3    0    0 -0.15612425852E+02 -0.88314515328E+01 -0.22498312079E+02  0.28773536866E+02  0.51100000000E-03 0. -1.
        -11    1    3    3    0    0  0.44733478565E+01 -0.63705480198E+01 -0.71287440706E+01  0.10555269556E+02  0.51100000000E-03 0.  1.
        -12    1    3    3    0    0 -0.36006332103E+01 -0.48155798745E+01 -0.59490626652E+01  0.84584700530E+01  0.00000000000E+00 0.  1.
</event>
<event>
 7    1  0.2714068E-010  0.4778727E+02  0.7816164E-02  0.1312668E+00
        -11   -1    0    0    0    0  0.00000000000E+00  0.00000000000E+00  0.45593999997E+02  0.45594000000E+02  0.51100000000E-03 0.  1.
         11   -1    0    0    0    0 -0.00000000000E+00 -0.00000000000E+00 -0.45593999997E+02  0.45594000000E+02  0.51100000000E-03 0. -1.
    9900012    2    1    2    0    0  0.16880399141E+01  0.37481699057E+01 -0.43205613440E+02  0.47787270869E+02  0.19999999200E+02 0.  0.
        -12    1    1    2    0    0 -0.16880399141E+01 -0.37481699057E+01  0.43205613440E+02  0.43400729131E+02  0.00000000000E+00 0.  1.
         11    1    3    3    0    0 -0.98095076525E+00 -0.29914398535E+01 -0.98654081207E+01  0.10355542209E+02  0.51100000000E-03 0. -1.
        -11    1    3    3    0    0  0.48145612451E+01 -0.34322756389E+01 -0.17615478321E+02  0.18581323763E+02  0.51100000000E-03 0.  1.
         12    1    3    3    0    0 -0.21455705658E+01  0.10171885398E+02 -0.15724726998E+02  0.18850404897E+02  0.00000000000E+00 0. -1.
</event>
<event>
 7    1  0.2714068E-010  0.4778728E+02  0.7816164E-02  0.1312668E+00
        -11   -1    0    0    0    0  0.00000000000E+00  0.00000000000E+00  0.45593999997E+02  0.45594000000E+02  0.51100000000E-03 0. -1.
         11   -1    0    0    0    0 -0.00000000000E+00 -0.00000000000E+00 -0.45593999997E+02  0.45594000000E+02  0.51100000000E-03 0.  1.
    9900012    2    1    2    0    0 -0.40642306793E+02 -0.11846782276E+02  0.95644527900E+01  0.47787284465E+02  0.20000061189E+02 0.  0.
        -12    1    1    2    0    0  0.40642306793E+02  0.11846782276E+02 -0.95644527900E+01  0.43400715535E+02  0.00000000000E+00 0.  1.
         11    1    3    3    0    0 -0.31858397954E+02 -0.82132820150E+01  0.73380431928E+01  0.33708491509E+02  0.51100000000E-03 0. -1.
        -11    1    3    3    0    0 -0.41985580212E+01  0.93149135407E+00 -0.34172580843E+01  0.54930154447E+01  0.51100000000E-03 0.  1.
        -12    1    3    3    0    0 -0.45853508182E+01 -0.45649916154E+01  0.56436676815E+01  0.85857775113E+01  0.00000000000E+00 0.  1.
</event>
<event>
 7    1  0.2714068E-010  0.4778726E+02  0.7816164E-02  0.1312668E+00
        -11   -1    0    0    0    0  0.00000000000E+00  0.00000000000E+00  0.45593999997E+02  0.45594000000E+02  0.51100000000E-03 0.  1.
         11   -1    0    0    0    0 -0.00000000000E+00 -0.00000000000E+00 -0.45593999997E+02  0.45594000000E+02  0.51100000000E-03 0. -1.
    9900012    2    1    2    0    0  0.32812405256E+02  0.15511092694E+02 -0.23798653404E+02  0.47787264533E+02  0.19999970312E+02 0.  0.
        -12    1    1    2    0    0 -0.32812405256E+02 -0.15511092694E+02  0.23798653404E+02  0.43400735467E+02  0.00000000000E+00 0.  1.
         11    1    3    3    0    0  0.12353490757E+02  0.12298892973E+02 -0.93537780226E+01  0.19782938755E+02  0.51100000000E-03 0. -1.
        -11    1    3    3    0    0  0.69488131617E+01 -0.17834134872E+01 -0.11100651884E+02  0.13217073826E+02  0.51100000000E-03 0.  1.
        -12    1    3    3    0    0  0.13510101338E+02  0.49956132085E+01 -0.33442234973E+01  0.14787251952E+02  0.00000000000E+00 0.  1.
</event>
<event>
 7    1  0.2714068E-010  0.4778727E+02  0.7816164E-02  0.1312668E+00
        -11   -1    0    0    0    0  0.00000000000E+00  0.00000000000E+00  0.45593999997E+02  0.45594000000E+02  0.51100000000E-03 0.  1.
         11   -1    0    0    0    0 -0.00000000000E+00 -0.00000000000E+00 -0.45593999997E+02  0.45594000000E+02  0.51100000000E-03 0. -1.
    9900012    2    1    2    0    0 -0.36880175135E+02 -0.12659184384E+02 -0.19058356595E+02  0.47787271626E+02  0.20000002653E+02 0.  0.
        -12    1    1    2    0    0  0.36880175135E+02  0.12659184384E+02  0.19058356595E+02  0.43400728374E+02  0.00000000000E+00 0.  1.
         11    1    3    3    0    0 -0.20485585331E+02  0.36775427454E+00 -0.77100770362E+01  0.21891544891E+02  0.51100000000E-03 0. -1.
        -11    1    3    3    0    0 -0.13411216362E+02 -0.14643940165E+02 -0.10116881262E+02  0.22285802535E+02  0.51100000000E-03 0.  1.
         12    1    3    3    0    0 -0.29833734421E+01  0.16170015066E+01 -0.12313982965E+01  0.36099242003E+01  0.00000000000E+00 0. -1.
</event>
<event>
 7    1  0.2714068E-010  0.4778726E+02  0.7816164E-02  0.1312668E+00
        -11   -1    0    0    0    0  0.00000000000E+00  0.00000000000E+00  0.45593999997E+02  0.45594000000E+02  0.51100000000E-03 0.  1.
         11   -1    0    0    0    0 -0.00000000000E+00 -0.00000000000E+00 -0.45593999997E+02  0.45594000000E+02  0.51100000000E-03 0. -1.
    9900012    2    1    2    0    0  0.75019703804E+01 -0.12016227828E+02 -0.41023829875E+02  0.47787263735E+02  0.19999966671E+02 0.  0.
        -12    1    1    2    0    0 -0.75019703804E+01  0.12016227828E+02  0.41023829875E+02  0.43400736265E+02  0.00000000000E+00 0.  1.
         11    1    3    3    0    0  0.13287952813E+02 -0.56823547897E+01 -0.27997280152E+02  0.31507245867E+02  0.51100000000E-03 0. -1.
        -11    1    3    3    0    0 -0.27048438085E+01 -0.10546203684E+01 -0.15841365112E+01  0.33072485388E+01  0.51100000000E-03 0.  1.
         12    1    3    3    0    0 -0.30811386241E+01 -0.52792526694E+01 -0.11442413211E+02  0.12972769329E+02  0.00000000000E+00 0. -1.
</event>
<event>
 7    1  0.2714068E-010  0.4778727E+02  0.7816164E-02  0.1312668E+00
        -11   -1    0    0    0    0  0.00000000000E+00  0.00000000000E+00  0.45593999997E+02  0.45594000000E+02  0.51100000000E-03 0.  1.
         11   -1    0    0    0    0 -0.00000000000E+00 -0.00000000000E+00 -0.45593999997E+02  0.45594000000E+02  0.51100000000E-03 0. -1.
    9900012    2    1    2    0    0 -0.37855863809E+02  0.21169157890E+02 -0.15567967950E+01  0.47787270896E+02  0.19999999324E+02 0.  0.
        -12    1    1    2    0    0  0.37855863809E+02 -0.21169157890E+02  0.15567967950E+01  0.43400729104E+02  0.00000000000E+00 0.  1.
         11    1    3    3    0    0 -0.25372282694E+02  0.18626759497E+02  0.28939415029E+01  0.31608286827E+02  0.51100000000E-03 0. -1.
        -11    1    3    3    0    0 -0.57405541273E+01  0.52637445562E+01 -0.43199605897E+01  0.89063476352E+01  0.51100000000E-03 0.  1.
         12    1    3    3    0    0 -0.67430269873E+01 -0.27213461629E+01 -0.13077770815E+00  0.72726364338E+01  0.00000000000E+00 0. -1.
</event>
<event>
 7    1  0.2714068E-010  0.4778731E+02  0.7816164E-02  0.1312668E+00
        -11   -1    0    0    0    0  0.00000000000E+00  0.00000000000E+00  0.45593999997E+02  0.45594000000E+02  0.51100000000E-03 0.  1.
         11   -1    0    0    0    0 -0.00000000000E+00 -0.00000000000E+00 -0.45593999997E+02  0.45594000000E+02  0.51100000000E-03 0. -1.
    9900012    2    1    2    0    0  0.12601117109E+02 -0.28101828482E+02 -0.30579709601E+02  0.47787313879E+02  0.20000195301E+02 0.  0.
        -12    1    1    2    0    0 -0.12601117109E+02  0.28101828482E+02  0.30579709601E+02  0.43400686121E+02  0.00000000000E+00 0.  1.
         11    1    3    3    0    0  0.22307111262E+01 -0.37305137421E+01 -0.16084037275E+02  0.16661004179E+02  0.51100000000E-03 0.  1.
        -11    1    3    3    0    0  0.10942081520E+02 -0.24428021361E+02 -0.14673556816E+02  0.30524918436E+02  0.51100000000E-03 0. -1.
         12    1    3    3    0    0 -0.57167553793E+00  0.56706621202E-01  0.17788448997E+00  0.60139126476E+00  0.00000000000E+00 0. -1.
</event>
<event>
 7    1  0.2714068E-010  0.4778727E+02  0.7816164E-02  0.1312668E+00
        -11   -1    0    0    0    0  0.00000000000E+00  0.00000000000E+00  0.45593999997E+02  0.45594000000E+02  0.51100000000E-03 0.  1.
         11   -1    0    0    0    0 -0.00000000000E+00 -0.00000000000E+00 -0.45593999997E+02  0.45594000000E+02  0.51100000000E-03 0. -1.
    9900012    2    1    2    0    0  0.25903871838E+02 -0.62416696962E+01 -0.34258638905E+02  0.47787270093E+02  0.19999995664E+02 0.  0.
        -12    1    1    2    0    0 -0.25903871838E+02  0.62416696962E+01  0.34258638905E+02  0.43400729907E+02  0.00000000000E+00 0.  1.
         11    1    3    3    0    0  0.88089380506E+01 -0.35208634023E+01 -0.20441119575E+02  0.22535155611E+02  0.51100000000E-03 0. -1.
        -11    1    3    3    0    0  0.38203467465E+01  0.35612841828E+01 -0.20376248712E+00  0.52267880870E+01  0.51100000000E-03 0.  1.
        -12    1    3    3    0    0  0.13274587041E+02 -0.62820904767E+01 -0.13613756843E+02  0.20025326395E+02  0.00000000000E+00 0.  1.
</event>
<event>
 7    1  0.2714068E-010  0.4778728E+02  0.7816164E-02  0.1312668E+00
        -11   -1    0    0    0    0  0.00000000000E+00  0.00000000000E+00  0.45593999997E+02  0.45594000000E+02  0.51100000000E-03 0.  1.
         11   -1    0    0    0    0 -0.00000000000E+00 -0.00000000000E+00 -0.45593999997E+02  0.45594000000E+02  0.51100000000E-03 0. -1.
    9900012    2    1    2    0    0  0.16260502196E+02 -0.32543268602E+02 -0.23667586511E+02  0.47787275188E+02  0.20000018892E+02 0.  0.
        -12    1    1    2    0    0 -0.16260502196E+02  0.32543268602E+02  0.23667586511E+02  0.43400724812E+02  0.00000000000E+00 0.  1.
         11    1    3    3    0    0  0.16956766225E+01  0.20435643804E+01 -0.42845073028E+00  0.26898038728E+01  0.51100000000E-03 0. -1.
        -11    1    3    3    0    0 -0.10075479073E+01 -0.37154818172E+01 -0.39003339961E+01  0.54801973926E+01  0.51100000000E-03 0.  1.
         12    1    3    3    0    0  0.15572373481E+02 -0.30871351165E+02 -0.19338801784E+02  0.39617273922E+02  0.00000000000E+00 0. -1.
</event>
<event>
 7    1  0.2714068E-010  0.4778727E+02  0.7816164E-02  0.1312668E+00
        -11   -1    0    0    0    0  0.00000000000E+00  0.00000000000E+00  0.45593999997E+02  0.45594000000E+02  0.51100000000E-03 0.  1.
         11   -1    0    0    0    0 -0.00000000000E+00 -0.00000000000E+00 -0.45593999997E+02  0.45594000000E+02  0.51100000000E-03 0. -1.
    9900012    2    1    2    0    0 -0.10275745188E+02 -0.18724463467E+02 -0.37781307012E+02  0.47787266932E+02  0.19999981249E+02 0.  0.
        -12    1    1    2    0    0  0.10275745188E+02  0.18724463467E+02  0.37781307012E+02  0.43400733068E+02  0.00000000000E+00 0.  1.
         11    1    3    3    0    0 -0.12054601323E+02 -0.68314740480E+01 -0.16737170693E+02  0.21728215154E+02  0.51100000000E-03 0. -1.
        -11    1    3    3    0    0  0.40649979622E+01 -0.20701834079E+01 -0.10601918204E+02  0.11541686949E+02  0.51100000000E-03 0.  1.
        -12    1    3    3    0    0 -0.22861418275E+01 -0.98228060112E+01 -0.10442218116E+02  0.14517364829E+02  0.00000000000E+00 0.  1.
</event>
<event>
 7    1  0.2714068E-010  0.4778725E+02  0.7816164E-02  0.1312668E+00
        -11   -1    0    0    0    0  0.00000000000E+00  0.00000000000E+00  0.45593999997E+02  0.45594000000E+02  0.51100000000E-03 0.  1.
         11   -1    0    0    0    0 -0.00000000000E+00 -0.00000000000E+00 -0.45593999997E+02  0.45594000000E+02  0.51100000000E-03 0. -1.
    9900012    2    1    2    0    0 -0.38624968913E+02 -0.13560012457E+02 -0.14417444993E+02  0.47787252524E+02  0.19999915558E+02 0.  0.
        -12    1    1    2    0    0  0.38624968913E+02  0.13560012457E+02  0.14417444993E+02  0.43400747476E+02  0.00000000000E+00 0.  1.
         11    1    3    3    0    0 -0.20203563270E+02 -0.32932483430E+01 -0.78490584717E+01  0.21923438887E+02  0.51100000000E-03 0. -1.
        -11    1    3    3    0    0 -0.22249813903E+01 -0.76468709464E+01  0.54193025417E+00  0.79824097940E+01  0.51100000000E-03 0.  1.
        -12    1    3    3    0    0 -0.16196424252E+02 -0.26198931674E+01 -0.71103167753E+01  0.17881403843E+02  0.00000000000E+00 0.  1.
</event>
<event>
 7    1  0.2714068E-010  0.4778727E+02  0.7816164E-02  0.1312668E+00
        -11   -1    0    0    0    0  0.00000000000E+00  0.00000000000E+00  0.45593999997E+02  0.45594000000E+02  0.51100000000E-03 0. -1.
         11   -1    0    0    0    0 -0.00000000000E+00 -0.00000000000E+00 -0.45593999997E+02  0.45594000000E+02  0.51100000000E-03 0.  1.
    9900012    2    1    2    0    0 -0.24412270848E+02 -0.35867856203E+02  0.10776005772E+01  0.47787270749E+02  0.19999998653E+02 0.  0.
        -12    1    1    2    0    0  0.24412270848E+02  0.35867856203E+02 -0.10776005772E+01  0.43400729251E+02  0.00000000000E+00 0.  1.
         11    1    3    3    0    0 -0.20064394402E+02 -0.15609970303E+02  0.51005416775E+01  0.25928104853E+02  0.51100000000E-03 0. -1.
        -11    1    3    3    0    0 -0.47809734773E+00 -0.81674100276E+01 -0.41285185950E+01  0.91640509428E+01  0.51100000000E-03 0.  1.
         12    1    3    3    0    0 -0.38697790982E+01 -0.12090475872E+02  0.10557749470E+00  0.12695114953E+02  0.00000000000E+00 0. -1.
</event>
<event>
 7    1  0.2714068E-010  0.4778727E+02  0.7816164E-02  0.1312668E+00
        -11   -1    0    0    0    0  0.00000000000E+00  0.00000000000E+00  0.45593999997E+02  0.45594000000E+02  0.51100000000E-03 0.  1.
         11   -1    0    0    0    0 -0.00000000000E+00 -0.00000000000E+00 -0.45593999997E+02  0.45594000000E+02  0.51100000000E-03 0. -1.
    9900012    2    1    2    0    0 -0.28932016409E+02 -0.13699725313E+02 -0.29306643446E+02  0.47787269623E+02  0.19999993520E+02 0.  0.
        -12    1    1    2    0    0  0.28932016409E+02  0.13699725313E+02  0.29306643446E+02  0.43400730377E+02  0.00000000000E+00 0.  1.
         11    1    3    3    0    0 -0.23099506016E+02 -0.27362837581E+01 -0.14069007393E+02  0.27184764046E+02  0.51100000000E-03 0. -1.
        -11    1    3    3    0    0 -0.71467682698E+01 -0.95633131265E+01 -0.12888228281E+02  0.17568143987E+02  0.51100000000E-03 0.  1.
         12    1    3    3    0    0  0.13142578761E+01 -0.14001284281E+01 -0.23494077718E+01  0.30343615899E+01  0.00000000000E+00 0. -1.
</event>
<event>
 7    1  0.2714068E-010  0.4778727E+02  0.7816164E-02  0.1312668E+00
        -11   -1    0    0    0    0  0.00000000000E+00  0.00000000000E+00  0.45593999997E+02  0.45594000000E+02  0.51100000000E-03 0. -1.
         11   -1    0    0    0    0 -0.00000000000E+00 -0.00000000000E+00 -0.45593999997E+02  0.45594000000E+02  0.51100000000E-03 0.  1.
    9900012    2    1    2    0    0  0.35952069717E+02 -0.21217721828E+02 -0.11869292946E+02  0.47787272454E+02  0.20000006426E+02 0.  0.
        -12    1    1    2    0    0 -0.35952069717E+02  0.21217721828E+02  0.11869292946E+02  0.43400727546E+02  0.00000000000E+00 0.  1.
         11    1    3    3    0    0  0.66482737068E+01 -0.58902444720E+01 -0.20894041339E+01  0.91246990699E+01  0.51100000000E-03 0. -1.
        -11    1    3    3    0    0  0.13273739915E+02 -0.12977199669E+02  0.19429244878E+01  0.18664802126E+02  0.51100000000E-03 0.  1.
        -12    1    3    3    0    0  0.16030056095E+02 -0.23502776873E+01 -0.11722813300E+02  0.19997771258E+02  0.00000000000E+00 0.  1.
</event>
<event>
 7    1  0.2714068E-010  0.4778727E+02  0.7816164E-02  0.1312668E+00
        -11   -1    0    0    0    0  0.00000000000E+00  0.00000000000E+00  0.45593999997E+02  0.45594000000E+02  0.51100000000E-03 0. -1.
         11   -1    0    0    0    0 -0.00000000000E+00 -0.00000000000E+00 -0.45593999997E+02  0.45594000000E+02  0.51100000000E-03 0.  1.
    9900012    2    1    2    0    0  0.14045672613E+01 -0.20586340318E+02  0.38181841021E+02  0.47787271888E+02  0.20000003848E+02 0.  0.
        -12    1    1    2    0    0 -0.14045672613E+01  0.20586340318E+02 -0.38181841021E+02  0.43400728112E+02  0.00000000000E+00 0.  1.
         11    1    3    3    0    0  0.59898345277E+01 -0.49108322423E+01  0.88280217134E+01  0.11744290469E+02  0.51100000000E-03 0. -1.
        -11    1    3    3    0    0 -0.63985873204E+01 -0.11215302787E+02  0.10674740019E+02  0.16753358202E+02  0.51100000000E-03 0.  1.
        -12    1    3    3    0    0  0.18133200540E+01 -0.44602052888E+01  0.18679079288E+02  0.19289623218E+02  0.00000000000E+00 0.  1.
</event>
<event>
 7    1  0.2714068E-010  0.4778728E+02  0.7816164E-02  0.1312668E+00
        -11   -1    0    0    0    0  0.00000000000E+00  0.00000000000E+00  0.45593999997E+02  0.45594000000E+02  0.51100000000E-03 0.  1.
         11   -1    0    0    0    0 -0.00000000000E+00 -0.00000000000E+00 -0.45593999997E+02  0.45594000000E+02  0.51100000000E-03 0. -1.
    9900012    2    1    2    0    0 -0.20660964697E+02 -0.21828411864E+02 -0.31309229133E+02  0.47787275863E+02  0.20000021971E+02 0.  0.
        -12    1    1    2    0    0  0.20660964697E+02  0.21828411864E+02  0.31309229133E+02  0.43400724137E+02  0.00000000000E+00 0.  1.
         11    1    3    3    0    0  0.19505760862E+01 -0.69415840240E+01 -0.55644207531E+01  0.91078600345E+01  0.51100000000E-03 0. -1.
        -11    1    3    3    0    0 -0.12249070235E+02 -0.50454660361E+01 -0.66329069979E+01  0.14815259182E+02  0.51100000000E-03 0.  1.
        -12    1    3    3    0    0 -0.10362470548E+02 -0.98413618037E+01 -0.19111901382E+02  0.23864156646E+02  0.00000000000E+00 0.  1.
</event>
<event>
 7    1  0.2714068E-010  0.4778727E+02  0.7816164E-02  0.1312668E+00
        -11   -1    0    0    0    0  0.00000000000E+00  0.00000000000E+00  0.45593999997E+02  0.45594000000E+02  0.51100000000E-03 0.  1.
         11   -1    0    0    0    0 -0.00000000000E+00 -0.00000000000E+00 -0.45593999997E+02  0.45594000000E+02  0.51100000000E-03 0. -1.
    9900012    2    1    2    0    0  0.17428442259E+02  0.16837471240E+02 -0.36005169145E+02  0.47787271406E+02  0.20000001647E+02 0.  0.
        -12    1    1    2    0    0 -0.17428442259E+02 -0.16837471240E+02  0.36005169145E+02  0.43400728594E+02  0.00000000000E+00 0.  1.
         11    1    3    3    0    0  0.59345317527E+01  0.78139010804E+01 -0.17168782951E+02  0.19774802793E+02  0.51100000000E-03 0. -1.
        -11    1    3    3    0    0 -0.10529116167E+01  0.80447232882E+01 -0.81902529064E+01  0.11528505479E+02  0.51100000000E-03 0.  1.
        -12    1    3    3    0    0  0.12546822124E+02  0.97884687169E+00 -0.10646133287E+02  0.16483963133E+02  0.00000000000E+00 0.  1.
</event>
<event>
 7    1  0.2714068E-010  0.4778727E+02  0.7816164E-02  0.1312668E+00
        -11   -1    0    0    0    0  0.00000000000E+00  0.00000000000E+00  0.45593999997E+02  0.45594000000E+02  0.51100000000E-03 0.  1.
         11   -1    0    0    0    0 -0.00000000000E+00 -0.00000000000E+00 -0.45593999997E+02  0.45594000000E+02  0.51100000000E-03 0. -1.
    9900012    2    1    2    0    0 -0.20044755482E+02 -0.15737977879E+02 -0.35130426042E+02  0.47787274154E+02  0.20000014180E+02 0.  0.
        -12    1    1    2    0    0  0.20044755482E+02  0.15737977879E+02  0.35130426042E+02  0.43400725846E+02  0.00000000000E+00 0.  1.
         11    1    3    3    0    0 -0.77278492457E+01 -0.15712789882E+02 -0.18501321093E+02  0.25473717873E+02  0.51100000000E-03 0. -1.
        -11    1    3    3    0    0 -0.52648664487E+01  0.31356401064E+01 -0.34407609361E+01  0.70277943681E+01  0.51100000000E-03 0.  1.
         12    1    3    3    0    0 -0.70520397879E+01 -0.31608281034E+01 -0.13188344013E+02  0.15285761913E+02  0.00000000000E+00 0. -1.
</event>
<event>
 7    1  0.2714068E-010  0.4778728E+02  0.7816164E-02  0.1312668E+00
        -11   -1    0    0    0    0  0.00000000000E+00  0.00000000000E+00  0.45593999997E+02  0.45594000000E+02  0.51100000000E-03 0.  1.
         11   -1    0    0    0    0 -0.00000000000E+00 -0.00000000000E+00 -0.45593999997E+02  0.45594000000E+02  0.51100000000E-03 0. -1.
    9900012    2    1    2    0    0  0.29648769474E+02  0.28084185059E+02 -0.14691899424E+02  0.47787275462E+02  0.20000020140E+02 0.  0.
        -12    1    1    2    0    0 -0.29648769474E+02 -0.28084185059E+02  0.14691899424E+02  0.43400724538E+02  0.00000000000E+00 0.  1.
         11    1    3    3    0    0  0.53732559176E+01  0.83492052573E+01 -0.75811084947E+01  0.12492170102E+02  0.51100000000E-03 0. -1.
        -11    1    3    3    0    0  0.22798883173E+02  0.11825742589E+02 -0.19954846332E+01  0.25760807846E+02  0.51100000000E-03 0.  1.
        -12    1    3    3    0    0  0.14766303842E+01  0.79092372126E+01 -0.51153062964E+01  0.95342975138E+01  0.00000000000E+00 0.  1.
</event>
<event>
 7    1  0.2714068E-010  0.4778727E+02  0.7816164E-02  0.1312668E+00
        -11   -1    0    0    0    0  0.00000000000E+00  0.00000000000E+00  0.45593999997E+02  0.45594000000E+02  0.51100000000E-03 0.  1.
         11   -1    0    0    0    0 -0.00000000000E+00 -0.00000000000E+00 -0.45593999997E+02  0.45594000000E+02  0.51100000000E-03 0. -1.
    9900012    2    1    2    0    0 -0.29730145024E+02 -0.16440509044E+02  0.27008356107E+02  0.47787272352E+02  0.20000005962E+02 0.  0.
        -12    1    1    2    0    0  0.29730145024E+02  0.16440509044E+02 -0.27008356107E+02  0.43400727648E+02  0.00000000000E+00 0.  1.
         11    1    3    3    0    0 -0.79467961736E+01 -0.55169260315E+01  0.17185973470E+02  0.19721706991E+02  0.51100000000E-03 0. -1.
        -11    1    3    3    0    0 -0.10843978538E+02 -0.81663006806E+00  0.14248137197E+01  0.10967627346E+02  0.51100000000E-03 0.  1.
         12    1    3    3    0    0 -0.10939370312E+02 -0.10106952945E+02  0.83975689172E+01  0.17097938015E+02  0.00000000000E+00 0. -1.
</event>
<event>
 7    1  0.2714068E-010  0.4778727E+02  0.7816164E-02  0.1312668E+00
        -11   -1    0    0    0    0  0.00000000000E+00  0.00000000000E+00  0.45593999997E+02  0.45594000000E+02  0.51100000000E-03 0.  1.
         11   -1    0    0    0    0 -0.00000000000E+00 -0.00000000000E+00 -0.45593999997E+02  0.45594000000E+02  0.51100000000E-03 0. -1.
    9900012    2    1    2    0    0 -0.65074478601E+01 -0.39279838479E+02 -0.17273418589E+02  0.47787267537E+02  0.19999984007E+02 0.  0.
        -12    1    1    2    0    0  0.65074478601E+01  0.39279838479E+02  0.17273418589E+02  0.43400732463E+02  0.00000000000E+00 0.  1.
         11    1    3    3    0    0 -0.66953973089E+01 -0.15419736457E+02 -0.12157657049E+02  0.20746210322E+02  0.51100000000E-03 0. -1.
        -11    1    3    3    0    0 -0.57474962807E+00 -0.34256093490E+01  0.34271221617E+01  0.48795802195E+01  0.51100000000E-03 0.  1.
         12    1    3    3    0    0  0.76269907687E+00 -0.20434492673E+02 -0.85428837013E+01  0.22161476996E+02  0.00000000000E+00 0. -1.
</event>
<event>
 7    1  0.2714068E-010  0.4778727E+02  0.7816164E-02  0.1312668E+00
        -11   -1    0    0    0    0  0.00000000000E+00  0.00000000000E+00  0.45593999997E+02  0.45594000000E+02  0.51100000000E-03 0. -1.
         11   -1    0    0    0    0 -0.00000000000E+00 -0.00000000000E+00 -0.45593999997E+02  0.45594000000E+02  0.51100000000E-03 0.  1.
    9900012    2    1    2    0    0 -0.10313761004E+02 -0.22841748909E+02  0.35433093515E+02  0.47787271028E+02  0.19999999926E+02 0.  0.
        -12    1    1    2    0    0  0.10313761004E+02  0.22841748909E+02 -0.35433093515E+02  0.43400728972E+02  0.00000000000E+00 0.  1.
         11    1    3    3    0    0 -0.11161745024E+02 -0.98008111055E+01  0.19053460807E+02  0.24159362974E+02  0.51100000000E-03 0. -1.
        -11    1    3    3    0    0  0.37938437211E+01 -0.36815261187E+00  0.22753172124E+01  0.44391277526E+01  0.51100000000E-03 0.  1.
         12    1    3    3    0    0 -0.29458597012E+01 -0.12672785191E+02  0.14104315495E+02  0.19188780302E+02  0.00000000000E+00 0. -1.
</event>
<event>
 7    1  0.2714068E-010  0.4778727E+02  0.7816164E-02  0.1312668E+00
        -11   -1    0    0    0    0  0.00000000000E+00  0.00000000000E+00  0.45593999997E+02  0.45594000000E+02  0.51100000000E-03 0.  1.
         11   -1    0    0    0    0 -0.00000000000E+00 -0.00000000000E+00 -0.45593999997E+02  0.45594000000E+02  0.51100000000E-03 0. -1.
    9900012    2    1    2    0    0  0.40829117281E+02  0.14713046829E+02 -0.36420092952E+00  0.47787271812E+02  0.20000003501E+02 0.  0.
        -12    1    1    2    0    0 -0.40829117281E+02 -0.14713046829E+02  0.36420092952E+00  0.43400728188E+02  0.00000000000E+00 0.  1.
         11    1    3    3    0    0  0.22827057447E+02  0.42539628078E+01 -0.29409830068E+00  0.23221913042E+02  0.51100000000E-03 0. -1.
        -11    1    3    3    0    0  0.43475896720E+01  0.91282208243E+01  0.29204543591E+01  0.10524020396E+02  0.51100000000E-03 0.  1.
        -12    1    3    3    0    0  0.13654470162E+02  0.13308631971E+01 -0.29905569880E+01  0.14041338374E+02  0.00000000000E+00 0.  1.
</event>
<event>
 7    1  0.2714068E-010  0.4778727E+02  0.7816164E-02  0.1312668E+00
        -11   -1    0    0    0    0  0.00000000000E+00  0.00000000000E+00  0.45593999997E+02  0.45594000000E+02  0.51100000000E-03 0.  1.
         11   -1    0    0    0    0 -0.00000000000E+00 -0.00000000000E+00 -0.45593999997E+02  0.45594000000E+02  0.51100000000E-03 0. -1.
    9900012    2    1    2    0    0 -0.22072497553E+02  0.37363389595E+02  0.63661563547E+00  0.47787270631E+02  0.19999998116E+02 0.  0.
        -12    1    1    2    0    0  0.22072497553E+02 -0.37363389595E+02 -0.63661563547E+00  0.43400729369E+02  0.00000000000E+00 0.  1.
         11    1    3    3    0    0 -0.21044281695E+02  0.30488888451E+02  0.74689551299E+01  0.37791790140E+02  0.51100000000E-03 0. -1.
        -11    1    3    3    0    0 -0.14839502961E+01  0.36783516295E+01 -0.45810603070E+01  0.60595786148E+01  0.51100000000E-03 0.  1.
         12    1    3    3    0    0  0.45573443761E+00  0.31961495148E+01 -0.22512791874E+01  0.39359018761E+01  0.00000000000E+00 0. -1.
</event>
<event>
 7    1  0.2714068E-010  0.4778726E+02  0.7816164E-02  0.1312668E+00
        -11   -1    0    0    0    0  0.00000000000E+00  0.00000000000E+00  0.45593999997E+02  0.45594000000E+02  0.51100000000E-03 0. -1.
         11   -1    0    0    0    0 -0.00000000000E+00 -0.00000000000E+00 -0.45593999997E+02  0.45594000000E+02  0.51100000000E-03 0.  1.
    9900012    2    1    2    0    0  0.43101345995E+02  0.32522705734E+01  0.39142045389E+01  0.47787259366E+02  0.19999946751E+02 0.  0.
        -12    1    1    2    0    0 -0.43101345995E+02 -0.32522705734E+01 -0.39142045389E+01  0.43400740634E+02  0.00000000000E+00 0.  1.
         11    1    3    3    0    0  0.57864129189E+01 -0.84558112748E+00  0.29453397326E+01  0.65477177942E+01  0.51100000000E-03 0. -1.
        -11    1    3    3    0    0  0.33891252957E+01  0.18986792426E+01  0.57176188686E+01  0.69124756003E+01  0.51100000000E-03 0.  1.
        -12    1    3    3    0    0  0.33925807780E+02  0.21991724582E+01 -0.47487540623E+01  0.34327065971E+02  0.00000000000E+00 0.  1.
</event>
<event>
 7    1  0.2714068E-010  0.4778727E+02  0.7816164E-02  0.1312668E+00
        -11   -1    0    0    0    0  0.00000000000E+00  0.00000000000E+00  0.45593999997E+02  0.45594000000E+02  0.51100000000E-03 0. -1.
         11   -1    0    0    0    0 -0.00000000000E+00 -0.00000000000E+00 -0.45593999997E+02  0.45594000000E+02  0.51100000000E-03 0.  1.
    9900012    2    1    2    0    0  0.25456630788E+02 -0.28114701612E+02  0.21098499204E+02  0.47787272282E+02  0.20000005640E+02 0.  0.
        -12    1    1    2    0    0 -0.25456630788E+02  0.28114701612E+02 -0.21098499204E+02  0.43400727718E+02  0.00000000000E+00 0.  1.
         11    1    3    3    0    0  0.16841431244E+02 -0.23253514762E+02  0.13562732996E+02  0.31753857745E+02  0.51100000000E-03 0. -1.
        -11    1    3    3    0    0 -0.11918712388E+01  0.18447760382E+01  0.18051524438E+01  0.28429441232E+01  0.51100000000E-03 0.  1.
        -12    1    3    3    0    0  0.98070707827E+01 -0.67059628883E+01  0.57306137646E+01  0.13190470413E+02  0.00000000000E+00 0.  1.
</event>
<event>
 7    1  0.2714068E-010  0.4778726E+02  0.7816164E-02  0.1312668E+00
        -11   -1    0    0    0    0  0.00000000000E+00  0.00000000000E+00  0.45593999997E+02  0.45594000000E+02  0.51100000000E-03 0.  1.
         11   -1    0    0    0    0 -0.00000000000E+00 -0.00000000000E+00 -0.45593999997E+02  0.45594000000E+02  0.51100000000E-03 0. -1.
    9900012    2    1    2    0    0  0.14473751625E+02  0.31274660562E+02 -0.26382379611E+02  0.47787264599E+02  0.19999970615E+02 0.  0.
        -12    1    1    2    0    0 -0.14473751625E+02 -0.31274660562E+02  0.26382379611E+02  0.43400735401E+02  0.00000000000E+00 0.  1.
         11    1    3    3    0    0 -0.39988235652E+01  0.29721754151E+01 -0.26275489329E+01  0.56327995046E+01  0.51100000000E-03 0. -1.
        -11    1    3    3    0    0  0.10301575548E+02  0.10606522118E+02 -0.13983912559E+02  0.20351181315E+02  0.51100000000E-03 0.  1.
         12    1    3    3    0    0  0.81709996421E+01  0.17695963029E+02 -0.97709181191E+01  0.21803283780E+02  0.00000000000E+00 0. -1.
</event>
<event>
 7    1  0.2714068E-010  0.4778727E+02  0.7816164E-02  0.1312668E+00
        -11   -1    0    0    0    0  0.00000000000E+00  0.00000000000E+00  0.45593999997E+02  0.45594000000E+02  0.51100000000E-03 0.  1.
         11   -1    0    0    0    0 -0.00000000000E+00 -0.00000000000E+00 -0.45593999997E+02  0.45594000000E+02  0.51100000000E-03 0. -1.
    9900012    2    1    2    0    0  0.42417972606E+02  0.75503073049E+01 -0.52279854319E+01  0.47787269913E+02  0.19999994842E+02 0.  0.
        -12    1    1    2    0    0 -0.42417972606E+02 -0.75503073049E+01  0.52279854319E+01  0.43400730087E+02  0.00000000000E+00 0.  1.
         11    1    3    3    0    0  0.18837234103E+02 -0.10938378624E+01 -0.10621400440E+02  0.21652990960E+02  0.51100000000E-03 0. -1.
        -11    1    3    3    0    0  0.92000659460E+01  0.56666550889E+01  0.12626992392E+01  0.10878722486E+02  0.51100000000E-03 0.  1.
         12    1    3    3    0    0  0.14380672557E+02  0.29774900784E+01  0.41307157689E+01  0.15255556467E+02  0.00000000000E+00 0. -1.
</event>
<event>
 7    1  0.2714068E-010  0.4778727E+02  0.7816164E-02  0.1312668E+00
        -11   -1    0    0    0    0  0.00000000000E+00  0.00000000000E+00  0.45593999997E+02  0.45594000000E+02  0.51100000000E-03 0. -1.
         11   -1    0    0    0    0 -0.00000000000E+00 -0.00000000000E+00 -0.45593999997E+02  0.45594000000E+02  0.51100000000E-03 0.  1.
    9900012    2    1    2    0    0  0.32062441884E+02  0.29174315311E+02  0.21171475260E+01  0.47787272275E+02  0.20000005610E+02 0.  0.
        -12    1    1    2    0    0 -0.32062441884E+02 -0.29174315311E+02 -0.21171475260E+01  0.43400727725E+02  0.00000000000E+00 0.  1.
         11    1    3    3    0    0  0.18683769567E+02  0.26749115709E+02  0.21568681873E+01  0.32699396280E+02  0.51100000000E-03 0. -1.
        -11    1    3    3    0    0  0.27302713906E+01 -0.18850793635E+01 -0.12304752456E+01  0.35386403695E+01  0.51100000000E-03 0.  1.
         12    1    3    3    0    0  0.10648400927E+02  0.43102789655E+01  0.11907545844E+01  0.11549235625E+02  0.00000000000E+00 0. -1.
</event>
<event>
 7    1  0.2714068E-010  0.4778726E+02  0.7816164E-02  0.1312668E+00
        -11   -1    0    0    0    0  0.00000000000E+00  0.00000000000E+00  0.45593999997E+02  0.45594000000E+02  0.51100000000E-03 0.  1.
         11   -1    0    0    0    0 -0.00000000000E+00 -0.00000000000E+00 -0.45593999997E+02  0.45594000000E+02  0.51100000000E-03 0. -1.
    9900012    2    1    2    0    0 -0.16625525211E+02 -0.25968446213E+02  0.30542686529E+02  0.47787262821E+02  0.19999962508E+02 0.  0.
        -12    1    1    2    0    0  0.16625525211E+02  0.25968446213E+02 -0.30542686529E+02  0.43400737179E+02  0.00000000000E+00 0.  1.
         11    1    3    3    0    0  0.21852176498E+01  0.82030174373E+00 -0.70629056383E+00  0.24386303019E+01  0.51100000000E-03 0. -1.
        -11    1    3    3    0    0 -0.11054033436E+02 -0.17450162426E+02  0.21061090222E+02  0.29500327888E+02  0.51100000000E-03 0.  1.
        -12    1    3    3    0    0 -0.77567094244E+01 -0.93385855301E+01  0.10187886871E+02  0.15848304631E+02  0.00000000000E+00 0.  1.
</event>
<event>
 7    1  0.2714068E-010  0.4778727E+02  0.7816164E-02  0.1312668E+00
        -11   -1    0    0    0    0  0.00000000000E+00  0.00000000000E+00  0.45593999997E+02  0.45594000000E+02  0.51100000000E-03 0. -1.
         11   -1    0    0    0    0 -0.00000000000E+00 -0.00000000000E+00 -0.45593999997E+02  0.45594000000E+02  0.51100000000E-03 0.  1.
    9900012    2    1    2    0    0  0.12069635620E+02 -0.38862799138E+02  0.15087418463E+02  0.47787268938E+02  0.19999990397E+02 0.  0.
        -12    1    1    2    0    0 -0.12069635620E+02  0.38862799138E+02 -0.15087418463E+02  0.43400731062E+02  0.00000000000E+00 0.  1.
         11    1    3    3    0    0  0.13748018802E+02 -0.35753921160E+02  0.12587993513E+02  0.40321315458E+02  0.51100000000E-03 0. -1.
        -11    1    3    3    0    0 -0.62691598105E-01 -0.16066545602E+01  0.43175082547E+01  0.46071842705E+01  0.51100000000E-03 0.  1.
         12    1    3    3    0    0 -0.16156915839E+01 -0.15022234176E+01 -0.18180833052E+01  0.28587692098E+01  0.00000000000E+00 0. -1.
</event>
<event>
 7    1  0.2714068E-010  0.4778727E+02  0.7816164E-02  0.1312668E+00
        -11   -1    0    0    0    0  0.00000000000E+00  0.00000000000E+00  0.45593999997E+02  0.45594000000E+02  0.51100000000E-03 0. -1.
         11   -1    0    0    0    0 -0.00000000000E+00 -0.00000000000E+00 -0.45593999997E+02  0.45594000000E+02  0.51100000000E-03 0.  1.
    9900012    2    1    2    0    0 -0.13282531876E+02  0.40800120378E+02 -0.65228868211E+01  0.47787268112E+02  0.19999986631E+02 0.  0.
        -12    1    1    2    0    0  0.13282531876E+02 -0.40800120378E+02  0.65228868211E+01  0.43400731888E+02  0.00000000000E+00 0.  1.
         11    1    3    3    0    0 -0.26263777097E+01  0.17863698517E+02 -0.10910055757E+02  0.21095945143E+02  0.51100000000E-03 0.  1.
        -11    1    3    3    0    0 -0.19005225004E+01  0.71090103223E+01  0.44574061175E+01  0.86033995080E+01  0.51100000000E-03 0. -1.
         12    1    3    3    0    0 -0.87556316657E+01  0.15827411539E+02 -0.70237181422E-01  0.18087923462E+02  0.00000000000E+00 0. -1.
</event>
<event>
 7    1  0.2714068E-010  0.4778727E+02  0.7816164E-02  0.1312668E+00
        -11   -1    0    0    0    0  0.00000000000E+00  0.00000000000E+00  0.45593999997E+02  0.45594000000E+02  0.51100000000E-03 0. -1.
         11   -1    0    0    0    0 -0.00000000000E+00 -0.00000000000E+00 -0.45593999997E+02  0.45594000000E+02  0.51100000000E-03 0.  1.
    9900012    2    1    2    0    0  0.36520919236E+02 -0.30605963802E+01  0.23248193160E+02  0.47787271005E+02  0.19999999820E+02 0.  0.
        -12    1    1    2    0    0 -0.36520919236E+02  0.30605963802E+01 -0.23248193160E+02  0.43400728995E+02  0.00000000000E+00 0.  1.
         11    1    3    3    0    0  0.29299266200E+02 -0.77330433107E+01  0.12206277938E+02  0.32668642152E+02  0.51100000000E-03 0. -1.
        -11    1    3    3    0    0  0.57304576586E+00  0.33160189277E+01  0.24110313733E+01  0.41397385815E+01  0.51100000000E-03 0.  1.
         12    1    3    3    0    0  0.66486072702E+01  0.13564280028E+01  0.86308838496E+01  0.10978890271E+02  0.00000000000E+00 0. -1.
</event>
<event>
 7    1  0.2714068E-010  0.4778727E+02  0.7816164E-02  0.1312668E+00
        -11   -1    0    0    0    0  0.00000000000E+00  0.00000000000E+00  0.45593999997E+02  0.45594000000E+02  0.51100000000E-03 0.  1.
         11   -1    0    0    0    0 -0.00000000000E+00 -0.00000000000E+00 -0.45593999997E+02  0.45594000000E+02  0.51100000000E-03 0. -1.
    9900012    2    1    2    0    0  0.43272534972E+02 -0.33332785912E+01 -0.27429258199E-01  0.47787265197E+02  0.19999973339E+02 0.  0.
        -12    1    1    2    0    0 -0.43272534972E+02  0.33332785912E+01  0.27429258199E-01  0.43400734803E+02  0.00000000000E+00 0.  1.
         11    1    3    3    0    0  0.10967762815E+02 -0.76504144639E+00  0.10435639944E+01  0.11043827944E+02  0.51100000000E-03 0. -1.
        -11    1    3    3    0    0  0.14243825808E+02  0.29979054751E+01  0.70499757569E+01  0.16173316584E+02  0.51100000000E-03 0.  1.
        -12    1    3    3    0    0  0.18060946349E+02 -0.55661426199E+01 -0.81209690095E+01  0.20570120669E+02  0.00000000000E+00 0.  1.
</event>
<event>
 7    1  0.2714068E-010  0.4778727E+02  0.7816164E-02  0.1312668E+00
        -11   -1    0    0    0    0  0.00000000000E+00  0.00000000000E+00  0.45593999997E+02  0.45594000000E+02  0.51100000000E-03 0. -1.
         11   -1    0    0    0    0 -0.00000000000E+00 -0.00000000000E+00 -0.45593999997E+02  0.45594000000E+02  0.51100000000E-03 0.  1.
    9900012    2    1    2    0    0 -0.40348147512E+02  0.96849784434E+01  0.12722085015E+02  0.47787271178E+02  0.20000000611E+02 0.  0.
        -12    1    1    2    0    0  0.40348147512E+02 -0.96849784434E+01 -0.12722085015E+02  0.43400728822E+02  0.00000000000E+00 0.  1.
         11    1    3    3    0    0 -0.16328855799E+02  0.45997261052E+01  0.60028853575E+01  0.17995100579E+02  0.51100000000E-03 0. -1.
        -11    1    3    3    0    0 -0.35179175740E+01 -0.31549250153E+01 -0.30597394758E+01  0.56295028049E+01  0.51100000000E-03 0.  1.
        -12    1    3    3    0    0 -0.20501374139E+02  0.82401773536E+01  0.97789391332E+01  0.24162667795E+02  0.00000000000E+00 0.  1.
</event>
<event>
 7    1  0.2714068E-010  0.4778730E+02  0.7816164E-02  0.1312668E+00
        -11   -1    0    0    0    0  0.00000000000E+00  0.00000000000E+00  0.45593999997E+02  0.45594000000E+02  0.51100000000E-03 0.  1.
         11   -1    0    0    0    0 -0.00000000000E+00 -0.00000000000E+00 -0.45593999997E+02  0.45594000000E+02  0.51100000000E-03 0. -1.
    9900012    2    1    2    0    0  0.17627363044E+01 -0.34158848519E+02 -0.26714921334E+02  0.47787295014E+02  0.20000109285E+02 0.  0.
        -12    1    1    2    0    0 -0.17627363044E+01  0.34158848519E+02  0.26714921334E+02  0.43400704986E+02  0.00000000000E+00 0.  1.
         11    1    3    3    0    0 -0.53418635459E+01 -0.26727281739E+01 -0.19584119147E+01  0.62860448235E+01  0.51100000000E-03 0.  1.
        -11    1    3    3    0    0  0.62137761047E+01 -0.10787258459E+02 -0.11170742018E+02  0.16726070550E+02  0.51100000000E-03 0. -1.
         12    1    3    3    0    0  0.89082374549E+00 -0.20698861886E+02 -0.13585767401E+02  0.24775179640E+02  0.00000000000E+00 0. -1.
</event>
<event>
 7    1  0.2714068E-010  0.4778727E+02  0.7816164E-02  0.1312668E+00
        -11   -1    0    0    0    0  0.00000000000E+00  0.00000000000E+00  0.45593999997E+02  0.45594000000E+02  0.51100000000E-03 0.  1.
         11   -1    0    0    0    0 -0.00000000000E+00 -0.00000000000E+00 -0.45593999997E+02  0.45594000000E+02  0.51100000000E-03 0. -1.
    9900012    2    1    2    0    0 -0.21089678087E+02 -0.13352310513E+02 -0.35504429220E+02  0.47787271756E+02  0.20000003245E+02 0.  0.
        -12    1    1    2    0    0  0.21089678087E+02  0.13352310513E+02  0.35504429220E+02  0.43400728244E+02  0.00000000000E+00 0.  1.
         11    1    3    3    0    0 -0.39830698919E+01 -0.87519686752E+01 -0.10027896221E+02  0.13893181937E+02  0.51100000000E-03 0. -1.
        -11    1    3    3    0    0 -0.17946656197E+02 -0.44516635236E+01 -0.16214588259E+02  0.24592939016E+02  0.51100000000E-03 0.  1.
        -12    1    3    3    0    0  0.84004800196E+00 -0.14867831418E+00 -0.92619447402E+01  0.93011508028E+01  0.00000000000E+00 0.  1.
</event>
<event>
 7    1  0.2714068E-010  0.4778727E+02  0.7816164E-02  0.1312668E+00
        -11   -1    0    0    0    0  0.00000000000E+00  0.00000000000E+00  0.45593999997E+02  0.45594000000E+02  0.51100000000E-03 0.  1.
         11   -1    0    0    0    0 -0.00000000000E+00 -0.00000000000E+00 -0.45593999997E+02  0.45594000000E+02  0.51100000000E-03 0. -1.
    9900012    2    1    2    0    0  0.27304635239E+02  0.65711340427E+01 -0.33089275997E+02  0.47787273115E+02  0.20000009440E+02 0.  0.
        -12    1    1    2    0    0 -0.27304635239E+02 -0.65711340427E+01  0.33089275997E+02  0.43400726885E+02  0.00000000000E+00 0.  1.
         11    1    3    3    0    0  0.60890562399E+00  0.21860921334E+01 -0.99623405867E+00  0.24783557927E+01  0.51100000000E-03 0. -1.
        -11    1    3    3    0    0  0.14286559613E+02  0.79923257881E+01 -0.26672112078E+02  0.31295121345E+02  0.51100000000E-03 0.  1.
        -12    1    3    3    0    0  0.12409170002E+02 -0.36072838788E+01 -0.54209298606E+01  0.14013795977E+02  0.00000000000E+00 0.  1.
</event>
<event>
 7    1  0.2714068E-010  0.4778728E+02  0.7816164E-02  0.1312668E+00
        -11   -1    0    0    0    0  0.00000000000E+00  0.00000000000E+00  0.45593999997E+02  0.45594000000E+02  0.51100000000E-03 0.  1.
         11   -1    0    0    0    0 -0.00000000000E+00 -0.00000000000E+00 -0.45593999997E+02  0.45594000000E+02  0.51100000000E-03 0. -1.
    9900012    2    1    2    0    0  0.15154649052E+02 -0.26319600593E+02 -0.31003839942E+02  0.47787275877E+02  0.20000022033E+02 0.  0.
        -12    1    1    2    0    0 -0.15154649052E+02  0.26319600593E+02  0.31003839942E+02  0.43400724123E+02  0.00000000000E+00 0.  1.
         11    1    3    3    0    0  0.10784182919E+02 -0.86710372493E+01 -0.13297465467E+02  0.19191354207E+02  0.51100000000E-03 0. -1.
        -11    1    3    3    0    0 -0.84486907936E+00 -0.75051383106E+01 -0.15119054465E+02  0.16900494460E+02  0.51100000000E-03 0.  1.
        -12    1    3    3    0    0  0.52153352126E+01 -0.10143425033E+02 -0.25873200108E+01  0.11695427210E+02  0.00000000000E+00 0.  1.
</event>
<event>
 7    1  0.2714068E-010  0.4778728E+02  0.7816164E-02  0.1312668E+00
        -11   -1    0    0    0    0  0.00000000000E+00  0.00000000000E+00  0.45593999997E+02  0.45594000000E+02  0.51100000000E-03 0. -1.
         11   -1    0    0    0    0 -0.00000000000E+00 -0.00000000000E+00 -0.45593999997E+02  0.45594000000E+02  0.51100000000E-03 0.  1.
    9900012    2    1    2    0    0 -0.20662693174E+02  0.38107289216E+02  0.21237813340E+01  0.47787276185E+02  0.20000023436E+02 0.  0.
        -12    1    1    2    0    0  0.20662693174E+02 -0.38107289216E+02 -0.21237813340E+01  0.43400723815E+02  0.00000000000E+00 0.  1.
         11    1    3    3    0    0 -0.19106483019E+02  0.17992724454E+02 -0.10956997859E+01  0.26267782261E+02  0.51100000000E-03 0. -1.
        -11    1    3    3    0    0  0.21009671708E+01  0.24342204410E+01  0.68759421645E+00  0.32882028946E+01  0.51100000000E-03 0.  1.
         12    1    3    3    0    0 -0.36571773256E+01  0.17680344321E+02  0.25318869034E+01  0.18231291029E+02  0.00000000000E+00 0. -1.
</event>
<event>
 7    1  0.2714068E-010  0.4778727E+02  0.7816164E-02  0.1312668E+00
        -11   -1    0    0    0    0  0.00000000000E+00  0.00000000000E+00  0.45593999997E+02  0.45594000000E+02  0.51100000000E-03 0. -1.
         11   -1    0    0    0    0 -0.00000000000E+00 -0.00000000000E+00 -0.45593999997E+02  0.45594000000E+02  0.51100000000E-03 0.  1.
    9900012    2    1    2    0    0 -0.17251791471E+02 -0.70143729440E+00  0.39818422601E+02  0.47787273028E+02  0.20000009046E+02 0.  0.
        -12    1    1    2    0    0  0.17251791471E+02  0.70143729440E+00 -0.39818422601E+02  0.43400726972E+02  0.00000000000E+00 0.  1.
         11    1    3    3    0    0 -0.57971687418E+01 -0.67352526158E+01  0.26650216156E+02  0.28092789371E+02  0.51100000000E-03 0. -1.
        -11    1    3    3    0    0 -0.42208237833E+01  0.31257462084E+01  0.11623708735E+01  0.53792889007E+01  0.51100000000E-03 0.  1.
        -12    1    3    3    0    0 -0.72337989460E+01  0.29080691130E+01  0.12005835572E+02  0.14315194757E+02  0.00000000000E+00 0.  1.
</event>
<event>
 7    1  0.2714068E-010  0.4778727E+02  0.7816164E-02  0.1312668E+00
        -11   -1    0    0    0    0  0.00000000000E+00  0.00000000000E+00  0.45593999997E+02  0.45594000000E+02  0.51100000000E-03 0. -1.
         11   -1    0    0    0    0 -0.00000000000E+00 -0.00000000000E+00 -0.45593999997E+02  0.45594000000E+02  0.51100000000E-03 0.  1.
    9900012    2    1    2    0    0  0.17699304088E+02 -0.32880065037E+02  0.22119210595E+02  0.47787268216E+02  0.19999987106E+02 0.  0.
        -12    1    1    2    0    0 -0.17699304088E+02  0.32880065037E+02 -0.22119210595E+02  0.43400731784E+02  0.00000000000E+00 0.  1.
         11    1    3    3    0    0 -0.13621903373E+01 -0.30244914202E+00 -0.18540588840E+01  0.23204681866E+01  0.51100000000E-03 0. -1.
        -11    1    3    3    0    0  0.21596321464E+00 -0.16518601095E+01  0.34725229603E+01  0.38514539985E+01  0.51100000000E-03 0.  1.
         12    1    3    3    0    0  0.18845531211E+02 -0.30925755785E+02  0.20500746519E+02  0.41615346031E+02  0.00000000000E+00 0. -1.
</event>
<event>
 7    1  0.2714068E-010  0.4778727E+02  0.7816164E-02  0.1312668E+00
        -11   -1    0    0    0    0  0.00000000000E+00  0.00000000000E+00  0.45593999997E+02  0.45594000000E+02  0.51100000000E-03 0.  1.
         11   -1    0    0    0    0 -0.00000000000E+00 -0.00000000000E+00 -0.45593999997E+02  0.45594000000E+02  0.51100000000E-03 0. -1.
    9900012    2    1    2    0    0 -0.25459730647E+02 -0.34761067434E+02 -0.52051984980E+01  0.47787265154E+02  0.19999973144E+02 0.  0.
        -12    1    1    2    0    0  0.25459730647E+02  0.34761067434E+02  0.52051984980E+01  0.43400734846E+02  0.00000000000E+00 0.  1.
         11    1    3    3    0    0 -0.15633313215E+02 -0.31931204824E+02  0.61995193043E+00  0.35558215145E+02  0.51100000000E-03 0. -1.
        -11    1    3    3    0    0 -0.65658384858E+01 -0.10612177843E+01 -0.21065519718E+01  0.69766739696E+01  0.51100000000E-03 0.  1.
         12    1    3    3    0    0 -0.32605789465E+01 -0.17686448250E+01 -0.37185984566E+01  0.52523760399E+01  0.00000000000E+00 0. -1.
</event>
<event>
 7    1  0.2714068E-010  0.4778727E+02  0.7816164E-02  0.1312668E+00
        -11   -1    0    0    0    0  0.00000000000E+00  0.00000000000E+00  0.45593999997E+02  0.45594000000E+02  0.51100000000E-03 0.  1.
         11   -1    0    0    0    0 -0.00000000000E+00 -0.00000000000E+00 -0.45593999997E+02  0.45594000000E+02  0.51100000000E-03 0. -1.
    9900012    2    1    2    0    0  0.14729436524E+02  0.21826561336E+02 -0.34500265400E+02  0.47787269675E+02  0.19999993758E+02 0.  0.
        -12    1    1    2    0    0 -0.14729436524E+02 -0.21826561336E+02  0.34500265400E+02  0.43400730325E+02  0.00000000000E+00 0.  1.
         11    1    3    3    0    0  0.95447506698E+01  0.97804797640E+01 -0.22839962525E+02  0.26616234485E+02  0.51100000000E-03 0. -1.
        -11    1    3    3    0    0 -0.25036193130E+01  0.53888606876E+01 -0.33769280502E+00  0.59516355623E+01  0.51100000000E-03 0.  1.
        -12    1    3    3    0    0  0.76883051670E+01  0.66572208842E+01 -0.11322610070E+02  0.15219399628E+02  0.00000000000E+00 0.  1.
</event>
<event>
 7    1  0.2714068E-010  0.4778728E+02  0.7816164E-02  0.1312668E+00
        -11   -1    0    0    0    0  0.00000000000E+00  0.00000000000E+00  0.45593999997E+02  0.45594000000E+02  0.51100000000E-03 0.  1.
         11   -1    0    0    0    0 -0.00000000000E+00 -0.00000000000E+00 -0.45593999997E+02  0.45594000000E+02  0.51100000000E-03 0. -1.
    9900012    2    1    2    0    0 -0.37898226746E+02 -0.20639816959E+02  0.46200702107E+01  0.47787277848E+02  0.20000031019E+02 0.  0.
        -12    1    1    2    0    0  0.37898226746E+02  0.20639816959E+02 -0.46200702107E+01  0.43400722152E+02  0.00000000000E+00 0.  1.
         11    1    3    3    0    0 -0.37734156916E+02 -0.20460194781E+02  0.28106082160E+01  0.43016109627E+02  0.51100000000E-03 0. -1.
        -11    1    3    3    0    0 -0.22597787143E+00  0.12352450971E+01  0.27826025886E+01  0.30528304695E+01  0.51100000000E-03 0.  1.
         12    1    3    3    0    0  0.61908041548E-01 -0.14148672752E+01 -0.97314059391E+00  0.17183377513E+01  0.00000000000E+00 0. -1.
</event>
<event>
 7    1  0.2714068E-010  0.4778727E+02  0.7816164E-02  0.1312668E+00
        -11   -1    0    0    0    0  0.00000000000E+00  0.00000000000E+00  0.45593999997E+02  0.45594000000E+02  0.51100000000E-03 0.  1.
         11   -1    0    0    0    0 -0.00000000000E+00 -0.00000000000E+00 -0.45593999997E+02  0.45594000000E+02  0.51100000000E-03 0. -1.
    9900012    2    1    2    0    0  0.74433581323E+01 -0.42266800774E+01 -0.42548264390E+02  0.47787271811E+02  0.20000003494E+02 0.  0.
        -12    1    1    2    0    0 -0.74433581323E+01  0.42266800774E+01  0.42548264390E+02  0.43400728189E+02  0.00000000000E+00 0.  1.
         11    1    3    3    0    0  0.72079736183E+01  0.61226032489E+00 -0.23802761559E+02  0.24877725067E+02  0.51100000000E-03 0. -1.
        -11    1    3    3    0    0 -0.16898270672E+01 -0.79729968149E+01 -0.16969227062E+02  0.18824953149E+02  0.51100000000E-03 0.  1.
        -12    1    3    3    0    0  0.19252115812E+01  0.31340564126E+01 -0.17762757689E+01  0.40845935951E+01  0.00000000000E+00 0.  1.
</event>
<event>
 7    1  0.2714068E-010  0.4778728E+02  0.7816164E-02  0.1312668E+00
        -11   -1    0    0    0    0  0.00000000000E+00  0.00000000000E+00  0.45593999997E+02  0.45594000000E+02  0.51100000000E-03 0.  1.
         11   -1    0    0    0    0 -0.00000000000E+00 -0.00000000000E+00 -0.45593999997E+02  0.45594000000E+02  0.51100000000E-03 0. -1.
    9900012    2    1    2    0    0 -0.80649626445E+01 -0.14201932978E+02 -0.40210492627E+02  0.47787282955E+02  0.20000054303E+02 0.  0.
        -12    1    1    2    0    0  0.80649626445E+01  0.14201932978E+02  0.40210492627E+02  0.43400717045E+02  0.00000000000E+00 0.  1.
         11    1    3    3    0    0  0.36010484094E+01 -0.92867154981E+01 -0.15225098305E+02  0.18193797104E+02  0.51100000000E-03 0. -1.
        -11    1    3    3    0    0 -0.94290757853E+01 -0.58721004074E+01 -0.11880055494E+02  0.16264216924E+02  0.51100000000E-03 0.  1.
         12    1    3    3    0    0 -0.22369352686E+01  0.95688292755E+00 -0.13105338828E+02  0.13329268927E+02  0.00000000000E+00 0. -1.
</event>
<event>
 7    1  0.2714068E-010  0.4778727E+02  0.7816164E-02  0.1312668E+00
        -11   -1    0    0    0    0  0.00000000000E+00  0.00000000000E+00  0.45593999997E+02  0.45594000000E+02  0.51100000000E-03 0.  1.
         11   -1    0    0    0    0 -0.00000000000E+00 -0.00000000000E+00 -0.45593999997E+02  0.45594000000E+02  0.51100000000E-03 0. -1.
    9900012    2    1    2    0    0 -0.23618200898E+02 -0.35440229496E+02 -0.83542806267E+01  0.47787270914E+02  0.19999999405E+02 0.  0.
        -12    1    1    2    0    0  0.23618200898E+02  0.35440229496E+02  0.83542806267E+01  0.43400729086E+02  0.00000000000E+00 0.  1.
         11    1    3    3    0    0 -0.13193615100E+02 -0.13706206911E+02 -0.12013573237E+00  0.19024878978E+02  0.51100000000E-03 0. -1.
        -11    1    3    3    0    0 -0.51796729751E+01 -0.12137254802E+02 -0.11333586335E+02  0.17395175933E+02  0.51100000000E-03 0.  1.
        -12    1    3    3    0    0 -0.52449128231E+01 -0.95967677839E+01  0.30994414408E+01  0.11367216003E+02  0.00000000000E+00 0.  1.
</event>
<event>
 7    1  0.2714068E-010  0.4778727E+02  0.7816164E-02  0.1312668E+00
        -11   -1    0    0    0    0  0.00000000000E+00  0.00000000000E+00  0.45593999997E+02  0.45594000000E+02  0.51100000000E-03 0. -1.
         11   -1    0    0    0    0 -0.00000000000E+00 -0.00000000000E+00 -0.45593999997E+02  0.45594000000E+02  0.51100000000E-03 0.  1.
    9900012    2    1    2    0    0  0.19193294414E+02  0.12703472674E+02  0.36794875057E+02  0.47787267300E+02  0.19999982926E+02 0.  0.
        -12    1    1    2    0    0 -0.19193294414E+02 -0.12703472674E+02 -0.36794875057E+02  0.43400732700E+02  0.00000000000E+00 0.  1.
         11    1    3    3    0    0 -0.42594323810E+00  0.37643454399E+01  0.15045211030E+01  0.40761879549E+01  0.51100000000E-03 0. -1.
        -11    1    3    3    0    0  0.14983243344E+02  0.24581284476E+01  0.12827485339E+02  0.19876729030E+02  0.51100000000E-03 0.  1.
        -12    1    3    3    0    0  0.46359943088E+01  0.64809987869E+01  0.22462868615E+02  0.23834350315E+02  0.00000000000E+00 0.  1.
</event>
<event>
 7    1  0.2714068E-010  0.4778727E+02  0.7816164E-02  0.1312668E+00
        -11   -1    0    0    0    0  0.00000000000E+00  0.00000000000E+00  0.45593999997E+02  0.45594000000E+02  0.51100000000E-03 0. -1.
         11   -1    0    0    0    0 -0.00000000000E+00 -0.00000000000E+00 -0.45593999997E+02  0.45594000000E+02  0.51100000000E-03 0.  1.
    9900012    2    1    2    0    0  0.36070605334E+02  0.11750688380E+02  0.21082125009E+02  0.47787271418E+02  0.20000001703E+02 0.  0.
        -12    1    1    2    0    0 -0.36070605334E+02 -0.11750688380E+02 -0.21082125009E+02  0.43400728582E+02  0.00000000000E+00 0.  1.
         11    1    3    3    0    0  0.11241474198E+02 -0.34344565201E+00 -0.35683247080E+00  0.11252378715E+02  0.51100000000E-03 0. -1.
        -11    1    3    3    0    0  0.15395854559E+01  0.46622304846E+01  0.53899597448E+01  0.72909795487E+01  0.51100000000E-03 0.  1.
        -12    1    3    3    0    0  0.23289545680E+02  0.74319035475E+01  0.16048997735E+02  0.29243913155E+02  0.00000000000E+00 0.  1.
</event>
<event>
 7    1  0.2714068E-010  0.4778727E+02  0.7816164E-02  0.1312668E+00
        -11   -1    0    0    0    0  0.00000000000E+00  0.00000000000E+00  0.45593999997E+02  0.45594000000E+02  0.51100000000E-03 0. -1.
         11   -1    0    0    0    0 -0.00000000000E+00 -0.00000000000E+00 -0.45593999997E+02  0.45594000000E+02  0.51100000000E-03 0.  1.
    9900012    2    1    2    0    0  0.38655529941E+02 -0.19000428735E+02 -0.53251129879E+01  0.47787272869E+02  0.20000008319E+02 0.  0.
        -12    1    1    2    0    0 -0.38655529941E+02  0.19000428735E+02  0.53251129879E+01  0.43400727131E+02  0.00000000000E+00 0.  1.
         11    1    3    3    0    0  0.20217693938E+02 -0.70398969980E+01  0.26070784176E+00  0.21409887127E+02  0.51100000000E-03 0. -1.
        -11    1    3    3    0    0  0.50596577655E+01 -0.56199656219E+01 -0.84056089794E+01  0.11306565034E+02  0.51100000000E-03 0.  1.
        -12    1    3    3    0    0  0.13378178237E+02 -0.63405661155E+01  0.28197881497E+01  0.15070820708E+02  0.00000000000E+00 0.  1.
</event>
<event>
 7    1  0.2714068E-010  0.4778732E+02  0.7816164E-02  0.1312668E+00
        -11   -1    0    0    0    0  0.00000000000E+00  0.00000000000E+00  0.45593999997E+02  0.45594000000E+02  0.51100000000E-03 0. -1.
         11   -1    0    0    0    0 -0.00000000000E+00 -0.00000000000E+00 -0.45593999997E+02  0.45594000000E+02  0.51100000000E-03 0.  1.
    9900012    2    1    2    0    0 -0.58007587501E+01  0.12619473794E+02  0.41118351065E+02  0.47787323562E+02  0.20000239449E+02 0.  0.
        -12    1    1    2    0    0  0.58007587501E+01 -0.12619473794E+02 -0.41118351065E+02  0.43400676438E+02  0.00000000000E+00 0.  1.
         11    1    3    3    0    0 -0.62095934620E+01  0.15064943891E+02  0.19165223415E+02  0.25155861628E+02  0.51100000000E-03 0. -1.
        -11    1    3    3    0    0  0.66118120820E+00 -0.32823721890E+01  0.21242959309E+02  0.21505219093E+02  0.51100000000E-03 0.  1.
        -12    1    3    3    0    0 -0.25234649634E+00  0.83690209218E+00  0.71016834061E+00  0.11262428415E+01  0.00000000000E+00 0.  1.
</event>
<event>
 7    1  0.2714068E-010  0.4778726E+02  0.7816164E-02  0.1312668E+00
        -11   -1    0    0    0    0  0.00000000000E+00  0.00000000000E+00  0.45593999997E+02  0.45594000000E+02  0.51100000000E-03 0.  1.
         11   -1    0    0    0    0 -0.00000000000E+00 -0.00000000000E+00 -0.45593999997E+02  0.45594000000E+02  0.51100000000E-03 0. -1.
    9900012    2    1    2    0    0  0.39533253792E+02  0.39375399588E+01 -0.17471171053E+02  0.47787260441E+02  0.19999951654E+02 0.  0.
        -12    1    1    2    0    0 -0.39533253792E+02 -0.39375399588E+01  0.17471171053E+02  0.43400739559E+02  0.00000000000E+00 0.  1.
         11    1    3    3    0    0  0.12536421411E+02  0.49844486323E+01  0.29233065862E+01  0.13804068662E+02  0.51100000000E-03 0. -1.
        -11    1    3    3    0    0  0.18725088710E+02  0.16793226529E+00 -0.12747244619E+02  0.22652801020E+02  0.51100000000E-03 0.  1.
         12    1    3    3    0    0  0.82717436712E+01 -0.12148409388E+01 -0.76472330202E+01  0.11330390758E+02  0.00000000000E+00 0. -1.
</event>
<event>
 7    1  0.2714068E-010  0.4778727E+02  0.7816164E-02  0.1312668E+00
        -11   -1    0    0    0    0  0.00000000000E+00  0.00000000000E+00  0.45593999997E+02  0.45594000000E+02  0.51100000000E-03 0.  1.
         11   -1    0    0    0    0 -0.00000000000E+00 -0.00000000000E+00 -0.45593999997E+02  0.45594000000E+02  0.51100000000E-03 0. -1.
    9900012    2    1    2    0    0  0.10609590368E+02  0.19686954449E+02 -0.37195210643E+02  0.47787270997E+02  0.19999999783E+02 0.  0.
        -12    1    1    2    0    0 -0.10609590368E+02 -0.19686954449E+02  0.37195210643E+02  0.43400729003E+02  0.00000000000E+00 0.  1.
         11    1    3    3    0    0  0.12710108604E+02  0.12013250917E+02 -0.18589153792E+02  0.25522964117E+02  0.51100000000E-03 0. -1.
        -11    1    3    3    0    0  0.10716615617E+01  0.21641578755E+01  0.18977261337E+00  0.24224061837E+01  0.51100000000E-03 0.  1.
         12    1    3    3    0    0 -0.31721797977E+01  0.55095456561E+01 -0.18795829464E+02  0.19841900696E+02  0.00000000000E+00 0. -1.
</event>
<event>
 7    1  0.2714068E-010  0.4778727E+02  0.7816164E-02  0.1312668E+00
        -11   -1    0    0    0    0  0.00000000000E+00  0.00000000000E+00  0.45593999997E+02  0.45594000000E+02  0.51100000000E-03 0.  1.
         11   -1    0    0    0    0 -0.00000000000E+00 -0.00000000000E+00 -0.45593999997E+02  0.45594000000E+02  0.51100000000E-03 0. -1.
    9900012    2    1    2    0    0  0.19489227962E+02  0.31117460352E+02 -0.23140805046E+02  0.47787271855E+02  0.20000003697E+02 0.  0.
        -12    1    1    2    0    0 -0.19489227962E+02 -0.31117460352E+02  0.23140805046E+02  0.43400728145E+02  0.00000000000E+00 0.  1.
         11    1    3    3    0    0  0.12269802106E+01  0.49134748290E+01 -0.55515378000E+01  0.75144718736E+01  0.51100000000E-03 0. -1.
        -11    1    3    3    0    0  0.16484582738E+02  0.18333490695E+02 -0.20113510980E+02  0.31818417203E+02  0.51100000000E-03 0.  1.
        -12    1    3    3    0    0  0.17776650140E+01  0.78704948279E+01  0.25242437340E+01  0.84543827786E+01  0.00000000000E+00 0.  1.
</event>
<event>
 7    1  0.2714068E-010  0.4778727E+02  0.7816164E-02  0.1312668E+00
        -11   -1    0    0    0    0  0.00000000000E+00  0.00000000000E+00  0.45593999997E+02  0.45594000000E+02  0.51100000000E-03 0. -1.
         11   -1    0    0    0    0 -0.00000000000E+00 -0.00000000000E+00 -0.45593999997E+02  0.45594000000E+02  0.51100000000E-03 0.  1.
    9900012    2    1    2    0    0  0.25546665429E+02  0.23176463415E+02  0.26340903932E+02  0.47787265088E+02  0.19999972842E+02 0.  0.
        -12    1    1    2    0    0 -0.25546665429E+02 -0.23176463415E+02 -0.26340903932E+02  0.43400734912E+02  0.00000000000E+00 0.  1.
         11    1    3    3    0    0  0.21169178091E+02  0.91981498122E+01  0.15895407392E+02  0.28025060882E+02  0.51100000000E-03 0. -1.
        -11    1    3    3    0    0  0.82224518106E+00 -0.81866690561E+00  0.21171215253E+01  0.24142299920E+01  0.51100000000E-03 0.  1.
         12    1    3    3    0    0  0.35552421576E+01  0.14796980508E+02  0.83283750141E+01  0.17347974214E+02  0.00000000000E+00 0. -1.
</event>
<event>
 7    1  0.2714068E-010  0.4778727E+02  0.7816164E-02  0.1312668E+00
        -11   -1    0    0    0    0  0.00000000000E+00  0.00000000000E+00  0.45593999997E+02  0.45594000000E+02  0.51100000000E-03 0. -1.
         11   -1    0    0    0    0 -0.00000000000E+00 -0.00000000000E+00 -0.45593999997E+02  0.45594000000E+02  0.51100000000E-03 0.  1.
    9900012    2    1    2    0    0  0.36904488304E+02  0.12649712938E+02  0.19017537776E+02  0.47787271464E+02  0.20000001911E+02 0.  0.
        -12    1    1    2    0    0 -0.36904488304E+02 -0.12649712938E+02 -0.19017537776E+02  0.43400728536E+02  0.00000000000E+00 0.  1.
         11    1    3    3    0    0  0.97305191768E+01  0.59674257138E+01  0.64638621422E+01  0.13117724161E+02  0.51100000000E-03 0. -1.
        -11    1    3    3    0    0  0.27206726139E+02  0.94780985615E+01  0.90737376605E+01  0.30205512989E+02  0.51100000000E-03 0.  1.
        -12    1    3    3    0    0 -0.32757011630E-01 -0.27958113372E+01  0.34799379733E+01  0.44640343136E+01  0.00000000000E+00 0.  1.
</event>
<event>
 7    1  0.2714068E-010  0.4778727E+02  0.7816164E-02  0.1312668E+00
        -11   -1    0    0    0    0  0.00000000000E+00  0.00000000000E+00  0.45593999997E+02  0.45594000000E+02  0.51100000000E-03 0.  1.
         11   -1    0    0    0    0 -0.00000000000E+00 -0.00000000000E+00 -0.45593999997E+02  0.45594000000E+02  0.51100000000E-03 0. -1.
    9900012    2    1    2    0    0  0.18790007417E+02 -0.20081220410E+02 -0.33575341161E+02  0.47787270445E+02  0.19999997266E+02 0.  0.
        -12    1    1    2    0    0 -0.18790007417E+02  0.20081220410E+02  0.33575341161E+02  0.43400729555E+02  0.00000000000E+00 0.  1.
         11    1    3    3    0    0  0.97286396032E+01 -0.61699667661E+01 -0.50169735574E+01  0.12565227509E+02  0.51100000000E-03 0. -1.
        -11    1    3    3    0    0 -0.75174893385E+00 -0.49883682700E+01 -0.16649181420E+02  0.17396671712E+02  0.51100000000E-03 0.  1.
        -12    1    3    3    0    0  0.98131167476E+01 -0.89228853738E+01 -0.11909186183E+02  0.17825371223E+02  0.00000000000E+00 0.  1.
</event>
<event>
 7    1  0.2714068E-010  0.4778727E+02  0.7816164E-02  0.1312668E+00
        -11   -1    0    0    0    0  0.00000000000E+00  0.00000000000E+00  0.45593999997E+02  0.45594000000E+02  0.51100000000E-03 0.  1.
         11   -1    0    0    0    0 -0.00000000000E+00 -0.00000000000E+00 -0.45593999997E+02  0.45594000000E+02  0.51100000000E-03 0. -1.
    9900012    2    1    2    0    0  0.38066955672E+02 -0.13408827625E+02 -0.15960375823E+02  0.47787269951E+02  0.19999995012E+02 0.  0.
        -12    1    1    2    0    0 -0.38066955672E+02  0.13408827625E+02  0.15960375823E+02  0.43400730049E+02  0.00000000000E+00 0.  1.
         11    1    3    3    0    0  0.14802584391E+02  0.20293932511E+01 -0.87538376742E+01  0.17316599433E+02  0.51100000000E-03 0. -1.
        -11    1    3    3    0    0  0.16330559439E+01  0.13686067074E+01  0.54970413546E-01  0.21314262931E+01  0.51100000000E-03 0.  1.
         12    1    3    3    0    0  0.21631315337E+02 -0.16806827583E+02 -0.72615085626E+01  0.28339244225E+02  0.00000000000E+00 0. -1.
</event>
<event>
 7    1  0.2714068E-010  0.4778728E+02  0.7816164E-02  0.1312668E+00
        -11   -1    0    0    0    0  0.00000000000E+00  0.00000000000E+00  0.45593999997E+02  0.45594000000E+02  0.51100000000E-03 0. -1.
         11   -1    0    0    0    0 -0.00000000000E+00 -0.00000000000E+00 -0.45593999997E+02  0.45594000000E+02  0.51100000000E-03 0.  1.
    9900012    2    1    2    0    0 -0.19694043375E+02  0.60358511803E+01  0.38201250360E+02  0.47787281423E+02  0.20000047320E+02 0.  0.
        -12    1    1    2    0    0  0.19694043375E+02 -0.60358511803E+01 -0.38201250360E+02  0.43400718577E+02  0.00000000000E+00 0.  1.
         11    1    3    3    0    0 -0.15141243386E+02  0.46635823569E+01  0.37077158790E+02  0.40320242508E+02  0.51100000000E-03 0. -1.
        -11    1    3    3    0    0 -0.16751342825E+01  0.24707558413E+01 -0.15718728392E+01  0.33736469547E+01  0.51100000000E-03 0.  1.
        -12    1    3    3    0    0 -0.28776657072E+01 -0.10984870179E+01  0.26959644090E+01  0.40933919608E+01  0.00000000000E+00 0.  1.
</event>
<event>
 7    1  0.2714068E-010  0.4778728E+02  0.7816164E-02  0.1312668E+00
        -11   -1    0    0    0    0  0.00000000000E+00  0.00000000000E+00  0.45593999997E+02  0.45594000000E+02  0.51100000000E-03 0.  1.
         11   -1    0    0    0    0 -0.00000000000E+00 -0.00000000000E+00 -0.45593999997E+02  0.45594000000E+02  0.51100000000E-03 0. -1.
    9900012    2    1    2    0    0  0.27880597157E+02 -0.14121631968E+02 -0.30114361021E+02  0.47787275041E+02  0.20000018221E+02 0.  0.
        -12    1    1    2    0    0 -0.27880597157E+02  0.14121631968E+02  0.30114361021E+02  0.43400724959E+02  0.00000000000E+00 0.  1.
         11    1    3    3    0    0  0.15014473276E+02 -0.75918370917E+01 -0.27024456246E+02  0.31833812744E+02  0.51100000000E-03 0. -1.
        -11    1    3    3    0    0  0.12640987283E+02 -0.44991681470E+01 -0.35063872264E+01  0.13868375000E+02  0.51100000000E-03 0.  1.
         12    1    3    3    0    0  0.22513659881E+00 -0.20306267295E+01  0.41648245164E+00  0.20850872968E+01  0.00000000000E+00 0. -1.
</event>
<event>
 7    1  0.2714068E-010  0.4778727E+02  0.7816164E-02  0.1312668E+00
        -11   -1    0    0    0    0  0.00000000000E+00  0.00000000000E+00  0.45593999997E+02  0.45594000000E+02  0.51100000000E-03 0.  1.
         11   -1    0    0    0    0 -0.00000000000E+00 -0.00000000000E+00 -0.45593999997E+02  0.45594000000E+02  0.51100000000E-03 0. -1.
    9900012    2    1    2    0    0  0.24682232187E+02 -0.17390218188E+01 -0.35656508203E+02  0.47787270054E+02  0.19999995484E+02 0.  0.
        -12    1    1    2    0    0 -0.24682232187E+02  0.17390218188E+01  0.35656508203E+02  0.43400729946E+02  0.00000000000E+00 0.  1.
         11    1    3    3    0    0  0.18840612650E+01 -0.24714997746E+01 -0.13547869418E+02  0.13899739710E+02  0.51100000000E-03 0. -1.
        -11    1    3    3    0    0  0.89063420385E+01  0.31030356674E+01 -0.25308531949E+01  0.97650897085E+01  0.51100000000E-03 0.  1.
        -12    1    3    3    0    0  0.13891828883E+02 -0.23705577116E+01 -0.19577785590E+02  0.24122440635E+02  0.00000000000E+00 0.  1.
</event>
<event>
 7    1  0.2714068E-010  0.4778727E+02  0.7816164E-02  0.1312668E+00
        -11   -1    0    0    0    0  0.00000000000E+00  0.00000000000E+00  0.45593999997E+02  0.45594000000E+02  0.51100000000E-03 0. -1.
         11   -1    0    0    0    0 -0.00000000000E+00 -0.00000000000E+00 -0.45593999997E+02  0.45594000000E+02  0.51100000000E-03 0.  1.
    9900012    2    1    2    0    0 -0.38447560741E+02  0.15428097278E+02 -0.12937619764E+02  0.47787272844E+02  0.20000008203E+02 0.  0.
        -12    1    1    2    0    0  0.38447560741E+02 -0.15428097278E+02  0.12937619764E+02  0.43400727156E+02  0.00000000000E+00 0.  1.
         11    1    3    3    0    0 -0.61855325412E+01  0.19653761839E+01 -0.72716515892E+01  0.97468165807E+01  0.51100000000E-03 0.  1.
        -11    1    3    3    0    0 -0.92656853770E+01  0.10174195612E+01  0.40265308266E+01  0.10153867186E+02  0.51100000000E-03 0. -1.
        -12    1    3    3    0    0 -0.22996342823E+02  0.12445301533E+02 -0.96924990012E+01  0.27886589077E+02  0.00000000000E+00 0.  1.
</event>
<event>
 7    1  0.2714068E-010  0.4778727E+02  0.7816164E-02  0.1312668E+00
        -11   -1    0    0    0    0  0.00000000000E+00  0.00000000000E+00  0.45593999997E+02  0.45594000000E+02  0.51100000000E-03 0.  1.
         11   -1    0    0    0    0 -0.00000000000E+00 -0.00000000000E+00 -0.45593999997E+02  0.45594000000E+02  0.51100000000E-03 0. -1.
    9900012    2    1    2    0    0  0.11144461727E+02  0.34770296487E+02 -0.23461684031E+02  0.47787272327E+02  0.20000005846E+02 0.  0.
        -12    1    1    2    0    0 -0.11144461727E+02 -0.34770296487E+02  0.23461684031E+02  0.43400727673E+02  0.00000000000E+00 0.  1.
         11    1    3    3    0    0  0.12184533092E+02  0.30606078931E+02 -0.14315682165E+02  0.35918430788E+02  0.51100000000E-03 0. -1.
        -11    1    3    3    0    0  0.48402931762E+00  0.30812859041E+01 -0.67148631374E+00  0.31905330799E+01  0.51100000000E-03 0.  1.
         12    1    3    3    0    0 -0.15241006825E+01  0.10829316523E+01 -0.84745155522E+01  0.86783084584E+01  0.00000000000E+00 0. -1.
</event>
<event>
 7    1  0.2714068E-010  0.4778727E+02  0.7816164E-02  0.1312668E+00
        -11   -1    0    0    0    0  0.00000000000E+00  0.00000000000E+00  0.45593999997E+02  0.45594000000E+02  0.51100000000E-03 0. -1.
         11   -1    0    0    0    0 -0.00000000000E+00 -0.00000000000E+00 -0.45593999997E+02  0.45594000000E+02  0.51100000000E-03 0.  1.
    9900012    2    1    2    0    0 -0.88470984585E+00 -0.42785114785E+02  0.72301084103E+01  0.47787271592E+02  0.20000002499E+02 0.  0.
        -12    1    1    2    0    0  0.88470984585E+00  0.42785114785E+02 -0.72301084103E+01  0.43400728408E+02  0.00000000000E+00 0.  1.
         11    1    3    3    0    0 -0.14244509224E+01 -0.29726965924E+02  0.84017729015E+01  0.30924284173E+02  0.51100000000E-03 0. -1.
        -11    1    3    3    0    0  0.54312731080E+00 -0.59298066330E+00 -0.40007872954E+01  0.40807980331E+01  0.51100000000E-03 0.  1.
        -12    1    3    3    0    0 -0.33862342363E-02 -0.12465168198E+02  0.28291228042E+01  0.12782189387E+02  0.00000000000E+00 0.  1.
</event>
<event>
 7    1  0.2714068E-010  0.4778728E+02  0.7816164E-02  0.1312668E+00
        -11   -1    0    0    0    0  0.00000000000E+00  0.00000000000E+00  0.45593999997E+02  0.45594000000E+02  0.51100000000E-03 0. -1.
         11   -1    0    0    0    0 -0.00000000000E+00 -0.00000000000E+00 -0.45593999997E+02  0.45594000000E+02  0.51100000000E-03 0.  1.
    9900012    2    1    2    0    0 -0.28477617311E+02 -0.32536599490E+02  0.37439896133E+01  0.47787280510E+02  0.20000043156E+02 0.  0.
        -12    1    1    2    0    0  0.28477617311E+02  0.32536599490E+02 -0.37439896133E+01  0.43400719490E+02  0.00000000000E+00 0.  1.
         11    1    3    3    0    0 -0.45599606272E+01 -0.13545624203E+02  0.64139520320E+01  0.15665757463E+02  0.51100000000E-03 0. -1.
        -11    1    3    3    0    0 -0.23112369078E+02 -0.18637797524E+02 -0.40695725382E+00  0.29693681405E+02  0.51100000000E-03 0.  1.
         12    1    3    3    0    0 -0.80528760551E+00 -0.35317776343E+00 -0.22630051648E+01  0.24278416415E+01  0.00000000000E+00 0. -1.
</event>
<event>
 7    1  0.2714068E-010  0.4778727E+02  0.7816164E-02  0.1312668E+00
        -11   -1    0    0    0    0  0.00000000000E+00  0.00000000000E+00  0.45593999997E+02  0.45594000000E+02  0.51100000000E-03 0.  1.
         11   -1    0    0    0    0 -0.00000000000E+00 -0.00000000000E+00 -0.45593999997E+02  0.45594000000E+02  0.51100000000E-03 0. -1.
    9900012    2    1    2    0    0  0.13683154865E+02 -0.38634599260E+02 -0.14274541727E+02  0.47787268111E+02  0.19999986625E+02 0.  0.
        -12    1    1    2    0    0 -0.13683154865E+02  0.38634599260E+02  0.14274541727E+02  0.43400731889E+02  0.00000000000E+00 0.  1.
         11    1    3    3    0    0  0.10390615029E+02 -0.26275796763E+02 -0.15831742899E+02  0.32388677956E+02  0.51100000000E-03 0. -1.
        -11    1    3    3    0    0  0.31372699875E+01 -0.13009377895E+02  0.30828050803E+01  0.13732809749E+02  0.51100000000E-03 0.  1.
        -12    1    3    3    0    0  0.15526984796E+00  0.65057539899E+00 -0.15256039084E+01  0.16657804059E+01  0.00000000000E+00 0.  1.
</event>
<event>
 7    1  0.2714068E-010  0.4778729E+02  0.7816164E-02  0.1312668E+00
        -11   -1    0    0    0    0  0.00000000000E+00  0.00000000000E+00  0.45593999997E+02  0.45594000000E+02  0.51100000000E-03 0. -1.
         11   -1    0    0    0    0 -0.00000000000E+00 -0.00000000000E+00 -0.45593999997E+02  0.45594000000E+02  0.51100000000E-03 0.  1.
    9900012    2    1    2    0    0 -0.22658032399E+02  0.32999677809E+02 -0.16770707699E+02  0.47787287974E+02  0.20000077187E+02 0.  0.
        -12    1    1    2    0    0  0.22658032399E+02 -0.32999677809E+02  0.16770707699E+02  0.43400712026E+02  0.00000000000E+00 0.  1.
         11    1    3    3    0    0 -0.36809658776E+01  0.21286975603E+02 -0.40899482800E+01  0.21986644067E+02  0.51100000000E-03 0. -1.
        -11    1    3    3    0    0 -0.93132806167E+01  0.41662588223E+01 -0.54771428817E+01  0.11579896495E+02  0.51100000000E-03 0.  1.
         12    1    3    3    0    0 -0.96637859046E+01  0.75464433832E+01 -0.72036165371E+01  0.14220747412E+02  0.00000000000E+00 0. -1.
</event>
<event>
 7    1  0.2714068E-010  0.4778727E+02  0.7816164E-02  0.1312668E+00
        -11   -1    0    0    0    0  0.00000000000E+00  0.00000000000E+00  0.45593999997E+02  0.45594000000E+02  0.51100000000E-03 0.  1.
         11   -1    0    0    0    0 -0.00000000000E+00 -0.00000000000E+00 -0.45593999997E+02  0.45594000000E+02  0.51100000000E-03 0. -1.
    9900012    2    1    2    0    0 -0.53364157796E+01  0.39702777040E+02  0.16698363229E+02  0.47787272211E+02  0.20000005321E+02 0.  0.
        -12    1    1    2    0    0  0.53364157796E+01 -0.39702777040E+02 -0.16698363229E+02  0.43400727789E+02  0.00000000000E+00 0.  1.
         11    1    3    3    0    0  0.28679758588E+01  0.11211811450E+02  0.40456222722E+01  0.12259570194E+02  0.51100000000E-03 0. -1.
        -11    1    3    3    0    0 -0.10212951978E+02  0.15966940964E+02  0.21798196765E+01  0.19078763218E+02  0.51100000000E-03 0.  1.
        -12    1    3    3    0    0  0.20085603398E+01  0.12524024626E+02  0.10472921280E+02  0.16448938799E+02  0.00000000000E+00 0.  1.
</event>
<event>
 7    1  0.2714068E-010  0.4778725E+02  0.7816164E-02  0.1312668E+00
        -11   -1    0    0    0    0  0.00000000000E+00  0.00000000000E+00  0.45593999997E+02  0.45594000000E+02  0.51100000000E-03 0.  1.
         11   -1    0    0    0    0 -0.00000000000E+00 -0.00000000000E+00 -0.45593999997E+02  0.45594000000E+02  0.51100000000E-03 0. -1.
    9900012    2    1    2    0    0 -0.31469940475E+02 -0.26511921838E+02  0.13798044019E+02  0.47787249179E+02  0.19999900308E+02 0.  0.
        -12    1    1    2    0    0  0.31469940475E+02  0.26511921838E+02 -0.13798044019E+02  0.43400750821E+02  0.00000000000E+00 0.  1.
         11    1    3    3    0    0 -0.43966141778E+01 -0.66796246371E+01 -0.34738426863E+01  0.87186687511E+01  0.51100000000E-03 0. -1.
        -11    1    3    3    0    0 -0.22460811754E+02 -0.11408382043E+02  0.10375673035E+02  0.27245069952E+02  0.51100000000E-03 0.  1.
        -12    1    3    3    0    0 -0.46125145432E+01 -0.84239151574E+01  0.68962136702E+01  0.11823510476E+02  0.00000000000E+00 0.  1.
</event>
<event>
 7    1  0.2714068E-010  0.4778727E+02  0.7816164E-02  0.1312668E+00
        -11   -1    0    0    0    0  0.00000000000E+00  0.00000000000E+00  0.45593999997E+02  0.45594000000E+02  0.51100000000E-03 0.  1.
         11   -1    0    0    0    0 -0.00000000000E+00 -0.00000000000E+00 -0.45593999997E+02  0.45594000000E+02  0.51100000000E-03 0. -1.
    9900012    2    1    2    0    0  0.39811547319E+02  0.16967607485E+02 -0.32809127259E+01  0.47787269684E+02  0.19999993797E+02 0.  0.
        -12    1    1    2    0    0 -0.39811547319E+02 -0.16967607485E+02  0.32809127259E+01  0.43400730316E+02  0.00000000000E+00 0.  1.
         11    1    3    3    0    0  0.14526401477E+02  0.10828487894E+02 -0.16428489878E+01  0.18192620564E+02  0.51100000000E-03 0. -1.
        -11    1    3    3    0    0  0.13014155385E+02 -0.28558270190E+01  0.30608837476E+01  0.13670881388E+02  0.51100000000E-03 0.  1.
        -12    1    3    3    0    0  0.12270990457E+02  0.89949466101E+01 -0.46989474858E+01  0.15923767732E+02  0.00000000000E+00 0.  1.
</event>
<event>
 7    1  0.2714068E-010  0.4778727E+02  0.7816164E-02  0.1312668E+00
        -11   -1    0    0    0    0  0.00000000000E+00  0.00000000000E+00  0.45593999997E+02  0.45594000000E+02  0.51100000000E-03 0.  1.
         11   -1    0    0    0    0 -0.00000000000E+00 -0.00000000000E+00 -0.45593999997E+02  0.45594000000E+02  0.51100000000E-03 0. -1.
    9900012    2    1    2    0    0  0.34571552925E+02  0.22631718188E+02  0.13275399556E+02  0.47787272205E+02  0.20000005292E+02 0.  0.
        -12    1    1    2    0    0 -0.34571552925E+02 -0.22631718188E+02 -0.13275399556E+02  0.43400727795E+02  0.00000000000E+00 0.  1.
         11    1    3    3    0    0  0.70405211337E+01  0.27251411530E+01 -0.31580896798E+01  0.81834505452E+01  0.51100000000E-03 0. -1.
        -11    1    3    3    0    0  0.91400417464E+01  0.95282367870E+01  0.12383116416E+02  0.18101636164E+02  0.51100000000E-03 0.  1.
        -12    1    3    3    0    0  0.18390990045E+02  0.10378340248E+02  0.40503728197E+01  0.21502185496E+02  0.00000000000E+00 0.  1.
</event>
<event>
 7    1  0.2714068E-010  0.4778727E+02  0.7816164E-02  0.1312668E+00
        -11   -1    0    0    0    0  0.00000000000E+00  0.00000000000E+00  0.45593999997E+02  0.45594000000E+02  0.51100000000E-03 0.  1.
         11   -1    0    0    0    0 -0.00000000000E+00 -0.00000000000E+00 -0.45593999997E+02  0.45594000000E+02  0.51100000000E-03 0. -1.
    9900012    2    1    2    0    0 -0.40706659259E+02 -0.14270212806E+02 -0.47908306097E+01  0.47787272592E+02  0.20000007057E+02 0.  0.
        -12    1    1    2    0    0  0.40706659259E+02  0.14270212806E+02  0.47908306097E+01  0.43400727408E+02  0.00000000000E+00 0.  1.
         11    1    3    3    0    0 -0.24587275370E+02 -0.17060426005E+02 -0.57150362410E+01  0.30467259232E+02  0.51100000000E-03 0. -1.
        -11    1    3    3    0    0 -0.10310030757E+02  0.18112459574E+01  0.32880891325E+01  0.10972186498E+02  0.51100000000E-03 0.  1.
        -12    1    3    3    0    0 -0.58093531318E+01  0.97896724180E+00 -0.23638835011E+01  0.63478268626E+01  0.00000000000E+00 0.  1.
</event>
<event>
 7    1  0.2714068E-010  0.4778727E+02  0.7816164E-02  0.1312668E+00
        -11   -1    0    0    0    0  0.00000000000E+00  0.00000000000E+00  0.45593999997E+02  0.45594000000E+02  0.51100000000E-03 0.  1.
         11   -1    0    0    0    0 -0.00000000000E+00 -0.00000000000E+00 -0.45593999997E+02  0.45594000000E+02  0.51100000000E-03 0. -1.
    9900012    2    1    2    0    0 -0.37795571375E+02 -0.11949593388E+01 -0.21299996817E+02  0.47787274110E+02  0.20000013977E+02 0.  0.
        -12    1    1    2    0    0  0.37795571375E+02  0.11949593388E+01  0.21299996817E+02  0.43400725890E+02  0.00000000000E+00 0.  1.
         11    1    3    3    0    0 -0.23369083581E+02  0.39839075308E+01 -0.82984669751E+01  0.25116730301E+02  0.51100000000E-03 0. -1.
        -11    1    3    3    0    0 -0.51743528957E+01 -0.39981125918E+00 -0.10863948129E+02  0.12039898096E+02  0.51100000000E-03 0.  1.
        -12    1    3    3    0    0 -0.92521348983E+01 -0.47790556104E+01 -0.21375817126E+01  0.10630645713E+02  0.00000000000E+00 0.  1.
</event>
<event>
 7    1  0.2714068E-010  0.4778727E+02  0.7816164E-02  0.1312668E+00
        -11   -1    0    0    0    0  0.00000000000E+00  0.00000000000E+00  0.45593999997E+02  0.45594000000E+02  0.51100000000E-03 0. -1.
         11   -1    0    0    0    0 -0.00000000000E+00 -0.00000000000E+00 -0.45593999997E+02  0.45594000000E+02  0.51100000000E-03 0.  1.
    9900012    2    1    2    0    0  0.17653179339E+02  0.32741604140E+02 -0.22360144980E+02  0.47787268831E+02  0.19999989908E+02 0.  0.
        -12    1    1    2    0    0 -0.17653179339E+02 -0.32741604140E+02  0.22360144980E+02  0.43400731169E+02  0.00000000000E+00 0.  1.
         11    1    3    3    0    0  0.51608379439E+01  0.23192805617E+02 -0.71214038246E+01  0.24804331746E+02  0.51100000000E-03 0. -1.
        -11    1    3    3    0    0  0.55112204619E+01  0.36472665427E+01 -0.11166393317E+02  0.12975532520E+02  0.51100000000E-03 0.  1.
         12    1    3    3    0    0  0.69811209330E+01  0.59015319811E+01 -0.40723478386E+01  0.10007404565E+02  0.00000000000E+00 0. -1.
</event>
<event>
 7    1  0.2714068E-010  0.4778728E+02  0.7816164E-02  0.1312668E+00
        -11   -1    0    0    0    0  0.00000000000E+00  0.00000000000E+00  0.45593999997E+02  0.45594000000E+02  0.51100000000E-03 0. -1.
         11   -1    0    0    0    0 -0.00000000000E+00 -0.00000000000E+00 -0.45593999997E+02  0.45594000000E+02  0.51100000000E-03 0.  1.
    9900012    2    1    2    0    0  0.53905661556E+00  0.24904352323E+02  0.35540195547E+02  0.47787275971E+02  0.20000022463E+02 0.  0.
        -12    1    1    2    0    0 -0.53905661556E+00 -0.24904352323E+02 -0.35540195547E+02  0.43400724029E+02  0.00000000000E+00 0.  1.
         11    1    3    3    0    0  0.14550526859E+01  0.43632302650E+01  0.23782623495E+01  0.51779425188E+01  0.51100000000E-03 0. -1.
        -11    1    3    3    0    0 -0.53961941136E+01  0.26240664745E+00  0.36399238952E+01  0.65143544872E+01  0.51100000000E-03 0.  1.
        -12    1    3    3    0    0  0.44801980432E+01  0.20278715411E+02  0.29522009303E+02  0.36094978965E+02  0.00000000000E+00 0.  1.
</event>
<event>
 7    1  0.2714068E-010  0.4778727E+02  0.7816164E-02  0.1312668E+00
        -11   -1    0    0    0    0  0.00000000000E+00  0.00000000000E+00  0.45593999997E+02  0.45594000000E+02  0.51100000000E-03 0. -1.
         11   -1    0    0    0    0 -0.00000000000E+00 -0.00000000000E+00 -0.45593999997E+02  0.45594000000E+02  0.51100000000E-03 0.  1.
    9900012    2    1    2    0    0 -0.36626286012E+02 -0.13920174560E+02  0.18664597788E+02  0.47787270773E+02  0.19999998764E+02 0.  0.
        -12    1    1    2    0    0  0.36626286012E+02  0.13920174560E+02 -0.18664597788E+02  0.43400729227E+02  0.00000000000E+00 0.  1.
         11    1    3    3    0    0 -0.66029730091E+01 -0.75585499569E+01  0.12702596346E+02  0.16189097696E+02  0.51100000000E-03 0. -1.
        -11    1    3    3    0    0 -0.17020860603E+02 -0.56910518112E+01  0.44531368315E+01  0.18491300503E+02  0.51100000000E-03 0.  1.
         12    1    3    3    0    0 -0.13002452400E+02 -0.67057279225E+00  0.15088646101E+01  0.13106872575E+02  0.00000000000E+00 0. -1.
</event>
<event>
 7    1  0.2714068E-010  0.4778727E+02  0.7816164E-02  0.1312668E+00
        -11   -1    0    0    0    0  0.00000000000E+00  0.00000000000E+00  0.45593999997E+02  0.45594000000E+02  0.51100000000E-03 0. -1.
         11   -1    0    0    0    0 -0.00000000000E+00 -0.00000000000E+00 -0.45593999997E+02  0.45594000000E+02  0.51100000000E-03 0.  1.
    9900012    2    1    2    0    0 -0.22570796497E+02  0.25598348556E+01  0.36981478894E+02  0.47787269704E+02  0.19999993890E+02 0.  0.
        -12    1    1    2    0    0  0.22570796497E+02 -0.25598348556E+01 -0.36981478894E+02  0.43400730296E+02  0.00000000000E+00 0.  1.
         11    1    3    3    0    0 -0.16524068950E+01  0.54400329277E+01  0.12074856903E+02  0.13346406868E+02  0.51100000000E-03 0. -1.
        -11    1    3    3    0    0 -0.30665084129E+01  0.33184667294E+01  0.26282239902E+01  0.52271652819E+01  0.51100000000E-03 0.  1.
         12    1    3    3    0    0 -0.17851881189E+02 -0.61986648015E+01  0.22278398001E+02  0.29213697554E+02  0.00000000000E+00 0. -1.
</event>
<event>
 7    1  0.2714068E-010  0.4778726E+02  0.7816164E-02  0.1312668E+00
        -11   -1    0    0    0    0  0.00000000000E+00  0.00000000000E+00  0.45593999997E+02  0.45594000000E+02  0.51100000000E-03 0.  1.
         11   -1    0    0    0    0 -0.00000000000E+00 -0.00000000000E+00 -0.45593999997E+02  0.45594000000E+02  0.51100000000E-03 0. -1.
    9900012    2    1    2    0    0  0.51896253628E+01 -0.35358796147E+02 -0.24626148611E+02  0.47787264156E+02  0.19999968595E+02 0.  0.
        -12    1    1    2    0    0 -0.51896253628E+01  0.35358796147E+02  0.24626148611E+02  0.43400735844E+02  0.00000000000E+00 0.  1.
         11    1    3    3    0    0 -0.35101941241E+01 -0.33892057252E+00 -0.24379019750E+01  0.42871547959E+01  0.51100000000E-03 0. -1.
        -11    1    3    3    0    0  0.76557296428E+01 -0.32698123976E+02 -0.23139450429E+02  0.40782492253E+02  0.51100000000E-03 0.  1.
        -12    1    3    3    0    0  0.10440898441E+01 -0.23217515982E+01  0.95120379369E+00  0.27176171075E+01  0.00000000000E+00 0.  1.
</event>
<event>
 7    1  0.2714068E-010  0.4778727E+02  0.7816164E-02  0.1312668E+00
        -11   -1    0    0    0    0  0.00000000000E+00  0.00000000000E+00  0.45593999997E+02  0.45594000000E+02  0.51100000000E-03 0.  1.
         11   -1    0    0    0    0 -0.00000000000E+00 -0.00000000000E+00 -0.45593999997E+02  0.45594000000E+02  0.51100000000E-03 0. -1.
    9900012    2    1    2    0    0 -0.16634953399E+02 -0.27850696334E+02 -0.28831237219E+02  0.47787271890E+02  0.20000003856E+02 0.  0.
        -12    1    1    2    0    0  0.16634953399E+02  0.27850696334E+02  0.28831237219E+02  0.43400728110E+02  0.00000000000E+00 0.  1.
         11    1    3    3    0    0 -0.54708343593E+01 -0.10050348644E+01 -0.27085665721E+01  0.61867969744E+01  0.51100000000E-03 0. -1.
        -11    1    3    3    0    0 -0.11883778344E+02 -0.28163864223E+02 -0.25932876557E+02  0.40086675124E+02  0.51100000000E-03 0.  1.
        -12    1    3    3    0    0  0.71965930447E+00  0.13182027533E+01 -0.18979409018E+00  0.15137997919E+01  0.00000000000E+00 0.  1.
</event>
<event>
 7    1  0.2714068E-010  0.4778727E+02  0.7816164E-02  0.1312668E+00
        -11   -1    0    0    0    0  0.00000000000E+00  0.00000000000E+00  0.45593999997E+02  0.45594000000E+02  0.51100000000E-03 0.  1.
         11   -1    0    0    0    0 -0.00000000000E+00 -0.00000000000E+00 -0.45593999997E+02  0.45594000000E+02  0.51100000000E-03 0. -1.
    9900012    2    1    2    0    0 -0.34361037603E+02  0.14967383389E+02 -0.21884236195E+02  0.47787271152E+02  0.20000000492E+02 0.  0.
        -12    1    1    2    0    0  0.34361037603E+02 -0.14967383389E+02  0.21884236195E+02  0.43400728848E+02  0.00000000000E+00 0.  1.
         11    1    3    3    0    0 -0.16750840731E+02  0.12372104404E+02 -0.97476215882E+01  0.22992950212E+02  0.51100000000E-03 0. -1.
        -11    1    3    3    0    0 -0.93396698415E+00 -0.27504403650E+01  0.81075268742E+00  0.30157149584E+01  0.51100000000E-03 0.  1.
        -12    1    3    3    0    0 -0.16676229888E+02  0.53457193499E+01 -0.12947367295E+02  0.21778605982E+02  0.00000000000E+00 0.  1.
</event>
<event>
 7    1  0.2714068E-010  0.4778727E+02  0.7816164E-02  0.1312668E+00
        -11   -1    0    0    0    0  0.00000000000E+00  0.00000000000E+00  0.45593999997E+02  0.45594000000E+02  0.51100000000E-03 0.  1.
         11   -1    0    0    0    0 -0.00000000000E+00 -0.00000000000E+00 -0.45593999997E+02  0.45594000000E+02  0.51100000000E-03 0. -1.
    9900012    2    1    2    0    0 -0.26562064027E+01 -0.43291774311E+02 -0.15460220412E+01  0.47787270287E+02  0.19999996548E+02 0.  0.
        -12    1    1    2    0    0  0.26562064027E+01  0.43291774311E+02  0.15460220412E+01  0.43400729713E+02  0.00000000000E+00 0.  1.
         11    1    3    3    0    0  0.31810067025E+01 -0.12975535543E+02  0.25207154642E+01  0.13595489435E+02  0.51100000000E-03 0. -1.
        -11    1    3    3    0    0 -0.48369685174E+01 -0.18887444531E+02 -0.92770674675E+01  0.21591567947E+02  0.51100000000E-03 0.  1.
        -12    1    3    3    0    0 -0.10002445878E+01 -0.11428794237E+02  0.52103299622E+01  0.12600212905E+02  0.00000000000E+00 0.  1.
</event>
<event>
 7    1  0.2714068E-010  0.4778726E+02  0.7816164E-02  0.1312668E+00
        -11   -1    0    0    0    0  0.00000000000E+00  0.00000000000E+00  0.45593999997E+02  0.45594000000E+02  0.51100000000E-03 0. -1.
         11   -1    0    0    0    0 -0.00000000000E+00 -0.00000000000E+00 -0.45593999997E+02  0.45594000000E+02  0.51100000000E-03 0.  1.
    9900012    2    1    2    0    0 -0.42132141404E+02 -0.52739644257E+01  0.89828630528E+01  0.47787264192E+02  0.19999968756E+02 0.  0.
        -12    1    1    2    0    0  0.42132141404E+02  0.52739644257E+01 -0.89828630528E+01  0.43400735808E+02  0.00000000000E+00 0.  1.
         11    1    3    3    0    0 -0.14497897890E+02  0.33914235561E+01  0.69973473465E+01  0.16451555158E+02  0.51100000000E-03 0. -1.
        -11    1    3    3    0    0 -0.74200106472E+01 -0.30977099508E+01 -0.47186498479E+01  0.93229835135E+01  0.51100000000E-03 0.  1.
         12    1    3    3    0    0 -0.20214232867E+02 -0.55676780310E+01  0.67041655542E+01  0.22012725521E+02  0.00000000000E+00 0. -1.
</event>
<event>
 7    1  0.2714068E-010  0.4778727E+02  0.7816164E-02  0.1312668E+00
        -11   -1    0    0    0    0  0.00000000000E+00  0.00000000000E+00  0.45593999997E+02  0.45594000000E+02  0.51100000000E-03 0.  1.
         11   -1    0    0    0    0 -0.00000000000E+00 -0.00000000000E+00 -0.45593999997E+02  0.45594000000E+02  0.51100000000E-03 0. -1.
    9900012    2    1    2    0    0  0.29727199376E+02  0.29627109191E+02 -0.11052211562E+02  0.47787270027E+02  0.19999995362E+02 0.  0.
        -12    1    1    2    0    0 -0.29727199376E+02 -0.29627109191E+02  0.11052211562E+02  0.43400729973E+02  0.00000000000E+00 0.  1.
         11    1    3    3    0    0  0.16176913201E+02  0.21220529134E+02 -0.15801148482E+02  0.31010960498E+02  0.51100000000E-03 0. -1.
        -11    1    3    3    0    0  0.92018958186E+01  0.65629120724E+01  0.26566687693E+01  0.11610537918E+02  0.51100000000E-03 0.  1.
         12    1    3    3    0    0  0.43483903564E+01  0.18436679850E+01  0.20922681500E+01  0.51657716115E+01  0.00000000000E+00 0. -1.
</event>
<event>
 7    1  0.2714068E-010  0.4778727E+02  0.7816164E-02  0.1312668E+00
        -11   -1    0    0    0    0  0.00000000000E+00  0.00000000000E+00  0.45593999997E+02  0.45594000000E+02  0.51100000000E-03 0.  1.
         11   -1    0    0    0    0 -0.00000000000E+00 -0.00000000000E+00 -0.45593999997E+02  0.45594000000E+02  0.51100000000E-03 0. -1.
    9900012    2    1    2    0    0 -0.52714305160E+01 -0.41893662538E+02 -0.10037751021E+02  0.47787269751E+02  0.19999994104E+02 0.  0.
        -12    1    1    2    0    0  0.52714305160E+01  0.41893662538E+02  0.10037751021E+02  0.43400730249E+02  0.00000000000E+00 0.  1.
         11    1    3    3    0    0 -0.54982500770E+01 -0.10811324562E+01 -0.82852550901E+00  0.56644554970E+01  0.51100000000E-03 0. -1.
        -11    1    3    3    0    0 -0.11819030991E+01 -0.23699300427E+02 -0.32670678701E+01  0.23952608801E+02  0.51100000000E-03 0.  1.
         12    1    3    3    0    0  0.14087226601E+01 -0.17113229655E+02 -0.59421576422E+01  0.18170205453E+02  0.00000000000E+00 0. -1.
</event>
<event>
 7    1  0.2714068E-010  0.4778727E+02  0.7816164E-02  0.1312668E+00
        -11   -1    0    0    0    0  0.00000000000E+00  0.00000000000E+00  0.45593999997E+02  0.45594000000E+02  0.51100000000E-03 0.  1.
         11   -1    0    0    0    0 -0.00000000000E+00 -0.00000000000E+00 -0.45593999997E+02  0.45594000000E+02  0.51100000000E-03 0. -1.
    9900012    2    1    2    0    0 -0.37166554158E+02 -0.16371438687E+02 -0.15305108101E+02  0.47787273201E+02  0.20000009835E+02 0.  0.
        -12    1    1    2    0    0  0.37166554158E+02  0.16371438687E+02  0.15305108101E+02  0.43400726799E+02  0.00000000000E+00 0.  1.
         11    1    3    3    0    0 -0.35195641750E+01 -0.34630536146E+01  0.56543641199E+00  0.49698884210E+01  0.51100000000E-03 0. -1.
        -11    1    3    3    0    0 -0.26594713488E+02 -0.78691027856E+01 -0.38540230951E+01  0.28000983169E+02  0.51100000000E-03 0.  1.
        -12    1    3    3    0    0 -0.70522764950E+01 -0.50392822864E+01 -0.12016521418E+02  0.14816401611E+02  0.00000000000E+00 0.  1.
</event>
<event>
 7    1  0.2714068E-010  0.4778727E+02  0.7816164E-02  0.1312668E+00
        -11   -1    0    0    0    0  0.00000000000E+00  0.00000000000E+00  0.45593999997E+02  0.45594000000E+02  0.51100000000E-03 0.  1.
         11   -1    0    0    0    0 -0.00000000000E+00 -0.00000000000E+00 -0.45593999997E+02  0.45594000000E+02  0.51100000000E-03 0. -1.
    9900012    2    1    2    0    0 -0.94787611938E+01 -0.34533525974E+02 -0.24519620903E+02  0.47787272596E+02  0.20000007076E+02 0.  0.
        -12    1    1    2    0    0  0.94787611938E+01  0.34533525974E+02  0.24519620903E+02  0.43400727404E+02  0.00000000000E+00 0.  1.
         11    1    3    3    0    0 -0.27117259266E+01 -0.53120525510E+01 -0.37893656344E+01  0.70661624647E+01  0.51100000000E-03 0. -1.
        -11    1    3    3    0    0 -0.12931675694E+01  0.17524404002E+01 -0.52092765975E+01  0.56462281790E+01  0.51100000000E-03 0.  1.
        -12    1    3    3    0    0 -0.54738676979E+01 -0.30973913823E+02 -0.15520978671E+02  0.35074881953E+02  0.00000000000E+00 0.  1.
</event>
<event>
 7    1  0.2714068E-010  0.4778727E+02  0.7816164E-02  0.1312668E+00
        -11   -1    0    0    0    0  0.00000000000E+00  0.00000000000E+00  0.45593999997E+02  0.45594000000E+02  0.51100000000E-03 0.  1.
         11   -1    0    0    0    0 -0.00000000000E+00 -0.00000000000E+00 -0.45593999997E+02  0.45594000000E+02  0.51100000000E-03 0. -1.
    9900012    2    1    2    0    0 -0.91025290621E+01 -0.38772349845E+02 -0.17247370384E+02  0.47787274972E+02  0.20000017906E+02 0.  0.
        -12    1    1    2    0    0  0.91025290621E+01  0.38772349845E+02  0.17247370384E+02  0.43400725028E+02  0.00000000000E+00 0.  1.
         11    1    3    3    0    0 -0.81073487204E+01 -0.31206449743E+02 -0.99972910591E+01  0.33756739144E+02  0.51100000000E-03 0. -1.
        -11    1    3    3    0    0  0.36624850932E+01 -0.72212070994E+00 -0.21774790450E+01  0.43216513777E+01  0.51100000000E-03 0.  1.
         12    1    3    3    0    0 -0.46576654349E+01 -0.68437793919E+01 -0.50726002800E+01  0.97088844503E+01  0.00000000000E+00 0. -1.
</event>
<event>
 7    1  0.2714068E-010  0.4778727E+02  0.7816164E-02  0.1312668E+00
        -11   -1    0    0    0    0  0.00000000000E+00  0.00000000000E+00  0.45593999997E+02  0.45594000000E+02  0.51100000000E-03 0. -1.
         11   -1    0    0    0    0 -0.00000000000E+00 -0.00000000000E+00 -0.45593999997E+02  0.45594000000E+02  0.51100000000E-03 0.  1.
    9900012    2    1    2    0    0 -0.26803375829E+01 -0.39895068061E+02 -0.16876680791E+02  0.47787273973E+02  0.20000013354E+02 0.  0.
        -12    1    1    2    0    0  0.26803375829E+01  0.39895068061E+02  0.16876680791E+02  0.43400726027E+02  0.00000000000E+00 0.  1.
         11    1    3    3    0    0 -0.22738568607E+01 -0.28957010100E+02 -0.11495676975E+02  0.31238268971E+02  0.51100000000E-03 0. -1.
        -11    1    3    3    0    0  0.13482504654E+01 -0.12026429744E+02 -0.69501769504E+01  0.13955563465E+02  0.51100000000E-03 0.  1.
         12    1    3    3    0    0 -0.17547311877E+01  0.10883717837E+01  0.15691731345E+01  0.25934415372E+01  0.00000000000E+00 0. -1.
</event>
<event>
 7    1  0.2714068E-010  0.4778726E+02  0.7816164E-02  0.1312668E+00
        -11   -1    0    0    0    0  0.00000000000E+00  0.00000000000E+00  0.45593999997E+02  0.45594000000E+02  0.51100000000E-03 0.  1.
         11   -1    0    0    0    0 -0.00000000000E+00 -0.00000000000E+00 -0.45593999997E+02  0.45594000000E+02  0.51100000000E-03 0. -1.
    9900012    2    1    2    0    0  0.36601367386E+02  0.11007638442E+02  0.20561997542E+02  0.47787263353E+02  0.19999964930E+02 0.  0.
        -12    1    1    2    0    0 -0.36601367386E+02 -0.11007638442E+02 -0.20561997542E+02  0.43400736647E+02  0.00000000000E+00 0.  1.
         11    1    3    3    0    0  0.28708863195E+02  0.92940980853E+01  0.12000791719E+02  0.32474576014E+02  0.51100000000E-03 0. -1.
        -11    1    3    3    0    0 -0.20035541700E+01  0.10865028013E+01  0.35081335599E+01  0.41835055856E+01  0.51100000000E-03 0.  1.
        -12    1    3    3    0    0  0.98960583613E+01  0.62703755519E+00  0.50530722629E+01  0.11129181753E+02  0.00000000000E+00 0.  1.
</event>
<event>
 7    1  0.2714068E-010  0.4778727E+02  0.7816164E-02  0.1312668E+00
        -11   -1    0    0    0    0  0.00000000000E+00  0.00000000000E+00  0.45593999997E+02  0.45594000000E+02  0.51100000000E-03 0. -1.
         11   -1    0    0    0    0 -0.00000000000E+00 -0.00000000000E+00 -0.45593999997E+02  0.45594000000E+02  0.51100000000E-03 0.  1.
    9900012    2    1    2    0    0  0.39176992844E+02 -0.14652001671E+02 -0.11580384008E+02  0.47787271722E+02  0.20000003091E+02 0.  0.
        -12    1    1    2    0    0 -0.39176992844E+02  0.14652001671E+02  0.11580384008E+02  0.43400728278E+02  0.00000000000E+00 0.  1.
         11    1    3    3    0    0  0.28079850219E+02 -0.10265324176E+02 -0.10274200654E+02  0.31613510848E+02  0.51100000000E-03 0. -1.
        -11    1    3    3    0    0  0.90318412375E+00  0.32186165685E+01 -0.83989109354E+00  0.34468320943E+01  0.51100000000E-03 0.  1.
         12    1    3    3    0    0  0.10193958501E+02 -0.76052940634E+01 -0.46629226068E+00  0.12726928781E+02  0.00000000000E+00 0. -1.
</event>
<event>
 7    1  0.2714068E-010  0.4778727E+02  0.7816164E-02  0.1312668E+00
        -11   -1    0    0    0    0  0.00000000000E+00  0.00000000000E+00  0.45593999997E+02  0.45594000000E+02  0.51100000000E-03 0.  1.
         11   -1    0    0    0    0 -0.00000000000E+00 -0.00000000000E+00 -0.45593999997E+02  0.45594000000E+02  0.51100000000E-03 0. -1.
    9900012    2    1    2    0    0  0.61995036110E+01 -0.42736958534E+02  0.43292295325E+01  0.47787266157E+02  0.19999977715E+02 0.  0.
        -12    1    1    2    0    0 -0.61995036110E+01  0.42736958534E+02 -0.43292295325E+01  0.43400733843E+02  0.00000000000E+00 0.  1.
         11    1    3    3    0    0 -0.20341344407E+01 -0.61828170591E+01 -0.49087327909E+01  0.81523363267E+01  0.51100000000E-03 0. -1.
        -11    1    3    3    0    0  0.60053440965E+01 -0.10617121210E+02  0.62234006131E+00  0.12213710654E+02  0.51100000000E-03 0.  1.
         12    1    3    3    0    0  0.22282939552E+01 -0.25937020265E+02  0.86156222621E+01  0.27421219177E+02  0.00000000000E+00 0. -1.
</event>
<event>
 7    1  0.2714068E-010  0.4778727E+02  0.7816164E-02  0.1312668E+00
        -11   -1    0    0    0    0  0.00000000000E+00  0.00000000000E+00  0.45593999997E+02  0.45594000000E+02  0.51100000000E-03 0.  1.
         11   -1    0    0    0    0 -0.00000000000E+00 -0.00000000000E+00 -0.45593999997E+02  0.45594000000E+02  0.51100000000E-03 0. -1.
    9900012    2    1    2    0    0  0.19740991057E+01 -0.21262833341E+02 -0.37783831166E+02  0.47787273664E+02  0.20000011942E+02 0.  0.
        -12    1    1    2    0    0 -0.19740991057E+01  0.21262833341E+02  0.37783831166E+02  0.43400726336E+02  0.00000000000E+00 0.  1.
         11    1    3    3    0    0  0.78063951441E+01 -0.81526615138E+01 -0.18961173053E+02  0.22066530735E+02  0.51100000000E-03 0. -1.
        -11    1    3    3    0    0 -0.40593583116E+00  0.15474441593E+01 -0.34258913484E+01  0.37810182646E+01  0.51100000000E-03 0.  1.
         12    1    3    3    0    0 -0.54263602073E+01 -0.14657615986E+02 -0.15396766765E+02  0.21939724664E+02  0.00000000000E+00 0. -1.
</event>
<event>
 7    1  0.2714068E-010  0.4778727E+02  0.7816164E-02  0.1312668E+00
        -11   -1    0    0    0    0  0.00000000000E+00  0.00000000000E+00  0.45593999997E+02  0.45594000000E+02  0.51100000000E-03 0.  1.
         11   -1    0    0    0    0 -0.00000000000E+00 -0.00000000000E+00 -0.45593999997E+02  0.45594000000E+02  0.51100000000E-03 0. -1.
    9900012    2    1    2    0    0  0.36479322158E+02  0.47830285199E+01 -0.23021847171E+02  0.47787265512E+02  0.19999974777E+02 0.  0.
        -12    1    1    2    0    0 -0.36479322158E+02 -0.47830285199E+01  0.23021847171E+02  0.43400734488E+02  0.00000000000E+00 0.  1.
         11    1    3    3    0    0  0.24984261520E+02  0.61870896843E+01 -0.12096024921E+02  0.28439536241E+02  0.51100000000E-03 0. -1.
        -11    1    3    3    0    0  0.95939980665E+01  0.31789320828E+01 -0.40948138573E+01  0.10904948825E+02  0.51100000000E-03 0.  1.
         12    1    3    3    0    0  0.19010625714E+01 -0.45829932473E+01 -0.68310083923E+01  0.84427804461E+01  0.00000000000E+00 0. -1.
</event>
<event>
 7    1  0.2714068E-010  0.4778726E+02  0.7816164E-02  0.1312668E+00
        -11   -1    0    0    0    0  0.00000000000E+00  0.00000000000E+00  0.45593999997E+02  0.45594000000E+02  0.51100000000E-03 0. -1.
         11   -1    0    0    0    0 -0.00000000000E+00 -0.00000000000E+00 -0.45593999997E+02  0.45594000000E+02  0.51100000000E-03 0.  1.
    9900012    2    1    2    0    0  0.25862014109E+02 -0.34573123150E+02 -0.44135977704E+01  0.47787257340E+02  0.19999937517E+02 0.  0.
        -12    1    1    2    0    0 -0.25862014109E+02  0.34573123150E+02  0.44135977704E+01  0.43400742660E+02  0.00000000000E+00 0.  1.
         11    1    3    3    0    0  0.19706658538E+02 -0.11811929695E+02  0.13192333679E+01  0.23013353750E+02  0.51100000000E-03 0. -1.
        -11    1    3    3    0    0 -0.63781696688E+00 -0.56471306692E+01 -0.15762816029E+01  0.58975892728E+01  0.51100000000E-03 0.  1.
         12    1    3    3    0    0  0.67931725375E+01 -0.17114062786E+02 -0.41565495354E+01  0.18876314318E+02  0.00000000000E+00 0. -1.
</event>
<event>
 7    1  0.2714068E-010  0.4778727E+02  0.7816164E-02  0.1312668E+00
        -11   -1    0    0    0    0  0.00000000000E+00  0.00000000000E+00  0.45593999997E+02  0.45594000000E+02  0.51100000000E-03 0. -1.
         11   -1    0    0    0    0 -0.00000000000E+00 -0.00000000000E+00 -0.45593999997E+02  0.45594000000E+02  0.51100000000E-03 0.  1.
    9900012    2    1    2    0    0  0.97130401549E+01  0.38918372698E+02  0.16572272822E+02  0.47787272944E+02  0.20000008660E+02 0.  0.
        -12    1    1    2    0    0 -0.97130401549E+01 -0.38918372698E+02 -0.16572272822E+02  0.43400727056E+02  0.00000000000E+00 0.  1.
         11    1    3    3    0    0 -0.46342071439E+01  0.48445548241E+01  0.67553654041E+00  0.67380959606E+01  0.51100000000E-03 0.  1.
        -11    1    3    3    0    0  0.11896095104E+02  0.19520931675E+02  0.11837857415E+02  0.25743323807E+02  0.51100000000E-03 0. -1.
         12    1    3    3    0    0  0.24511521947E+01  0.14552886199E+02  0.40588788660E+01  0.15305853176E+02  0.00000000000E+00 0. -1.
</event>
<event>
 7    1  0.2714068E-010  0.4778727E+02  0.7816164E-02  0.1312668E+00
        -11   -1    0    0    0    0  0.00000000000E+00  0.00000000000E+00  0.45593999997E+02  0.45594000000E+02  0.51100000000E-03 0.  1.
         11   -1    0    0    0    0 -0.00000000000E+00 -0.00000000000E+00 -0.45593999997E+02  0.45594000000E+02  0.51100000000E-03 0. -1.
    9900012    2    1    2    0    0 -0.14067522514E+02 -0.54891596572E+01 -0.40689034726E+02  0.47787267168E+02  0.19999982325E+02 0.  0.
        -12    1    1    2    0    0  0.14067522514E+02  0.54891596572E+01  0.40689034726E+02  0.43400732832E+02  0.00000000000E+00 0.  1.
         11    1    3    3    0    0 -0.24873193112E+01  0.34055260552E+01 -0.38097530607E+01  0.56831842934E+01  0.51100000000E-03 0. -1.
        -11    1    3    3    0    0 -0.89855760737E+01 -0.12787873098E+02 -0.27923669125E+02  0.32000024585E+02  0.51100000000E-03 0.  1.
        -12    1    3    3    0    0 -0.25946271289E+01  0.38931873852E+01 -0.89556125401E+01  0.10104058290E+02  0.00000000000E+00 0.  1.
</event>
<event>
 7    1  0.2714068E-010  0.4778727E+02  0.7816164E-02  0.1312668E+00
        -11   -1    0    0    0    0  0.00000000000E+00  0.00000000000E+00  0.45593999997E+02  0.45594000000E+02  0.51100000000E-03 0.  1.
         11   -1    0    0    0    0 -0.00000000000E+00 -0.00000000000E+00 -0.45593999997E+02  0.45594000000E+02  0.51100000000E-03 0. -1.
    9900012    2    1    2    0    0  0.26864581791E+02 -0.15162450874E+02 -0.30528960884E+02  0.47787272772E+02  0.20000007875E+02 0.  0.
        -12    1    1    2    0    0 -0.26864581791E+02  0.15162450874E+02  0.30528960884E+02  0.43400727228E+02  0.00000000000E+00 0.  1.
         11    1    3    3    0    0  0.13586100356E+02  0.23723761209E+01 -0.13713767702E+02  0.19449362873E+02  0.51100000000E-03 0. -1.
        -11    1    3    3    0    0  0.93429292658E+01 -0.12400226157E+02 -0.15070593243E+02  0.21637437856E+02  0.51100000000E-03 0.  1.
        -12    1    3    3    0    0  0.39355521699E+01 -0.51346008377E+01 -0.17445999382E+01  0.67004720422E+01  0.00000000000E+00 0.  1.
</event>
<event>
 7    1 -0.6109128E-010  0.4778727E+02  0.7816164E-02  0.1312668E+00
        -11   -1    0    0    0    0  0.00000000000E+00  0.00000000000E+00  0.45593999997E+02  0.45594000000E+02  0.51100000000E-03 0.  1.
         11   -1    0    0    0    0 -0.00000000000E+00 -0.00000000000E+00 -0.45593999997E+02  0.45594000000E+02  0.51100000000E-03 0. -1.
    9900012    2    1    2    0    0  0.37785203698E+02  0.15429049320E+02 -0.14759608194E+02  0.47787271717E+02  0.20000003067E+02 0.  0.
        -12    1    1    2    0    0 -0.37785203698E+02 -0.15429049320E+02  0.14759608194E+02  0.43400728283E+02  0.00000000000E+00 0.  1.
         11    1    3    3    0    0  0.34122888468E+01  0.67086440668E+01  0.15896948570E+01  0.76926426142E+01  0.51100000000E-03 0. -1.
        -11    1    3    3    0    0  0.58476068664E+01  0.26355129424E+01 -0.69336674693E+01  0.94454316666E+01  0.51100000000E-03 0.  1.
         12    1    3    3    0    0  0.28525307985E+02  0.60848923112E+01 -0.94156355817E+01  0.30649197436E+02  0.00000000000E+00 0. -1.
</event>
<event>
 7    1  0.2714068E-010  0.4778727E+02  0.7816164E-02  0.1312668E+00
        -11   -1    0    0    0    0  0.00000000000E+00  0.00000000000E+00  0.45593999997E+02  0.45594000000E+02  0.51100000000E-03 0.  1.
         11   -1    0    0    0    0 -0.00000000000E+00 -0.00000000000E+00 -0.45593999997E+02  0.45594000000E+02  0.51100000000E-03 0. -1.
    9900012    2    1    2    0    0  0.18793180613E+02 -0.12382883935E+02 -0.37109350087E+02  0.47787270559E+02  0.19999997787E+02 0.  0.
        -12    1    1    2    0    0 -0.18793180613E+02  0.12382883935E+02  0.37109350087E+02  0.43400729441E+02  0.00000000000E+00 0.  1.
         11    1    3    3    0    0  0.13533740031E+02 -0.19244832515E+01 -0.30635777191E+02  0.33547229385E+02  0.51100000000E-03 0. -1.
        -11    1    3    3    0    0  0.50069807359E+01 -0.78716973488E+01 -0.28004731221E+01  0.97404376293E+01  0.51100000000E-03 0.  1.
        -12    1    3    3    0    0  0.25245984624E+00 -0.25867033346E+01 -0.36730997736E+01  0.44996035450E+01  0.00000000000E+00 0.  1.
</event>
<event>
 7    1  0.2714068E-010  0.4778727E+02  0.7816164E-02  0.1312668E+00
        -11   -1    0    0    0    0  0.00000000000E+00  0.00000000000E+00  0.45593999997E+02  0.45594000000E+02  0.51100000000E-03 0.  1.
         11   -1    0    0    0    0 -0.00000000000E+00 -0.00000000000E+00 -0.45593999997E+02  0.45594000000E+02  0.51100000000E-03 0. -1.
    9900012    2    1    2    0    0  0.31732858805E+02  0.27125447541E+02 -0.11868405579E+02  0.47787270936E+02  0.19999999507E+02 0.  0.
        -12    1    1    2    0    0 -0.31732858805E+02 -0.27125447541E+02  0.11868405579E+02  0.43400729064E+02  0.00000000000E+00 0.  1.
         11    1    3    3    0    0  0.17867832000E+02  0.22937026728E+02 -0.10951746403E+02  0.31069395956E+02  0.51100000000E-03 0. -1.
        -11    1    3    3    0    0  0.14856195820E+02  0.46731871964E+01 -0.10347924793E+01  0.15608203886E+02  0.51100000000E-03 0.  1.
         12    1    3    3    0    0 -0.99116901497E+00 -0.48476638290E+00  0.11813330276E+00  0.11096710952E+01  0.00000000000E+00 0. -1.
</event>
<event>
 7    1  0.2714068E-010  0.4778727E+02  0.7816164E-02  0.1312668E+00
        -11   -1    0    0    0    0  0.00000000000E+00  0.00000000000E+00  0.45593999997E+02  0.45594000000E+02  0.51100000000E-03 0.  1.
         11   -1    0    0    0    0 -0.00000000000E+00 -0.00000000000E+00 -0.45593999997E+02  0.45594000000E+02  0.51100000000E-03 0. -1.
    9900012    2    1    2    0    0  0.37606318234E+02 -0.17766840757E+02  0.12398676775E+02  0.47787274345E+02  0.20000015049E+02 0.  0.
        -12    1    1    2    0    0 -0.37606318234E+02  0.17766840757E+02 -0.12398676775E+02  0.43400725655E+02  0.00000000000E+00 0.  1.
         11    1    3    3    0    0  0.23419584174E+02 -0.16171977899E+02  0.15547154464E+02  0.32430291461E+02  0.51100000000E-03 0. -1.
        -11    1    3    3    0    0  0.71347084051E+01  0.93775708037E+00 -0.31714399378E+01  0.78639356500E+01  0.51100000000E-03 0.  1.
         12    1    3    3    0    0  0.70520256549E+01 -0.25326199385E+01  0.22962248627E-01  0.74930472342E+01  0.00000000000E+00 0. -1.
</event>
<event>
 7    1  0.2714068E-010  0.4778727E+02  0.7816164E-02  0.1312668E+00
        -11   -1    0    0    0    0  0.00000000000E+00  0.00000000000E+00  0.45593999997E+02  0.45594000000E+02  0.51100000000E-03 0.  1.
         11   -1    0    0    0    0 -0.00000000000E+00 -0.00000000000E+00 -0.45593999997E+02  0.45594000000E+02  0.51100000000E-03 0. -1.
    9900012    2    1    2    0    0 -0.23524966882E+02 -0.10679897766E+02 -0.34873189852E+02  0.47787266670E+02  0.19999980055E+02 0.  0.
        -12    1    1    2    0    0  0.23524966882E+02  0.10679897766E+02  0.34873189852E+02  0.43400733330E+02  0.00000000000E+00 0.  1.
         11    1    3    3    0    0 -0.13478526763E+02 -0.62627505001E+01 -0.27667222109E+02  0.31406494663E+02  0.51100000000E-03 0. -1.
        -11    1    3    3    0    0 -0.66628579873E+01  0.15746974725E+01 -0.65388641437E+01  0.94673171089E+01  0.51100000000E-03 0.  1.
         12    1    3    3    0    0 -0.33835821319E+01 -0.59918447388E+01 -0.66710359958E+00  0.69134548982E+01  0.00000000000E+00 0. -1.
</event>
<event>
 7    1  0.2714068E-010  0.4778727E+02  0.7816164E-02  0.1312668E+00
        -11   -1    0    0    0    0  0.00000000000E+00  0.00000000000E+00  0.45593999997E+02  0.45594000000E+02  0.51100000000E-03 0.  1.
         11   -1    0    0    0    0 -0.00000000000E+00 -0.00000000000E+00 -0.45593999997E+02  0.45594000000E+02  0.51100000000E-03 0. -1.
    9900012    2    1    2    0    0 -0.40220818746E+02 -0.14902380948E+01 -0.16238487153E+02  0.47787268034E+02  0.19999986274E+02 0.  0.
        -12    1    1    2    0    0  0.40220818746E+02  0.14902380948E+01  0.16238487153E+02  0.43400731966E+02  0.00000000000E+00 0.  1.
         11    1    3    3    0    0 -0.15384843950E+02  0.58136445365E-01 -0.10609913358E+02  0.18688688154E+02  0.51100000000E-03 0. -1.
        -11    1    3    3    0    0 -0.33213793399E+01  0.26393214342E+01  0.33569653944E+01  0.54098794139E+01  0.51100000000E-03 0.  1.
        -12    1    3    3    0    0 -0.21514595456E+02 -0.41876959744E+01 -0.89855391896E+01  0.23688700466E+02  0.00000000000E+00 0.  1.
</event>
<event>
 7    1  0.2714068E-010  0.4778727E+02  0.7816164E-02  0.1312668E+00
        -11   -1    0    0    0    0  0.00000000000E+00  0.00000000000E+00  0.45593999997E+02  0.45594000000E+02  0.51100000000E-03 0. -1.
         11   -1    0    0    0    0 -0.00000000000E+00 -0.00000000000E+00 -0.45593999997E+02  0.45594000000E+02  0.51100000000E-03 0.  1.
    9900012    2    1    2    0    0  0.41998858562E+02 -0.61542770389E+01  0.90467937616E+01  0.47787265862E+02  0.19999976371E+02 0.  0.
        -12    1    1    2    0    0 -0.41998858562E+02  0.61542770389E+01 -0.90467937616E+01  0.43400734138E+02  0.00000000000E+00 0.  1.
         11    1    3    3    0    0  0.24416985141E+01 -0.84561050572E+00  0.48231887473E+01  0.54717546285E+01  0.51100000000E-03 0. -1.
        -11    1    3    3    0    0  0.30368348295E+02 -0.32390952255E+01 -0.26497082191E+01  0.30655330204E+02  0.51100000000E-03 0.  1.
        -12    1    3    3    0    0  0.91888117528E+01 -0.20695713077E+01  0.68733132334E+01  0.11660181029E+02  0.00000000000E+00 0.  1.
</event>
<event>
 7    1  0.2714068E-010  0.4778728E+02  0.7816164E-02  0.1312668E+00
        -11   -1    0    0    0    0  0.00000000000E+00  0.00000000000E+00  0.45593999997E+02  0.45594000000E+02  0.51100000000E-03 0.  1.
         11   -1    0    0    0    0 -0.00000000000E+00 -0.00000000000E+00 -0.45593999997E+02  0.45594000000E+02  0.51100000000E-03 0. -1.
    9900012    2    1    2    0    0 -0.18967215588E+02  0.28927856286E+02 -0.26211576472E+02  0.47787275610E+02  0.20000020815E+02 0.  0.
        -12    1    1    2    0    0  0.18967215588E+02 -0.28927856286E+02  0.26211576472E+02  0.43400724390E+02  0.00000000000E+00 0.  1.
         11    1    3    3    0    0 -0.12366305023E+02  0.28383798784E+02 -0.25427725270E+02  0.40064132912E+02  0.51100000000E-03 0. -1.
        -11    1    3    3    0    0 -0.16151787258E+01  0.95464058993E+00  0.13222036107E+01  0.22952916202E+01  0.51100000000E-03 0.  1.
         12    1    3    3    0    0 -0.49857318396E+01 -0.41058308805E+00 -0.21060548129E+01  0.54278510779E+01  0.00000000000E+00 0. -1.
</event>
<event>
 7    1  0.2714068E-010  0.4778723E+02  0.7816164E-02  0.1312668E+00
        -11   -1    0    0    0    0  0.00000000000E+00  0.00000000000E+00  0.45593999997E+02  0.45594000000E+02  0.51100000000E-03 0. -1.
         11   -1    0    0    0    0 -0.00000000000E+00 -0.00000000000E+00 -0.45593999997E+02  0.45594000000E+02  0.51100000000E-03 0.  1.
    9900012    2    1    2    0    0  0.42073175053E+02 -0.11553705338E+01  0.10589599668E+02  0.47787233172E+02  0.19999827326E+02 0.  0.
        -12    1    1    2    0    0 -0.42073175053E+02  0.11553705338E+01 -0.10589599668E+02  0.43400766828E+02  0.00000000000E+00 0.  1.
         11    1    3    3    0    0  0.25274440203E+02 -0.91660092366E+01  0.11040737631E+02  0.29063911309E+02  0.51100000000E-03 0. -1.
        -11    1    3    3    0    0  0.49127121101E+00  0.21145242326E+00 -0.36333652282E+00  0.64658581797E+00  0.51100000000E-03 0.  1.
         12    1    3    3    0    0  0.16307463639E+02  0.77991862796E+01 -0.87801440194E-01  0.18076736046E+02  0.00000000000E+00 0. -1.
</event>
<event>
 7    1  0.2714068E-010  0.4778727E+02  0.7816164E-02  0.1312668E+00
        -11   -1    0    0    0    0  0.00000000000E+00  0.00000000000E+00  0.45593999997E+02  0.45594000000E+02  0.51100000000E-03 0.  1.
         11   -1    0    0    0    0 -0.00000000000E+00 -0.00000000000E+00 -0.45593999997E+02  0.45594000000E+02  0.51100000000E-03 0. -1.
    9900012    2    1    2    0    0 -0.30221480276E+02  0.22503250313E+02 -0.21538089296E+02  0.47787269186E+02  0.19999991527E+02 0.  0.
        -12    1    1    2    0    0  0.30221480276E+02 -0.22503250313E+02  0.21538089296E+02  0.43400730814E+02  0.00000000000E+00 0.  1.
         11    1    3    3    0    0 -0.47266279018E+01  0.39355824529E+01 -0.10985001706E+02  0.12589681621E+02  0.51100000000E-03 0. -1.
        -11    1    3    3    0    0 -0.26403222094E+02  0.16452944573E+02 -0.88810427782E+01  0.32352781073E+02  0.51100000000E-03 0.  1.
        -12    1    3    3    0    0  0.90836972024E+00  0.21147232864E+01 -0.16720448116E+01  0.28448064923E+01  0.00000000000E+00 0.  1.
</event>
<event>
 7    1  0.2714068E-010  0.4778726E+02  0.7816164E-02  0.1312668E+00
        -11   -1    0    0    0    0  0.00000000000E+00  0.00000000000E+00  0.45593999997E+02  0.45594000000E+02  0.51100000000E-03 0.  1.
         11   -1    0    0    0    0 -0.00000000000E+00 -0.00000000000E+00 -0.45593999997E+02  0.45594000000E+02  0.51100000000E-03 0. -1.
    9900012    2    1    2    0    0  0.30194240424E+02  0.20114044746E+02 -0.23819266748E+02  0.47787257849E+02  0.19999939838E+02 0.  0.
        -12    1    1    2    0    0 -0.30194240424E+02 -0.20114044746E+02  0.23819266748E+02  0.43400742151E+02  0.00000000000E+00 0.  1.
         11    1    3    3    0    0  0.15022234514E+02 -0.46531002819E+00 -0.91163116114E+01  0.17578144979E+02  0.51100000000E-03 0. -1.
        -11    1    3    3    0    0  0.23717168736E+01  0.79902292565E+01 -0.34515238303E+01  0.90211873671E+01  0.51100000000E-03 0.  1.
         12    1    3    3    0    0  0.12800289036E+02  0.12589125518E+02 -0.11251431306E+02  0.21187925504E+02  0.00000000000E+00 0. -1.
</event>
<event>
 7    1  0.2714068E-010  0.4778727E+02  0.7816164E-02  0.1312668E+00
        -11   -1    0    0    0    0  0.00000000000E+00  0.00000000000E+00  0.45593999997E+02  0.45594000000E+02  0.51100000000E-03 0.  1.
         11   -1    0    0    0    0 -0.00000000000E+00 -0.00000000000E+00 -0.45593999997E+02  0.45594000000E+02  0.51100000000E-03 0. -1.
    9900012    2    1    2    0    0  0.43042178882E+02 -0.50355501242E+01 -0.23743000282E+01  0.47787271566E+02  0.20000002378E+02 0.  0.
        -12    1    1    2    0    0 -0.43042178882E+02  0.50355501242E+01  0.23743000282E+01  0.43400728434E+02  0.00000000000E+00 0.  1.
         11    1    3    3    0    0  0.57885015734E+01 -0.18838245398E+01 -0.67560013316E+01  0.90939045308E+01  0.51100000000E-03 0. -1.
        -11    1    3    3    0    0  0.15994879175E+02 -0.27929312319E+01  0.61398236971E+01  0.17358976352E+02  0.51100000000E-03 0.  1.
        -12    1    3    3    0    0  0.21258798134E+02 -0.35879435241E+00 -0.17581223937E+01  0.21334390683E+02  0.00000000000E+00 0.  1.
</event>
<event>
 7    1  0.2714068E-010  0.4778727E+02  0.7816164E-02  0.1312668E+00
        -11   -1    0    0    0    0  0.00000000000E+00  0.00000000000E+00  0.45593999997E+02  0.45594000000E+02  0.51100000000E-03 0.  1.
         11   -1    0    0    0    0 -0.00000000000E+00 -0.00000000000E+00 -0.45593999997E+02  0.45594000000E+02  0.51100000000E-03 0. -1.
    9900012    2    1    2    0    0  0.30178828465E+02  0.14503330726E+02 -0.27613672373E+02  0.47787271992E+02  0.20000004321E+02 0.  0.
        -12    1    1    2    0    0 -0.30178828465E+02 -0.14503330726E+02  0.27613672373E+02  0.43400728008E+02  0.00000000000E+00 0.  1.
         11    1    3    3    0    0  0.44779864188E+01  0.11108259657E+02 -0.81449963029E+01  0.14484017399E+02  0.51100000000E-03 0.  1.
        -11    1    3    3    0    0  0.18889976097E+02  0.56323459971E+01 -0.12734394222E+02  0.23467409632E+02  0.51100000000E-03 0. -1.
         12    1    3    3    0    0  0.68108659495E+01 -0.22372749285E+01 -0.67342818487E+01  0.98358449614E+01  0.00000000000E+00 0. -1.
</event>
<event>
 7    1  0.2714068E-010  0.4778727E+02  0.7816164E-02  0.1312668E+00
        -11   -1    0    0    0    0  0.00000000000E+00  0.00000000000E+00  0.45593999997E+02  0.45594000000E+02  0.51100000000E-03 0.  1.
         11   -1    0    0    0    0 -0.00000000000E+00 -0.00000000000E+00 -0.45593999997E+02  0.45594000000E+02  0.51100000000E-03 0. -1.
    9900012    2    1    2    0    0 -0.41191427510E+02 -0.13646643633E+02  0.81158609131E+00  0.47787271265E+02  0.20000001006E+02 0.  0.
        -12    1    1    2    0    0  0.41191427510E+02  0.13646643633E+02 -0.81158609131E+00  0.43400728735E+02  0.00000000000E+00 0.  1.
         11    1    3    3    0    0  0.14814592866E-01 -0.12482406241E+01  0.77431079982E-01  0.12507277726E+01  0.51100000000E-03 0.  1.
        -11    1    3    3    0    0 -0.25610102084E+02 -0.15397150619E+02  0.44872532350E+01  0.30217296666E+02  0.51100000000E-03 0. -1.
        -12    1    3    3    0    0 -0.15596140018E+02  0.29987476105E+01 -0.37530982237E+01  0.16319246826E+02  0.00000000000E+00 0.  1.
</event>
<event>
 7    1  0.2714068E-010  0.4778727E+02  0.7816164E-02  0.1312668E+00
        -11   -1    0    0    0    0  0.00000000000E+00  0.00000000000E+00  0.45593999997E+02  0.45594000000E+02  0.51100000000E-03 0.  1.
         11   -1    0    0    0    0 -0.00000000000E+00 -0.00000000000E+00 -0.45593999997E+02  0.45594000000E+02  0.51100000000E-03 0. -1.
    9900012    2    1    2    0    0  0.61936935200E+01 -0.42128539258E+02 -0.83933121228E+01  0.47787270192E+02  0.19999996114E+02 0.  0.
        -12    1    1    2    0    0 -0.61936935200E+01  0.42128539258E+02  0.83933121228E+01  0.43400729808E+02  0.00000000000E+00 0.  1.
         11    1    3    3    0    0  0.10674250907E+02 -0.15432135842E+02 -0.65868449718E+01  0.19886602928E+02  0.51100000000E-03 0. -1.
        -11    1    3    3    0    0 -0.25550742241E+01 -0.14394927112E+02  0.22785548261E+01  0.14796423325E+02  0.51100000000E-03 0.  1.
        -12    1    3    3    0    0 -0.19254831626E+01 -0.12301476305E+02 -0.40850219771E+01  0.13104243940E+02  0.00000000000E+00 0.  1.
</event>
<event>
 7    1  0.2714068E-010  0.4778727E+02  0.7816164E-02  0.1312668E+00
        -11   -1    0    0    0    0  0.00000000000E+00  0.00000000000E+00  0.45593999997E+02  0.45594000000E+02  0.51100000000E-03 0. -1.
         11   -1    0    0    0    0 -0.00000000000E+00 -0.00000000000E+00 -0.45593999997E+02  0.45594000000E+02  0.51100000000E-03 0.  1.
    9900012    2    1    2    0    0  0.25120283788E+02  0.33583973003E+02  0.11167424644E+02  0.47787271049E+02  0.20000000023E+02 0.  0.
        -12    1    1    2    0    0 -0.25120283788E+02 -0.33583973003E+02 -0.11167424644E+02  0.43400728951E+02  0.00000000000E+00 0.  1.
         11    1    3    3    0    0  0.18183374394E+02  0.11394425325E+02  0.81238168362E+01  0.22944812770E+02  0.51100000000E-03 0.  1.
        -11    1    3    3    0    0 -0.11941659404E+01  0.81559077630E+01  0.25025738785E+01  0.86143914474E+01  0.51100000000E-03 0. -1.
        -12    1    3    3    0    0  0.81310753344E+01  0.14033639916E+02  0.54103392890E+00  0.16228066832E+02  0.00000000000E+00 0.  1.
</event>
<event>
 7    1  0.2714068E-010  0.4778727E+02  0.7816164E-02  0.1312668E+00
        -11   -1    0    0    0    0  0.00000000000E+00  0.00000000000E+00  0.45593999997E+02  0.45594000000E+02  0.51100000000E-03 0.  1.
         11   -1    0    0    0    0 -0.00000000000E+00 -0.00000000000E+00 -0.45593999997E+02  0.45594000000E+02  0.51100000000E-03 0. -1.
    9900012    2    1    2    0    0 -0.24051583656E+02  0.30951953477E+01 -0.35993949336E+02  0.47787270750E+02  0.19999998659E+02 0.  0.
        -12    1    1    2    0    0  0.24051583656E+02 -0.30951953477E+01  0.35993949336E+02  0.43400729250E+02  0.00000000000E+00 0.  1.
         11    1    3    3    0    0 -0.74906399188E+01  0.68850362568E+01 -0.52728298226E+01  0.11459325689E+02  0.51100000000E-03 0. -1.
        -11    1    3    3    0    0 -0.16339912049E+02 -0.28483085072E+01 -0.31133897614E+02  0.35276410929E+02  0.51100000000E-03 0.  1.
        -12    1    3    3    0    0 -0.22103168890E+00 -0.94153240189E+00  0.41277810076E+00  0.10515341325E+01  0.00000000000E+00 0.  1.
</event>
<event>
 7    1  0.2714068E-010  0.4778728E+02  0.7816164E-02  0.1312668E+00
        -11   -1    0    0    0    0  0.00000000000E+00  0.00000000000E+00  0.45593999997E+02  0.45594000000E+02  0.51100000000E-03 0.  1.
         11   -1    0    0    0    0 -0.00000000000E+00 -0.00000000000E+00 -0.45593999997E+02  0.45594000000E+02  0.51100000000E-03 0. -1.
    9900012    2    1    2    0    0 -0.96872572896E+01  0.34498566656E+02 -0.24487319991E+02  0.47787275404E+02  0.20000019876E+02 0.  0.
        -12    1    1    2    0    0  0.96872572896E+01 -0.34498566656E+02  0.24487319991E+02  0.43400724596E+02  0.00000000000E+00 0.  1.
         11    1    3    3    0    0 -0.99777297142E+00  0.28426334002E+02 -0.11264584608E+02  0.30593183593E+02  0.51100000000E-03 0. -1.
        -11    1    3    3    0    0 -0.87360039826E+01  0.53163275408E+01 -0.12149240314E+02  0.15880338302E+02  0.51100000000E-03 0.  1.
         12    1    3    3    0    0  0.46519664379E-01  0.75590511306E+00 -0.10734950686E+01  0.13137535087E+01  0.00000000000E+00 0. -1.
</event>
<event>
 7    1  0.2714068E-010  0.4778727E+02  0.7816164E-02  0.1312668E+00
        -11   -1    0    0    0    0  0.00000000000E+00  0.00000000000E+00  0.45593999997E+02  0.45594000000E+02  0.51100000000E-03 0.  1.
         11   -1    0    0    0    0 -0.00000000000E+00 -0.00000000000E+00 -0.45593999997E+02  0.45594000000E+02  0.51100000000E-03 0. -1.
    9900012    2    1    2    0    0  0.12665291183E+02  0.25458423570E+02 -0.32788451894E+02  0.47787268335E+02  0.19999987647E+02 0.  0.
        -12    1    1    2    0    0 -0.12665291183E+02 -0.25458423570E+02  0.32788451894E+02  0.43400731665E+02  0.00000000000E+00 0.  1.
         11    1    3    3    0    0  0.95800482458E+01  0.12843712121E+02 -0.22910964025E+02  0.27958013846E+02  0.51100000000E-03 0. -1.
        -11    1    3    3    0    0  0.44315962234E+01  0.73628890539E+01 -0.36640530786E-01  0.85937490711E+01  0.51100000000E-03 0.  1.
        -12    1    3    3    0    0 -0.13463532860E+01  0.52518223959E+01 -0.98408473388E+01  0.11235505418E+02  0.00000000000E+00 0.  1.
</event>
<event>
 7    1  0.2714068E-010  0.4778727E+02  0.7816164E-02  0.1312668E+00
        -11   -1    0    0    0    0  0.00000000000E+00  0.00000000000E+00  0.45593999997E+02  0.45594000000E+02  0.51100000000E-03 0. -1.
         11   -1    0    0    0    0 -0.00000000000E+00 -0.00000000000E+00 -0.45593999997E+02  0.45594000000E+02  0.51100000000E-03 0.  1.
    9900012    2    1    2    0    0 -0.67005009384E+01  0.30461311549E+02  0.30180041702E+02  0.47787272687E+02  0.20000007491E+02 0.  0.
        -12    1    1    2    0    0  0.67005009384E+01 -0.30461311549E+02 -0.30180041702E+02  0.43400727313E+02  0.00000000000E+00 0.  1.
         11    1    3    3    0    0 -0.73236361727E+01  0.10411040411E+02  0.12041358885E+02  0.17521978578E+02  0.51100000000E-03 0. -1.
        -11    1    3    3    0    0  0.30839333634E+01  0.17702965848E+02  0.81834937492E+01  0.19745258039E+02  0.51100000000E-03 0.  1.
        -12    1    3    3    0    0 -0.24607981291E+01  0.23473052903E+01  0.99551890674E+01  0.10520036071E+02  0.00000000000E+00 0.  1.
</event>
<event>
 7    1  0.2714068E-010  0.4778727E+02  0.7816164E-02  0.1312668E+00
        -11   -1    0    0    0    0  0.00000000000E+00  0.00000000000E+00  0.45593999997E+02  0.45594000000E+02  0.51100000000E-03 0.  1.
         11   -1    0    0    0    0 -0.00000000000E+00 -0.00000000000E+00 -0.45593999997E+02  0.45594000000E+02  0.51100000000E-03 0. -1.
    9900012    2    1    2    0    0 -0.14525360959E+02  0.33376133665E+02  0.23636225642E+02  0.47787267610E+02  0.19999984341E+02 0.  0.
        -12    1    1    2    0    0  0.14525360959E+02 -0.33376133665E+02 -0.23636225642E+02  0.43400732390E+02  0.00000000000E+00 0.  1.
         11    1    3    3    0    0 -0.16366170286E+02  0.21048352536E+02  0.11548867392E+02  0.29056169958E+02  0.51100000000E-03 0. -1.
        -11    1    3    3    0    0 -0.19392149029E+01  0.21424531066E+01  0.49513703862E+01  0.57329511350E+01  0.51100000000E-03 0.  1.
         12    1    3    3    0    0  0.37800242301E+01  0.10185328022E+02  0.71359878637E+01  0.12998146517E+02  0.00000000000E+00 0. -1.
</event>
<event>
 7    1  0.2714068E-010  0.4778729E+02  0.7816164E-02  0.1312668E+00
        -11   -1    0    0    0    0  0.00000000000E+00  0.00000000000E+00  0.45593999997E+02  0.45594000000E+02  0.51100000000E-03 0.  1.
         11   -1    0    0    0    0 -0.00000000000E+00 -0.00000000000E+00 -0.45593999997E+02  0.45594000000E+02  0.51100000000E-03 0. -1.
    9900012    2    1    2    0    0 -0.27697957957E+02  0.50186334197E+01 -0.33034197021E+02  0.47787288840E+02  0.20000081137E+02 0.  0.
        -12    1    1    2    0    0  0.27697957957E+02 -0.50186334197E+01  0.33034197021E+02  0.43400711160E+02  0.00000000000E+00 0.  1.
         11    1    3    3    0    0 -0.18942099750E+02  0.41906960578E+01 -0.31292782943E+02  0.36818518994E+02  0.51100000000E-03 0. -1.
        -11    1    3    3    0    0 -0.94794809959E+01  0.66532531923E+00 -0.25824256778E+01  0.98474433420E+01  0.51100000000E-03 0.  1.
        -12    1    3    3    0    0  0.72362278903E+00  0.16261204265E+00  0.84101159962E+00  0.11213265037E+01  0.00000000000E+00 0.  1.
</event>
<event>
 7    1  0.2714068E-010  0.4778727E+02  0.7816164E-02  0.1312668E+00
        -11   -1    0    0    0    0  0.00000000000E+00  0.00000000000E+00  0.45593999997E+02  0.45594000000E+02  0.51100000000E-03 0.  1.
         11   -1    0    0    0    0 -0.00000000000E+00 -0.00000000000E+00 -0.45593999997E+02  0.45594000000E+02  0.51100000000E-03 0. -1.
    9900012    2    1    2    0    0  0.24126986779E+02 -0.29607393109E+02 -0.20613447564E+02  0.47787269151E+02  0.19999991366E+02 0.  0.
        -12    1    1    2    0    0 -0.24126986779E+02  0.29607393109E+02  0.20613447564E+02  0.43400730849E+02  0.00000000000E+00 0.  1.
         11    1    3    3    0    0  0.13437777660E+02 -0.79047477779E+01 -0.60057876313E+01  0.16707135936E+02  0.51100000000E-03 0. -1.
        -11    1    3    3    0    0 -0.17791692043E+01 -0.10309657931E+02 -0.67625908035E+01  0.12457412426E+02  0.51100000000E-03 0.  1.
        -12    1    3    3    0    0  0.12468378324E+02 -0.11392987401E+02 -0.78450691297E+01  0.18622720789E+02  0.00000000000E+00 0.  1.
</event>
<event>
 7    1  0.2714068E-010  0.4778727E+02  0.7816164E-02  0.1312668E+00
        -11   -1    0    0    0    0  0.00000000000E+00  0.00000000000E+00  0.45593999997E+02  0.45594000000E+02  0.51100000000E-03 0.  1.
         11   -1    0    0    0    0 -0.00000000000E+00 -0.00000000000E+00 -0.45593999997E+02  0.45594000000E+02  0.51100000000E-03 0. -1.
    9900012    2    1    2    0    0 -0.73396080418E+01 -0.39859617516E+01 -0.42589500357E+02  0.47787270998E+02  0.19999999786E+02 0.  0.
        -12    1    1    2    0    0  0.73396080418E+01  0.39859617516E+01  0.42589500357E+02  0.43400729002E+02  0.00000000000E+00 0.  1.
         11    1    3    3    0    0 -0.72330727069E+01  0.13129388128E+00 -0.31908782833E+02  0.32718572723E+02  0.51100000000E-03 0. -1.
        -11    1    3    3    0    0  0.14211657564E+01  0.29541089357E+01 -0.23403073820E+01  0.40278419302E+01  0.51100000000E-03 0.  1.
         12    1    3    3    0    0 -0.15277010912E+01 -0.70713645686E+01 -0.83404101419E+01  0.11040856345E+02  0.00000000000E+00 0. -1.
</event>
<event>
 7    1  0.2714068E-010  0.4778727E+02  0.7816164E-02  0.1312668E+00
        -11   -1    0    0    0    0  0.00000000000E+00  0.00000000000E+00  0.45593999997E+02  0.45594000000E+02  0.51100000000E-03 0.  1.
         11   -1    0    0    0    0 -0.00000000000E+00 -0.00000000000E+00 -0.45593999997E+02  0.45594000000E+02  0.51100000000E-03 0. -1.
    9900012    2    1    2    0    0 -0.25622109784E+02 -0.33562830246E+02  0.10033324459E+02  0.47787266324E+02  0.19999978477E+02 0.  0.
        -12    1    1    2    0    0  0.25622109784E+02  0.33562830246E+02 -0.10033324459E+02  0.43400733676E+02  0.00000000000E+00 0.  1.
         11    1    3    3    0    0 -0.15629665146E+02 -0.23011859112E+02  0.29594986310E+01  0.27974823052E+02  0.51100000000E-03 0. -1.
        -11    1    3    3    0    0 -0.11142557264E+02 -0.10602555947E+02  0.31196033116E+01  0.15694033900E+02  0.51100000000E-03 0.  1.
         12    1    3    3    0    0  0.11501126261E+01  0.51584811819E-01  0.39542225167E+01  0.41184093722E+01  0.00000000000E+00 0. -1.
</event>
<event>
 7    1  0.3201406E-010  0.4778727E+02  0.7816164E-02  0.1312668E+00
        -11   -1    0    0    0    0  0.00000000000E+00  0.00000000000E+00  0.45593999997E+02  0.45594000000E+02  0.51100000000E-03 0. -1.
         11   -1    0    0    0    0 -0.00000000000E+00 -0.00000000000E+00 -0.45593999997E+02  0.45594000000E+02  0.51100000000E-03 0.  1.
    9900012    2    1    2    0    0 -0.21280147222E+02  0.37799071642E+02 -0.14172125560E+01  0.47787274497E+02  0.20000015740E+02 0.  0.
        -12    1    1    2    0    0  0.21280147222E+02 -0.37799071642E+02  0.14172125560E+01  0.43400725503E+02  0.00000000000E+00 0.  1.
         11    1    3    3    0    0 -0.91891933756E+01  0.16592118686E+02  0.14040838202E+01  0.19018704715E+02  0.51100000000E-03 0. -1.
        -11    1    3    3    0    0 -0.13226443604E+01  0.28359756766E+01  0.51541259507E+01  0.60296899355E+01  0.51100000000E-03 0.  1.
        -12    1    3    3    0    0 -0.10768309486E+02  0.18370977279E+02 -0.79754223268E+01  0.22738879846E+02  0.00000000000E+00 0.  1.
</event>
<event>
 7    1  0.2714068E-010  0.4778728E+02  0.7816164E-02  0.1312668E+00
        -11   -1    0    0    0    0  0.00000000000E+00  0.00000000000E+00  0.45593999997E+02  0.45594000000E+02  0.51100000000E-03 0. -1.
         11   -1    0    0    0    0 -0.00000000000E+00 -0.00000000000E+00 -0.45593999997E+02  0.45594000000E+02  0.51100000000E-03 0.  1.
    9900012    2    1    2    0    0  0.38353262455E+02  0.13021331543E+02  0.15591506002E+02  0.47787275634E+02  0.20000020926E+02 0.  0.
        -12    1    1    2    0    0 -0.38353262455E+02 -0.13021331543E+02 -0.15591506002E+02  0.43400724366E+02  0.00000000000E+00 0.  1.
         11    1    3    3    0    0  0.31863667154E+01  0.16768486403E+01  0.22750037309E+01  0.42591544283E+01  0.51100000000E-03 0. -1.
        -11    1    3    3    0    0  0.20448855862E+02  0.10051920472E+02  0.16846873829E+02  0.28337501113E+02  0.51100000000E-03 0.  1.
        -12    1    3    3    0    0  0.14718039877E+02  0.12925624303E+01 -0.35303715581E+01  0.15190620092E+02  0.00000000000E+00 0.  1.
</event>
<event>
 7    1  0.2714068E-010  0.4778727E+02  0.7816164E-02  0.1312668E+00
        -11   -1    0    0    0    0  0.00000000000E+00  0.00000000000E+00  0.45593999997E+02  0.45594000000E+02  0.51100000000E-03 0.  1.
         11   -1    0    0    0    0 -0.00000000000E+00 -0.00000000000E+00 -0.45593999997E+02  0.45594000000E+02  0.51100000000E-03 0. -1.
    9900012    2    1    2    0    0 -0.14307950545E+01 -0.19841946432E+02 -0.38572962758E+02  0.47787268801E+02  0.19999989770E+02 0.  0.
        -12    1    1    2    0    0  0.14307950545E+01  0.19841946432E+02  0.38572962758E+02  0.43400731199E+02  0.00000000000E+00 0.  1.
         11    1    3    3    0    0 -0.47263154821E+01 -0.17389962515E+02 -0.19391940260E+02  0.26472555631E+02  0.51100000000E-03 0. -1.
        -11    1    3    3    0    0  0.40237935720E+00 -0.33848774762E+01 -0.17524288399E+02  0.17852730570E+02  0.51100000000E-03 0.  1.
         12    1    3    3    0    0  0.28931410704E+01  0.93289355887E+00 -0.16567340989E+01  0.34619825996E+01  0.00000000000E+00 0. -1.
</event>
<event>
 7    1  0.2714068E-010  0.4778727E+02  0.7816164E-02  0.1312668E+00
        -11   -1    0    0    0    0  0.00000000000E+00  0.00000000000E+00  0.45593999997E+02  0.45594000000E+02  0.51100000000E-03 0.  1.
         11   -1    0    0    0    0 -0.00000000000E+00 -0.00000000000E+00 -0.45593999997E+02  0.45594000000E+02  0.51100000000E-03 0. -1.
    9900012    2    1    2    0    0 -0.18988313477E+02 -0.48081142292E+01 -0.38729179011E+02  0.47787270536E+02  0.19999997684E+02 0.  0.
        -12    1    1    2    0    0  0.18988313477E+02  0.48081142292E+01  0.38729179011E+02  0.43400729464E+02  0.00000000000E+00 0.  1.
         11    1    3    3    0    0 -0.13886597149E+02  0.41291456559E+01 -0.31097061457E+02  0.34306189759E+02  0.51100000000E-03 0.  1.
        -11    1    3    3    0    0 -0.52693347054E+01 -0.62092587344E+01 -0.44284248283E+01  0.92699368385E+01  0.51100000000E-03 0. -1.
        -12    1    3    3    0    0  0.16761837786E+00 -0.27280011507E+01 -0.32036927249E+01  0.42111439389E+01  0.00000000000E+00 0.  1.
</event>
<event>
 7    1  0.2714068E-010  0.4778727E+02  0.7816164E-02  0.1312668E+00
        -11   -1    0    0    0    0  0.00000000000E+00  0.00000000000E+00  0.45593999997E+02  0.45594000000E+02  0.51100000000E-03 0.  1.
         11   -1    0    0    0    0 -0.00000000000E+00 -0.00000000000E+00 -0.45593999997E+02  0.45594000000E+02  0.51100000000E-03 0. -1.
    9900012    2    1    2    0    0 -0.69304300004E+00 -0.12232028573E+00 -0.43395025266E+02  0.47787268570E+02  0.19999988717E+02 0.  0.
        -12    1    1    2    0    0  0.69304300004E+00  0.12232028573E+00  0.43395025266E+02  0.43400731430E+02  0.00000000000E+00 0.  1.
         11    1    3    3    0    0  0.31354715425E+01 -0.70622122216E+00 -0.25457443198E+02  0.25659527366E+02  0.51100000000E-03 0. -1.
        -11    1    3    3    0    0 -0.60565019656E+01 -0.44038715735E+01 -0.10044896892E+02  0.12528976604E+02  0.51100000000E-03 0.  1.
        -12    1    3    3    0    0  0.22279874230E+01  0.49877725100E+01 -0.78926851754E+01  0.95987646000E+01  0.00000000000E+00 0.  1.
</event>
<event>
 7    1  0.2714068E-010  0.4778727E+02  0.7816164E-02  0.1312668E+00
        -11   -1    0    0    0    0  0.00000000000E+00  0.00000000000E+00  0.45593999997E+02  0.45594000000E+02  0.51100000000E-03 0.  1.
         11   -1    0    0    0    0 -0.00000000000E+00 -0.00000000000E+00 -0.45593999997E+02  0.45594000000E+02  0.51100000000E-03 0. -1.
    9900012    2    1    2    0    0  0.24493262752E+02  0.41296240248E+01 -0.35590021369E+02  0.47787270330E+02  0.19999996742E+02 0.  0.
        -12    1    1    2    0    0 -0.24493262752E+02 -0.41296240248E+01  0.35590021369E+02  0.43400729670E+02  0.00000000000E+00 0.  1.
         11    1    3    3    0    0  0.12124886795E+02 -0.33981864889E+01 -0.25265391480E+02  0.28229427166E+02  0.51100000000E-03 0. -1.
        -11    1    3    3    0    0  0.57912325728E+01  0.64166998058E+01 -0.94885669512E+01  0.12835315117E+02  0.51100000000E-03 0.  1.
         12    1    3    3    0    0  0.65771433846E+01  0.11111107079E+01 -0.83606293814E+00  0.67225280470E+01  0.00000000000E+00 0. -1.
</event>
<event>
 7    1  0.2714068E-010  0.4778726E+02  0.7816164E-02  0.1312668E+00
        -11   -1    0    0    0    0  0.00000000000E+00  0.00000000000E+00  0.45593999997E+02  0.45594000000E+02  0.51100000000E-03 0.  1.
         11   -1    0    0    0    0 -0.00000000000E+00 -0.00000000000E+00 -0.45593999997E+02  0.45594000000E+02  0.51100000000E-03 0. -1.
    9900012    2    1    2    0    0  0.22574817189E+00  0.21956760345E+02 -0.37436265660E+02  0.47787259526E+02  0.19999947485E+02 0.  0.
        -12    1    1    2    0    0 -0.22574817189E+00 -0.21956760345E+02  0.37436265660E+02  0.43400740474E+02  0.00000000000E+00 0.  1.
         11    1    3    3    0    0  0.12131165215E+01  0.11241739485E+02 -0.45774064456E+01  0.12198401878E+02  0.51100000000E-03 0. -1.
        -11    1    3    3    0    0 -0.11605972640E+00  0.10071421029E+02 -0.32994100418E+02  0.34497212265E+02  0.51100000000E-03 0.  1.
        -12    1    3    3    0    0 -0.87130862321E+00  0.64359983135E+00  0.13524120405E+00  0.10916453834E+01  0.00000000000E+00 0.  1.
</event>
<event>
 7    1  0.2714068E-010  0.4778727E+02  0.7816164E-02  0.1312668E+00
        -11   -1    0    0    0    0  0.00000000000E+00  0.00000000000E+00  0.45593999997E+02  0.45594000000E+02  0.51100000000E-03 0.  1.
         11   -1    0    0    0    0 -0.00000000000E+00 -0.00000000000E+00 -0.45593999997E+02  0.45594000000E+02  0.51100000000E-03 0. -1.
    9900012    2    1    2    0    0 -0.19968795304E+02  0.49249149521E+01 -0.38218007633E+02  0.47787266359E+02  0.19999978636E+02 0.  0.
        -12    1    1    2    0    0  0.19968795304E+02 -0.49249149521E+01  0.38218007633E+02  0.43400733641E+02  0.00000000000E+00 0.  1.
         11    1    3    3    0    0  0.11064557681E+01 -0.30151150371E+00 -0.18320379618E+01  0.21613692207E+01  0.51100000000E-03 0. -1.
        -11    1    3    3    0    0 -0.62307722420E+01  0.25138121954E+01 -0.27070665346E+02  0.27891982665E+02  0.51100000000E-03 0.  1.
        -12    1    3    3    0    0 -0.14844478830E+02  0.27126142604E+01 -0.93153043255E+01  0.17733914473E+02  0.00000000000E+00 0.  1.
</event>
<event>
 7    1  0.2714068E-010  0.4778727E+02  0.7816164E-02  0.1312668E+00
        -11   -1    0    0    0    0  0.00000000000E+00  0.00000000000E+00  0.45593999997E+02  0.45594000000E+02  0.51100000000E-03 0.  1.
         11   -1    0    0    0    0 -0.00000000000E+00 -0.00000000000E+00 -0.45593999997E+02  0.45594000000E+02  0.51100000000E-03 0. -1.
    9900012    2    1    2    0    0 -0.21074953812E+02 -0.22878334182E+02 -0.30266336187E+02  0.47787274669E+02  0.20000016525E+02 0.  0.
        -12    1    1    2    0    0  0.21074953812E+02  0.22878334182E+02  0.30266336187E+02  0.43400725331E+02  0.00000000000E+00 0.  1.
         11    1    3    3    0    0 -0.16437895028E+02 -0.13535831027E+02 -0.24871809667E+02  0.32741869692E+02  0.51100000000E-03 0. -1.
        -11    1    3    3    0    0  0.24156045619E+01 -0.12842790828E+00 -0.12591334340E+01  0.27270966967E+01  0.51100000000E-03 0.  1.
        -12    1    3    3    0    0 -0.70526633454E+01 -0.92140752464E+01 -0.41353930860E+01  0.12318308280E+02  0.00000000000E+00 0.  1.
</event>
<event>
 7    1  0.2714068E-010  0.4778727E+02  0.7816164E-02  0.1312668E+00
        -11   -1    0    0    0    0  0.00000000000E+00  0.00000000000E+00  0.45593999997E+02  0.45594000000E+02  0.51100000000E-03 0.  1.
         11   -1    0    0    0    0 -0.00000000000E+00 -0.00000000000E+00 -0.45593999997E+02  0.45594000000E+02  0.51100000000E-03 0. -1.
    9900012    2    1    2    0    0  0.15019957171E+02 -0.18818039051E+02 -0.36109634456E+02  0.47787269503E+02  0.19999992971E+02 0.  0.
        -12    1    1    2    0    0 -0.15019957171E+02  0.18818039051E+02  0.36109634456E+02  0.43400730497E+02  0.00000000000E+00 0.  1.
         11    1    3    3    0    0  0.99759098260E-01 -0.90451765961E+01 -0.14834691770E+02  0.17375075588E+02  0.51100000000E-03 0. -1.
        -11    1    3    3    0    0 -0.83862438987E+00 -0.36145084040E+01 -0.82962213676E+01  0.90881929508E+01  0.51100000000E-03 0.  1.
         12    1    3    3    0    0  0.15758822463E+02 -0.61583540511E+01 -0.12978721318E+02  0.21324000964E+02  0.00000000000E+00 0. -1.
</event>
<event>
 7    1  0.2714068E-010  0.4778727E+02  0.7816164E-02  0.1312668E+00
        -11   -1    0    0    0    0  0.00000000000E+00  0.00000000000E+00  0.45593999997E+02  0.45594000000E+02  0.51100000000E-03 0.  1.
         11   -1    0    0    0    0 -0.00000000000E+00 -0.00000000000E+00 -0.45593999997E+02  0.45594000000E+02  0.51100000000E-03 0. -1.
    9900012    2    1    2    0    0 -0.16718165394E+02  0.37549249920E+02 -0.13934866573E+02  0.47787265789E+02  0.19999976038E+02 0.  0.
        -12    1    1    2    0    0  0.16718165394E+02 -0.37549249920E+02  0.13934866573E+02  0.43400734211E+02  0.00000000000E+00 0.  1.
         11    1    3    3    0    0 -0.11163300369E+01  0.17716829425E+02  0.70471206016E+00  0.17765946555E+02  0.51100000000E-03 0. -1.
        -11    1    3    3    0    0 -0.11336487763E+02  0.16043570487E+02 -0.78550881021E+01  0.21156902375E+02  0.51100000000E-03 0.  1.
         12    1    3    3    0    0 -0.42653475943E+01  0.37888500069E+01 -0.67844905311E+01  0.88644168585E+01  0.00000000000E+00 0. -1.
</event>
<event>
 7    1  0.2714068E-010  0.4778727E+02  0.7816164E-02  0.1312668E+00
        -11   -1    0    0    0    0  0.00000000000E+00  0.00000000000E+00  0.45593999997E+02  0.45594000000E+02  0.51100000000E-03 0.  1.
         11   -1    0    0    0    0 -0.00000000000E+00 -0.00000000000E+00 -0.45593999997E+02  0.45594000000E+02  0.51100000000E-03 0. -1.
    9900012    2    1    2    0    0  0.12352598655E+02 -0.30645490674E+02 -0.28140550584E+02  0.47787269829E+02  0.19999994458E+02 0.  0.
        -12    1    1    2    0    0 -0.12352598655E+02  0.30645490674E+02  0.28140550584E+02  0.43400730171E+02  0.00000000000E+00 0.  1.
         11    1    3    3    0    0 -0.88013600616E+00 -0.79946750414E+01 -0.69015977293E+01  0.10598184745E+02  0.51100000000E-03 0. -1.
        -11    1    3    3    0    0 -0.20501803460E+01 -0.47959533218E+01 -0.96850913748E+01  0.11000245584E+02  0.51100000000E-03 0.  1.
        -12    1    3    3    0    0  0.15282915007E+02 -0.17854862311E+02 -0.11553861480E+02  0.26188839500E+02  0.00000000000E+00 0.  1.
</event>
<event>
 7    1  0.2714068E-010  0.4778727E+02  0.7816164E-02  0.1312668E+00
        -11   -1    0    0    0    0  0.00000000000E+00  0.00000000000E+00  0.45593999997E+02  0.45594000000E+02  0.51100000000E-03 0.  1.
         11   -1    0    0    0    0 -0.00000000000E+00 -0.00000000000E+00 -0.45593999997E+02  0.45594000000E+02  0.51100000000E-03 0. -1.
    9900012    2    1    2    0    0 -0.16500036995E+02  0.39332736726E+02 -0.80192213393E+01  0.47787270628E+02  0.19999998099E+02 0.  0.
        -12    1    1    2    0    0  0.16500036995E+02 -0.39332736726E+02  0.80192213393E+01  0.43400729372E+02  0.00000000000E+00 0.  1.
         11    1    3    3    0    0  0.18987279219E+01  0.10018178543E+02 -0.50066250789E+01  0.11359373397E+02  0.51100000000E-03 0.  1.
        -11    1    3    3    0    0 -0.13879052103E+02  0.26504958913E+02 -0.57140853456E+01  0.30459673437E+02  0.51100000000E-03 0. -1.
         12    1    3    3    0    0 -0.45197128134E+01  0.28095992699E+01  0.27014890852E+01  0.59682237936E+01  0.00000000000E+00 0. -1.
</event>
<event>
 7    1  0.2714068E-010  0.4778727E+02  0.7816164E-02  0.1312668E+00
        -11   -1    0    0    0    0  0.00000000000E+00  0.00000000000E+00  0.45593999997E+02  0.45594000000E+02  0.51100000000E-03 0.  1.
         11   -1    0    0    0    0 -0.00000000000E+00 -0.00000000000E+00 -0.45593999997E+02  0.45594000000E+02  0.51100000000E-03 0. -1.
    9900012    2    1    2    0    0  0.26030564835E+02  0.34625156592E+02  0.26705120031E+01  0.47787269487E+02  0.19999992901E+02 0.  0.
        -12    1    1    2    0    0 -0.26030564835E+02 -0.34625156592E+02 -0.26705120031E+01  0.43400730513E+02  0.00000000000E+00 0.  1.
         11    1    3    3    0    0  0.14269145134E+02  0.20044908906E+02  0.45996423411E+01  0.25031252182E+02  0.51100000000E-03 0. -1.
        -11    1    3    3    0    0  0.13970761865E+02  0.11231010614E+02  0.73394814719E+00  0.17940358599E+02  0.51100000000E-03 0.  1.
         12    1    3    3    0    0 -0.22093421633E+01  0.33492370721E+01 -0.26630784852E+01  0.48156587065E+01  0.00000000000E+00 0. -1.
</event>
<event>
 7    1  0.2714068E-010  0.4778727E+02  0.7816164E-02  0.1312668E+00
        -11   -1    0    0    0    0  0.00000000000E+00  0.00000000000E+00  0.45593999997E+02  0.45594000000E+02  0.51100000000E-03 0.  1.
         11   -1    0    0    0    0 -0.00000000000E+00 -0.00000000000E+00 -0.45593999997E+02  0.45594000000E+02  0.51100000000E-03 0. -1.
    9900012    2    1    2    0    0 -0.40772916426E+02  0.81841680370E+01 -0.12418211358E+02  0.47787270816E+02  0.19999998959E+02 0.  0.
        -12    1    1    2    0    0  0.40772916426E+02 -0.81841680370E+01  0.12418211358E+02  0.43400729184E+02  0.00000000000E+00 0.  1.
         11    1    3    3    0    0 -0.18693469421E+02  0.96855710409E+01 -0.48106375644E+01  0.21596257069E+02  0.51100000000E-03 0. -1.
        -11    1    3    3    0    0 -0.64466700445E+01 -0.59249347773E+01 -0.18096438399E+01  0.89408734398E+01  0.51100000000E-03 0.  1.
         12    1    3    3    0    0 -0.15632776961E+02  0.44235317735E+01 -0.57979299542E+01  0.17250140307E+02  0.00000000000E+00 0. -1.
</event>
<event>
 7    1  0.2714068E-010  0.4778727E+02  0.7816164E-02  0.1312668E+00
        -11   -1    0    0    0    0  0.00000000000E+00  0.00000000000E+00  0.45593999997E+02  0.45594000000E+02  0.51100000000E-03 0.  1.
         11   -1    0    0    0    0 -0.00000000000E+00 -0.00000000000E+00 -0.45593999997E+02  0.45594000000E+02  0.51100000000E-03 0. -1.
    9900012    2    1    2    0    0 -0.17498143002E+02 -0.24834560392E+01 -0.39639255908E+02  0.47787272225E+02  0.20000005385E+02 0.  0.
        -12    1    1    2    0    0  0.17498143002E+02  0.24834560392E+01  0.39639255908E+02  0.43400727775E+02  0.00000000000E+00 0.  1.
         11    1    3    3    0    0 -0.10730863880E+02 -0.38216439581E+01 -0.30577933672E+02  0.32630758956E+02  0.51100000000E-03 0. -1.
        -11    1    3    3    0    0  0.24097051581E+01  0.17193404902E+01 -0.23870259709E+01  0.38027232239E+01  0.51100000000E-03 0.  1.
         12    1    3    3    0    0 -0.91769842801E+01 -0.38115257130E+00 -0.66742962654E+01  0.11353790046E+02  0.00000000000E+00 0. -1.
</event>
<event>
 7    1  0.2714068E-010  0.4778727E+02  0.7816164E-02  0.1312668E+00
        -11   -1    0    0    0    0  0.00000000000E+00  0.00000000000E+00  0.45593999997E+02  0.45594000000E+02  0.51100000000E-03 0.  1.
         11   -1    0    0    0    0 -0.00000000000E+00 -0.00000000000E+00 -0.45593999997E+02  0.45594000000E+02  0.51100000000E-03 0. -1.
    9900012    2    1    2    0    0  0.22406983822E+00 -0.41260791141E+02  0.13458094633E+02  0.47787269545E+02  0.19999993165E+02 0.  0.
        -12    1    1    2    0    0 -0.22406983822E+00  0.41260791141E+02 -0.13458094633E+02  0.43400730455E+02  0.00000000000E+00 0.  1.
         11    1    3    3    0    0 -0.12756431531E+01 -0.38984981210E+02  0.15976135341E+02  0.42150835414E+02  0.51100000000E-03 0. -1.
        -11    1    3    3    0    0 -0.65695137377E+00  0.86883738581E+00 -0.11534605873E+01  0.15864851396E+01  0.51100000000E-03 0.  1.
         12    1    3    3    0    0  0.21566643651E+01 -0.31446473169E+01 -0.13645801209E+01  0.40499489921E+01  0.00000000000E+00 0. -1.
</event>
<event>
 7    1  0.2714068E-010  0.4778727E+02  0.7816164E-02  0.1312668E+00
        -11   -1    0    0    0    0  0.00000000000E+00  0.00000000000E+00  0.45593999997E+02  0.45594000000E+02  0.51100000000E-03 0. -1.
         11   -1    0    0    0    0 -0.00000000000E+00 -0.00000000000E+00 -0.45593999997E+02  0.45594000000E+02  0.51100000000E-03 0.  1.
    9900012    2    1    2    0    0  0.86068748561E+01  0.44545916408E+01  0.42304867452E+02  0.47787268536E+02  0.19999988561E+02 0.  0.
        -12    1    1    2    0    0 -0.86068748561E+01 -0.44545916408E+01 -0.42304867452E+02  0.43400731464E+02  0.00000000000E+00 0.  1.
         11    1    3    3    0    0  0.17044351299E+01 -0.20871523721E+01  0.29202677974E+02  0.29326740447E+02  0.51100000000E-03 0. -1.
        -11    1    3    3    0    0  0.58915221791E+01  0.86743840737E+01  0.11716940417E+02  0.15723920174E+02  0.51100000000E-03 0.  1.
         12    1    3    3    0    0  0.10109175472E+01 -0.21326400607E+01  0.13852490616E+01  0.27366079147E+01  0.00000000000E+00 0. -1.
</event>
<event>
 7    1  0.2714068E-010  0.4778727E+02  0.7816164E-02  0.1312668E+00
        -11   -1    0    0    0    0  0.00000000000E+00  0.00000000000E+00  0.45593999997E+02  0.45594000000E+02  0.51100000000E-03 0.  1.
         11   -1    0    0    0    0 -0.00000000000E+00 -0.00000000000E+00 -0.45593999997E+02  0.45594000000E+02  0.51100000000E-03 0. -1.
    9900012    2    1    2    0    0 -0.32777411275E+02  0.22416646336E+02 -0.17514527194E+02  0.47787269757E+02  0.19999994129E+02 0.  0.
        -12    1    1    2    0    0  0.32777411275E+02 -0.22416646336E+02  0.17514527194E+02  0.43400730243E+02  0.00000000000E+00 0.  1.
         11    1    3    3    0    0 -0.24987780216E+01  0.18676491461E+01  0.34119572945E+01  0.46231437112E+01  0.51100000000E-03 0.  1.
        -11    1    3    3    0    0 -0.19311999786E+02  0.17894152187E+02 -0.16326001451E+02  0.30978901560E+02  0.51100000000E-03 0. -1.
         12    1    3    3    0    0 -0.10966633467E+02  0.26548450029E+01 -0.46004830374E+01  0.12185224485E+02  0.00000000000E+00 0. -1.
</event>
<event>
 7    1  0.2714068E-010  0.4778727E+02  0.7816164E-02  0.1312668E+00
        -11   -1    0    0    0    0  0.00000000000E+00  0.00000000000E+00  0.45593999997E+02  0.45594000000E+02  0.51100000000E-03 0.  1.
         11   -1    0    0    0    0 -0.00000000000E+00 -0.00000000000E+00 -0.45593999997E+02  0.45594000000E+02  0.51100000000E-03 0. -1.
    9900012    2    1    2    0    0  0.14750274537E+02  0.21042929791E+02 -0.34974963663E+02  0.47787267560E+02  0.19999984113E+02 0.  0.
        -12    1    1    2    0    0 -0.14750274537E+02 -0.21042929791E+02  0.34974963663E+02  0.43400732440E+02  0.00000000000E+00 0.  1.
         11    1    3    3    0    0  0.45494718312E+01  0.64512093806E+01 -0.22926694633E+02  0.24247662227E+02  0.51100000000E-03 0. -1.
        -11    1    3    3    0    0  0.49190541871E+01  0.13987463788E+02 -0.97643953284E+01  0.17753581434E+02  0.51100000000E-03 0.  1.
        -12    1    3    3    0    0  0.52817485189E+01  0.60425662230E+00 -0.22838737014E+01  0.57860238995E+01  0.00000000000E+00 0.  1.
</event>
<event>
 7    1  0.2714068E-010  0.4778726E+02  0.7816164E-02  0.1312668E+00
        -11   -1    0    0    0    0  0.00000000000E+00  0.00000000000E+00  0.45593999997E+02  0.45594000000E+02  0.51100000000E-03 0.  1.
         11   -1    0    0    0    0 -0.00000000000E+00 -0.00000000000E+00 -0.45593999997E+02  0.45594000000E+02  0.51100000000E-03 0. -1.
    9900012    2    1    2    0    0 -0.26637253422E+02 -0.20016300440E+02 -0.27810579840E+02  0.47787263782E+02  0.19999966889E+02 0.  0.
        -12    1    1    2    0    0  0.26637253422E+02  0.20016300440E+02  0.27810579840E+02  0.43400736218E+02  0.00000000000E+00 0.  1.
         11    1    3    3    0    0 -0.17398959328E+02 -0.10812898828E+02 -0.20930116581E+02  0.29286726467E+02  0.51100000000E-03 0. -1.
        -11    1    3    3    0    0 -0.51406391293E+00  0.24751506348E+01 -0.44953758478E+00  0.25676286088E+01  0.51100000000E-03 0.  1.
        -12    1    3    3    0    0 -0.87242301808E+01 -0.11678552247E+02 -0.64309256746E+01  0.15932908707E+02  0.00000000000E+00 0.  1.
</event>
<event>
 7    1  0.2714068E-010  0.4778727E+02  0.7816164E-02  0.1312668E+00
        -11   -1    0    0    0    0  0.00000000000E+00  0.00000000000E+00  0.45593999997E+02  0.45594000000E+02  0.51100000000E-03 0.  1.
         11   -1    0    0    0    0 -0.00000000000E+00 -0.00000000000E+00 -0.45593999997E+02  0.45594000000E+02  0.51100000000E-03 0. -1.
    9900012    2    1    2    0    0 -0.52490538419E+01 -0.72944364195E+01 -0.42460119595E+02  0.47787272761E+02  0.20000007824E+02 0.  0.
        -12    1    1    2    0    0  0.52490538419E+01  0.72944364195E+01  0.42460119595E+02  0.43400727239E+02  0.00000000000E+00 0.  1.
         11    1    3    3    0    0 -0.29599711061E+00 -0.37387055406E+01 -0.31596867058E+02  0.31818666558E+02  0.51100000000E-03 0. -1.
        -11    1    3    3    0    0  0.16890255146E+01  0.12659344524E-01  0.96220093362E+00  0.19439131528E+01  0.51100000000E-03 0.  1.
         12    1    3    3    0    0 -0.66420822459E+01 -0.35683902234E+01 -0.11825453470E+02  0.14024693049E+02  0.00000000000E+00 0. -1.
</event>
<event>
 7    1  0.2714068E-010  0.4778728E+02  0.7816164E-02  0.1312668E+00
        -11   -1    0    0    0    0  0.00000000000E+00  0.00000000000E+00  0.45593999997E+02  0.45594000000E+02  0.51100000000E-03 0.  1.
         11   -1    0    0    0    0 -0.00000000000E+00 -0.00000000000E+00 -0.45593999997E+02  0.45594000000E+02  0.51100000000E-03 0. -1.
    9900012    2    1    2    0    0 -0.89948443483E+01  0.19902792825E+02 -0.37504586616E+02  0.47787281062E+02  0.20000045676E+02 0.  0.
        -12    1    1    2    0    0  0.89948443483E+01 -0.19902792825E+02  0.37504586616E+02  0.43400718938E+02  0.00000000000E+00 0.  1.
         11    1    3    3    0    0 -0.53006010177E+01  0.14627821407E+02 -0.31066519526E+02  0.34744757388E+02  0.51100000000E-03 0. -1.
        -11    1    3    3    0    0 -0.13476008848E+01  0.43965149662E+01  0.14055328782E+01  0.48084191711E+01  0.51100000000E-03 0.  1.
        -12    1    3    3    0    0 -0.23466424458E+01  0.87845645197E+00 -0.78435999685E+01  0.82341045034E+01  0.00000000000E+00 0.  1.
</event>
<event>
 7    1  0.2714068E-010  0.4778727E+02  0.7816164E-02  0.1312668E+00
        -11   -1    0    0    0    0  0.00000000000E+00  0.00000000000E+00  0.45593999997E+02  0.45594000000E+02  0.51100000000E-03 0.  1.
         11   -1    0    0    0    0 -0.00000000000E+00 -0.00000000000E+00 -0.45593999997E+02  0.45594000000E+02  0.51100000000E-03 0. -1.
    9900012    2    1    2    0    0 -0.33966870319E+02  0.25312524090E+02 -0.94419834570E+01  0.47787271819E+02  0.20000003531E+02 0.  0.
        -12    1    1    2    0    0  0.33966870319E+02 -0.25312524090E+02  0.94419834570E+01  0.43400728181E+02  0.00000000000E+00 0.  1.
         11    1    3    3    0    0 -0.17815195593E+02  0.17196281649E+02  0.38690062454E+01  0.25061175275E+02  0.51100000000E-03 0. -1.
        -11    1    3    3    0    0 -0.73431900690E+01  0.20921650519E+01 -0.68052589328E+01  0.10227958956E+02  0.51100000000E-03 0.  1.
         12    1    3    3    0    0 -0.88084846566E+01  0.60240773888E+01 -0.65057307696E+01  0.12498137588E+02  0.00000000000E+00 0. -1.
</event>
<event>
 7    1  0.2714068E-010  0.4778727E+02  0.7816164E-02  0.1312668E+00
        -11   -1    0    0    0    0  0.00000000000E+00  0.00000000000E+00  0.45593999997E+02  0.45594000000E+02  0.51100000000E-03 0.  1.
         11   -1    0    0    0    0 -0.00000000000E+00 -0.00000000000E+00 -0.45593999997E+02  0.45594000000E+02  0.51100000000E-03 0. -1.
    9900012    2    1    2    0    0 -0.27535591017E+02  0.22905119006E+02 -0.24510617698E+02  0.47787266951E+02  0.19999981335E+02 0.  0.
        -12    1    1    2    0    0  0.27535591017E+02 -0.22905119006E+02  0.24510617698E+02  0.43400733049E+02  0.00000000000E+00 0.  1.
         11    1    3    3    0    0 -0.95827600098E+01 -0.20821756096E+01 -0.31630696115E+01  0.10303870841E+02  0.51100000000E-03 0. -1.
        -11    1    3    3    0    0 -0.90930009735E+01  0.13019704949E+02 -0.11965685065E+02  0.19883988609E+02  0.51100000000E-03 0.  1.
         12    1    3    3    0    0 -0.88598300332E+01  0.11967589667E+02 -0.93818630210E+01  0.17599407501E+02  0.00000000000E+00 0. -1.
</event>
<event>
 7    1  0.2714068E-010  0.4778727E+02  0.7816164E-02  0.1312668E+00
        -11   -1    0    0    0    0  0.00000000000E+00  0.00000000000E+00  0.45593999997E+02  0.45594000000E+02  0.51100000000E-03 0. -1.
         11   -1    0    0    0    0 -0.00000000000E+00 -0.00000000000E+00 -0.45593999997E+02  0.45594000000E+02  0.51100000000E-03 0.  1.
    9900012    2    1    2    0    0  0.35146046321E+02 -0.12703990869E+02  0.22067790545E+02  0.47787270334E+02  0.19999996761E+02 0.  0.
        -12    1    1    2    0    0 -0.35146046321E+02  0.12703990869E+02 -0.22067790545E+02  0.43400729666E+02  0.00000000000E+00 0.  1.
         11    1    3    3    0    0 -0.69396119592E+00  0.25102602165E+01  0.18997912975E+01  0.32236928717E+01  0.51100000000E-03 0. -1.
        -11    1    3    3    0    0  0.28826899246E+01 -0.35000342715E+01  0.39320406788E+01  0.60017568481E+01  0.51100000000E-03 0.  1.
         12    1    3    3    0    0  0.32957317592E+02 -0.11714216814E+02  0.16235958569E+02  0.38561820614E+02  0.00000000000E+00 0. -1.
</event>
<event>
 7    1  0.2714068E-010  0.4778727E+02  0.7816164E-02  0.1312668E+00
        -11   -1    0    0    0    0  0.00000000000E+00  0.00000000000E+00  0.45593999997E+02  0.45594000000E+02  0.51100000000E-03 0. -1.
         11   -1    0    0    0    0 -0.00000000000E+00 -0.00000000000E+00 -0.45593999997E+02  0.45594000000E+02  0.51100000000E-03 0.  1.
    9900012    2    1    2    0    0  0.26263996319E+02 -0.32012859040E+02  0.13000111368E+02  0.47787267954E+02  0.19999985911E+02 0.  0.
        -12    1    1    2    0    0 -0.26263996319E+02  0.32012859040E+02 -0.13000111368E+02  0.43400732046E+02  0.00000000000E+00 0.  1.
         11    1    3    3    0    0  0.13971245106E+02 -0.10324283472E+02  0.13456658109E+01  0.17424044759E+02  0.51100000000E-03 0. -1.
        -11    1    3    3    0    0  0.49896629920E+01 -0.17146700851E+02  0.12384542087E+02  0.21732072377E+02  0.51100000000E-03 0.  1.
        -12    1    3    3    0    0  0.73030882210E+01 -0.45418747166E+01 -0.73009652987E+00  0.86311508183E+01  0.00000000000E+00 0.  1.
</event>
<event>
 7    1  0.2714068E-010  0.4778732E+02  0.7816164E-02  0.1312668E+00
        -11   -1    0    0    0    0  0.00000000000E+00  0.00000000000E+00  0.45593999997E+02  0.45594000000E+02  0.51100000000E-03 0. -1.
         11   -1    0    0    0    0 -0.00000000000E+00 -0.00000000000E+00 -0.45593999997E+02  0.45594000000E+02  0.51100000000E-03 0.  1.
    9900012    2    1    2    0    0 -0.15516888056E+01 -0.16007501498E+02  0.40310936434E+02  0.47787315230E+02  0.20000201458E+02 0.  0.
        -12    1    1    2    0    0  0.15516888056E+01  0.16007501498E+02 -0.40310936434E+02  0.43400684770E+02  0.00000000000E+00 0.  1.
         11    1    3    3    0    0 -0.42938386710E+01  0.36966053107E+01  0.80824521693E+01  0.98705610117E+01  0.51100000000E-03 0. -1.
        -11    1    3    3    0    0  0.18328999661E+01 -0.16420562323E+02  0.27634749777E+02  0.32197418915E+02  0.51100000000E-03 0.  1.
         12    1    3    3    0    0  0.90924989933E+00 -0.32835444858E+01  0.45937344876E+01  0.57193353033E+01  0.00000000000E+00 0. -1.
</event>
<event>
 7    1  0.2714068E-010  0.4778727E+02  0.7816164E-02  0.1312668E+00
        -11   -1    0    0    0    0  0.00000000000E+00  0.00000000000E+00  0.45593999997E+02  0.45594000000E+02  0.51100000000E-03 0. -1.
         11   -1    0    0    0    0 -0.00000000000E+00 -0.00000000000E+00 -0.45593999997E+02  0.45594000000E+02  0.51100000000E-03 0.  1.
    9900012    2    1    2    0    0  0.14143412180E+02 -0.46553598414E+01  0.40766592840E+02  0.47787267574E+02  0.19999984175E+02 0.  0.
        -12    1    1    2    0    0 -0.14143412180E+02  0.46553598414E+01 -0.40766592840E+02  0.43400732426E+02  0.00000000000E+00 0.  1.
         11    1    3    3    0    0  0.28779234548E+01 -0.20632671684E+01  0.82420944081E+01  0.89705983810E+01  0.51100000000E-03 0. -1.
        -11    1    3    3    0    0  0.12815611965E+02 -0.49755172864E+01  0.33165714476E+02  0.35902093244E+02  0.51100000000E-03 0.  1.
        -12    1    3    3    0    0 -0.15501232404E+01  0.23834246134E+01 -0.64121604368E+00  0.29145759491E+01  0.00000000000E+00 0.  1.
</event>
<event>
 7    1  0.2714068E-010  0.4778726E+02  0.7816164E-02  0.1312668E+00
        -11   -1    0    0    0    0  0.00000000000E+00  0.00000000000E+00  0.45593999997E+02  0.45594000000E+02  0.51100000000E-03 0.  1.
         11   -1    0    0    0    0 -0.00000000000E+00 -0.00000000000E+00 -0.45593999997E+02  0.45594000000E+02  0.51100000000E-03 0. -1.
    9900012    2    1    2    0    0 -0.20578112097E+02 -0.35283694464E+02 -0.14670597453E+02  0.47787260120E+02  0.19999950190E+02 0.  0.
        -12    1    1    2    0    0  0.20578112097E+02  0.35283694464E+02  0.14670597453E+02  0.43400739880E+02  0.00000000000E+00 0.  1.
         11    1    3    3    0    0 -0.19927342636E+02 -0.21907686783E+02 -0.79673870266E+01  0.30667979735E+02  0.51100000000E-03 0. -1.
        -11    1    3    3    0    0 -0.84710697535E+00 -0.12653911839E+02 -0.84360663909E+01  0.15231752738E+02  0.51100000000E-03 0.  1.
         12    1    3    3    0    0  0.19633751446E+00 -0.72209584210E+00  0.17328559646E+01  0.18875276471E+01  0.00000000000E+00 0. -1.
</event>
<event>
 7    1  0.2714068E-010  0.4778728E+02  0.7816164E-02  0.1312668E+00
        -11   -1    0    0    0    0  0.00000000000E+00  0.00000000000E+00  0.45593999997E+02  0.45594000000E+02  0.51100000000E-03 0.  1.
         11   -1    0    0    0    0 -0.00000000000E+00 -0.00000000000E+00 -0.45593999997E+02  0.45594000000E+02  0.51100000000E-03 0. -1.
    9900012    2    1    2    0    0  0.29609388309E+02  0.29659348731E+02 -0.11279619541E+02  0.47787278115E+02  0.20000032236E+02 0.  0.
        -12    1    1    2    0    0 -0.29609388309E+02 -0.29659348731E+02  0.11279619541E+02  0.43400721885E+02  0.00000000000E+00 0.  1.
         11    1    3    3    0    0  0.29878191425E+02  0.26776705118E+02 -0.67532033769E+01  0.40685427562E+02  0.51100000000E-03 0. -1.
        -11    1    3    3    0    0 -0.10417333598E+01 -0.10174659982E+00  0.53498472026E+00  0.11754869951E+01  0.51100000000E-03 0.  1.
         12    1    3    3    0    0  0.77293024366E+00  0.29843902130E+01 -0.50614008842E+01  0.59263635575E+01  0.00000000000E+00 0. -1.
</event>
<event>
 7    1  0.2714068E-010  0.4778728E+02  0.7816164E-02  0.1312668E+00
        -11   -1    0    0    0    0  0.00000000000E+00  0.00000000000E+00  0.45593999997E+02  0.45594000000E+02  0.51100000000E-03 0. -1.
         11   -1    0    0    0    0 -0.00000000000E+00 -0.00000000000E+00 -0.45593999997E+02  0.45594000000E+02  0.51100000000E-03 0.  1.
    9900012    2    1    2    0    0 -0.32648386679E+01  0.32073877394E+02  0.29055629355E+02  0.47787281344E+02  0.20000046962E+02 0.  0.
        -12    1    1    2    0    0  0.32648386679E+01 -0.32073877394E+02 -0.29055629355E+02  0.43400718656E+02  0.00000000000E+00 0.  1.
         11    1    3    3    0    0  0.14785505426E+01  0.36567161276E+01  0.92692949094E+01  0.10073604763E+02  0.51100000000E-03 0. -1.
        -11    1    3    3    0    0 -0.43397599222E+01  0.27513877604E+02  0.21865503189E+02  0.35411116997E+02  0.51100000000E-03 0.  1.
        -12    1    3    3    0    0 -0.40362928827E+00  0.90328366218E+00 -0.20791687434E+01  0.23025595845E+01  0.00000000000E+00 0.  1.
</event>
<event>
 7    1  0.2714068E-010  0.4778727E+02  0.7816164E-02  0.1312668E+00
        -11   -1    0    0    0    0  0.00000000000E+00  0.00000000000E+00  0.45593999997E+02  0.45594000000E+02  0.51100000000E-03 0.  1.
         11   -1    0    0    0    0 -0.00000000000E+00 -0.00000000000E+00 -0.45593999997E+02  0.45594000000E+02  0.51100000000E-03 0. -1.
    9900012    2    1    2    0    0  0.32511300120E+02  0.34398319926E+00 -0.28749264722E+02  0.47787272103E+02  0.20000004829E+02 0.  0.
        -12    1    1    2    0    0 -0.32511300120E+02 -0.34398319926E+00  0.28749264722E+02  0.43400727897E+02  0.00000000000E+00 0.  1.
         11    1    3    3    0    0  0.26143585445E+02 -0.12448493305E+00 -0.21619575964E+02  0.33925044164E+02  0.51100000000E-03 0. -1.
        -11    1    3    3    0    0 -0.32743305171E+00  0.90986057249E+00 -0.70867404741E+01  0.71524086484E+01  0.51100000000E-03 0.  1.
        -12    1    3    3    0    0  0.66951477265E+01 -0.44139244018E+00 -0.42948283925E-01  0.67098192912E+01  0.00000000000E+00 0.  1.
</event>
<event>
 7    1  0.2714068E-010  0.4778727E+02  0.7816164E-02  0.1312668E+00
        -11   -1    0    0    0    0  0.00000000000E+00  0.00000000000E+00  0.45593999997E+02  0.45594000000E+02  0.51100000000E-03 0.  1.
         11   -1    0    0    0    0 -0.00000000000E+00 -0.00000000000E+00 -0.45593999997E+02  0.45594000000E+02  0.51100000000E-03 0. -1.
    9900012    2    1    2    0    0  0.31349168655E+02 -0.28277443206E+02  0.10061764359E+02  0.47787271070E+02  0.20000000117E+02 0.  0.
        -12    1    1    2    0    0 -0.31349168655E+02  0.28277443206E+02 -0.10061764359E+02  0.43400728930E+02  0.00000000000E+00 0.  1.
         11    1    3    3    0    0  0.21164143453E+02 -0.25896000971E+02  0.33352990672E+01  0.33610237347E+02  0.51100000000E-03 0. -1.
        -11    1    3    3    0    0  0.62615987678E+01  0.58425828454E+00  0.59514292097E+00  0.63168957748E+01  0.51100000000E-03 0.  1.
         12    1    3    3    0    0  0.39234264337E+01 -0.29657005197E+01  0.61313223704E+01  0.78601379481E+01  0.00000000000E+00 0. -1.
</event>
<event>
 7    1  0.2714068E-010  0.4778730E+02  0.7816164E-02  0.1312668E+00
        -11   -1    0    0    0    0  0.00000000000E+00  0.00000000000E+00  0.45593999997E+02  0.45594000000E+02  0.51100000000E-03 0.  1.
         11   -1    0    0    0    0 -0.00000000000E+00 -0.00000000000E+00 -0.45593999997E+02  0.45594000000E+02  0.51100000000E-03 0. -1.
    9900012    2    1    2    0    0  0.16839220609E+02 -0.97772291868E+01 -0.38787466901E+02  0.47787295514E+02  0.20000111567E+02 0.  0.
        -12    1    1    2    0    0 -0.16839220609E+02  0.97772291868E+01  0.38787466901E+02  0.43400704486E+02  0.00000000000E+00 0.  1.
         11    1    3    3    0    0  0.25791772623E+01 -0.12364624725E+02 -0.12965608620E+02  0.18100914538E+02  0.51100000000E-03 0. -1.
        -11    1    3    3    0    0  0.10854147885E+02  0.28625185033E+01 -0.20085810643E+02  0.23009700735E+02  0.51100000000E-03 0.  1.
         12    1    3    3    0    0  0.34058954618E+01 -0.27512296519E+00 -0.57360476376E+01  0.66766802412E+01  0.00000000000E+00 0. -1.
</event>
<event>
 7    1  0.2714068E-010  0.4778728E+02  0.7816164E-02  0.1312668E+00
        -11   -1    0    0    0    0  0.00000000000E+00  0.00000000000E+00  0.45593999997E+02  0.45594000000E+02  0.51100000000E-03 0. -1.
         11   -1    0    0    0    0 -0.00000000000E+00 -0.00000000000E+00 -0.45593999997E+02  0.45594000000E+02  0.51100000000E-03 0.  1.
    9900012    2    1    2    0    0  0.58221149402E+01 -0.13473637376E+02  0.40843439177E+02  0.47787280532E+02  0.20000043257E+02 0.  0.
        -12    1    1    2    0    0 -0.58221149402E+01  0.13473637376E+02 -0.40843439177E+02  0.43400719468E+02  0.00000000000E+00 0.  1.
         11    1    3    3    0    0  0.39918022182E+01 -0.76288328862E+00  0.12288640347E+02  0.12943228257E+02  0.51100000000E-03 0. -1.
        -11    1    3    3    0    0 -0.31154247969E+01 -0.11144864595E+02  0.91347752221E+01  0.14743066069E+02  0.51100000000E-03 0.  1.
        -12    1    3    3    0    0  0.49457375189E+01 -0.15658894927E+01  0.19420023608E+02  0.20100986206E+02  0.00000000000E+00 0.  1.
</event>
<event>
 7    1  0.2714068E-010  0.4778727E+02  0.7816164E-02  0.1312668E+00
        -11   -1    0    0    0    0  0.00000000000E+00  0.00000000000E+00  0.45593999997E+02  0.45594000000E+02  0.51100000000E-03 0.  1.
         11   -1    0    0    0    0 -0.00000000000E+00 -0.00000000000E+00 -0.45593999997E+02  0.45594000000E+02  0.51100000000E-03 0. -1.
    9900012    2    1    2    0    0 -0.32088003496E+02 -0.23263041578E+02 -0.17686545484E+02  0.47787274627E+02  0.20000016333E+02 0.  0.
        -12    1    1    2    0    0  0.32088003496E+02  0.23263041578E+02  0.17686545484E+02  0.43400725373E+02  0.00000000000E+00 0.  1.
         11    1    3    3    0    0 -0.15964099442E+02 -0.13725551692E+02 -0.23492919033E+01  0.21184013145E+02  0.51100000000E-03 0. -1.
        -11    1    3    3    0    0 -0.27765042420E+01 -0.61763779990E+01 -0.94670468499E+01  0.11639656237E+02  0.51100000000E-03 0.  1.
        -12    1    3    3    0    0 -0.13347399812E+02 -0.33611118866E+01 -0.58702067303E+01  0.14963605244E+02  0.00000000000E+00 0.  1.
</event>
<event>
 7    1  0.2714068E-010  0.4778727E+02  0.7816164E-02  0.1312668E+00
        -11   -1    0    0    0    0  0.00000000000E+00  0.00000000000E+00  0.45593999997E+02  0.45594000000E+02  0.51100000000E-03 0.  1.
         11   -1    0    0    0    0 -0.00000000000E+00 -0.00000000000E+00 -0.45593999997E+02  0.45594000000E+02  0.51100000000E-03 0. -1.
    9900012    2    1    2    0    0  0.67767942699E+01 -0.36755728771E+02 -0.22061607058E+02  0.47787273692E+02  0.20000012070E+02 0.  0.
        -12    1    1    2    0    0 -0.67767942699E+01  0.36755728771E+02  0.22061607058E+02  0.43400726308E+02  0.00000000000E+00 0.  1.
         11    1    3    3    0    0  0.21980524231E+01 -0.74703173014E+01 -0.64182932577E+01  0.10091162651E+02  0.51100000000E-03 0. -1.
        -11    1    3    3    0    0  0.10814579890E+02 -0.22951965217E+02 -0.10812421693E+02  0.27579998344E+02  0.51100000000E-03 0.  1.
        -12    1    3    3    0    0 -0.62358380437E+01 -0.63334462536E+01 -0.48308921075E+01  0.10116112698E+02  0.00000000000E+00 0.  1.
</event>
<event>
 7    1  0.2714068E-010  0.4778727E+02  0.7816164E-02  0.1312668E+00
        -11   -1    0    0    0    0  0.00000000000E+00  0.00000000000E+00  0.45593999997E+02  0.45594000000E+02  0.51100000000E-03 0.  1.
         11   -1    0    0    0    0 -0.00000000000E+00 -0.00000000000E+00 -0.45593999997E+02  0.45594000000E+02  0.51100000000E-03 0. -1.
    9900012    2    1    2    0    0 -0.12792008155E+02 -0.34066585542E+02 -0.23652815393E+02  0.47787269602E+02  0.19999993423E+02 0.  0.
        -12    1    1    2    0    0  0.12792008155E+02  0.34066585542E+02  0.23652815393E+02  0.43400730398E+02  0.00000000000E+00 0.  1.
         11    1    3    3    0    0 -0.60691013957E+01 -0.26824911583E+02 -0.98636117799E+01  0.29218157211E+02  0.51100000000E-03 0. -1.
        -11    1    3    3    0    0 -0.47562606944E+01 -0.15703864625E-01 -0.69865860462E+01  0.84519019898E+01  0.51100000000E-03 0.  1.
         12    1    3    3    0    0 -0.19666460644E+01 -0.72259700938E+01 -0.68026175668E+01  0.10117210401E+02  0.00000000000E+00 0. -1.
</event>
<event>
 7    1  0.2714068E-010  0.4778727E+02  0.7816164E-02  0.1312668E+00
        -11   -1    0    0    0    0  0.00000000000E+00  0.00000000000E+00  0.45593999997E+02  0.45594000000E+02  0.51100000000E-03 0. -1.
         11   -1    0    0    0    0 -0.00000000000E+00 -0.00000000000E+00 -0.45593999997E+02  0.45594000000E+02  0.51100000000E-03 0.  1.
    9900012    2    1    2    0    0  0.14771008064E+02 -0.60123741568E+01  0.40364490548E+02  0.47787269368E+02  0.19999992355E+02 0.  0.
        -12    1    1    2    0    0 -0.14771008064E+02  0.60123741568E+01 -0.40364490548E+02  0.43400730632E+02  0.00000000000E+00 0.  1.
         11    1    3    3    0    0  0.14868043839E+02 -0.36670843622E+01  0.28559179937E+02  0.32405755573E+02  0.51100000000E-03 0. -1.
        -11    1    3    3    0    0 -0.20938021268E+01 -0.16336120087E+01 -0.66062753424E+00  0.27366264892E+01  0.51100000000E-03 0.  1.
         12    1    3    3    0    0  0.19967663520E+01 -0.71167778580E+00  0.12465938145E+02  0.12644887306E+02  0.00000000000E+00 0. -1.
</event>
<event>
 7    1  0.2714068E-010  0.4778727E+02  0.7816164E-02  0.1312668E+00
        -11   -1    0    0    0    0  0.00000000000E+00  0.00000000000E+00  0.45593999997E+02  0.45594000000E+02  0.51100000000E-03 0.  1.
         11   -1    0    0    0    0 -0.00000000000E+00 -0.00000000000E+00 -0.45593999997E+02  0.45594000000E+02  0.51100000000E-03 0. -1.
    9900012    2    1    2    0    0 -0.13757631642E+02  0.78048302318E-01 -0.41162422615E+02  0.47787267801E+02  0.19999985210E+02 0.  0.
        -12    1    1    2    0    0  0.13757631642E+02 -0.78048302318E-01  0.41162422615E+02  0.43400732199E+02  0.00000000000E+00 0.  1.
         11    1    3    3    0    0  0.10840481551E+01  0.38521019965E+01 -0.59046727089E+01  0.71329524220E+01  0.51100000000E-03 0. -1.
        -11    1    3    3    0    0 -0.15498550370E+02 -0.54695384513E+00 -0.21510044853E+02  0.26517659247E+02  0.51100000000E-03 0.  1.
        -12    1    3    3    0    0  0.65687057213E+00 -0.32270998491E+01 -0.13747705052E+02  0.14136656132E+02  0.00000000000E+00 0.  1.
</event>
<event>
 7    1  0.2714068E-010  0.4778729E+02  0.7816164E-02  0.1312668E+00
        -11   -1    0    0    0    0  0.00000000000E+00  0.00000000000E+00  0.45593999997E+02  0.45594000000E+02  0.51100000000E-03 0.  1.
         11   -1    0    0    0    0 -0.00000000000E+00 -0.00000000000E+00 -0.45593999997E+02  0.45594000000E+02  0.51100000000E-03 0. -1.
    9900012    2    1    2    0    0  0.49103843818E+01 -0.12864398169E+02 -0.41158436243E+02  0.47787291607E+02  0.20000093754E+02 0.  0.
        -12    1    1    2    0    0 -0.49103843818E+01  0.12864398169E+02  0.41158436243E+02  0.43400708393E+02  0.00000000000E+00 0.  1.
         11    1    3    3    0    0  0.32296658086E+01 -0.49008945239E+01 -0.23377546891E+02  0.24103095388E+02  0.51100000000E-03 0. -1.
        -11    1    3    3    0    0 -0.26289715730E+01 -0.92759244581E+01 -0.67514290248E+01  0.11770134248E+02  0.51100000000E-03 0.  1.
        -12    1    3    3    0    0  0.43096901462E+01  0.13124208129E+01 -0.11029460327E+02  0.11914061971E+02  0.00000000000E+00 0.  1.
</event>
<event>
 7    1  0.2714068E-010  0.4778727E+02  0.7816164E-02  0.1312668E+00
        -11   -1    0    0    0    0  0.00000000000E+00  0.00000000000E+00  0.45593999997E+02  0.45594000000E+02  0.51100000000E-03 0.  1.
         11   -1    0    0    0    0 -0.00000000000E+00 -0.00000000000E+00 -0.45593999997E+02  0.45594000000E+02  0.51100000000E-03 0. -1.
    9900012    2    1    2    0    0  0.42615413584E+02 -0.28928845772E+01 -0.76929158412E+01  0.47787271777E+02  0.20000003341E+02 0.  0.
        -12    1    1    2    0    0 -0.42615413584E+02  0.28928845772E+01  0.76929158412E+01  0.43400728223E+02  0.00000000000E+00 0.  1.
         11    1    3    3    0    0  0.96701997198E+01 -0.58302696373E+01  0.35884182758E+01  0.11848272138E+02  0.51100000000E-03 0. -1.
        -11    1    3    3    0    0  0.65496176550E+01 -0.64843721850E+00  0.90901513808E+00  0.66441155194E+01  0.51100000000E-03 0.  1.
         12    1    3    3    0    0  0.26395596209E+02  0.35858222786E+01 -0.12190349255E+02  0.29294884120E+02  0.00000000000E+00 0. -1.
</event>
<event>
 7    1  0.2714068E-010  0.4778727E+02  0.7816164E-02  0.1312668E+00
        -11   -1    0    0    0    0  0.00000000000E+00  0.00000000000E+00  0.45593999997E+02  0.45594000000E+02  0.51100000000E-03 0.  1.
         11   -1    0    0    0    0 -0.00000000000E+00 -0.00000000000E+00 -0.45593999997E+02  0.45594000000E+02  0.51100000000E-03 0. -1.
    9900012    2    1    2    0    0  0.14893466518E+02 -0.15856323414E+01 -0.40734432339E+02  0.47787267831E+02  0.19999985347E+02 0.  0.
        -12    1    1    2    0    0 -0.14893466518E+02  0.15856323414E+01  0.40734432339E+02  0.43400732169E+02  0.00000000000E+00 0.  1.
         11    1    3    3    0    0  0.16612914315E+02 -0.16617993090E+01 -0.26327627329E+02  0.31175221892E+02  0.51100000000E-03 0. -1.
        -11    1    3    3    0    0 -0.34526256974E+01 -0.15840578701E+01 -0.26967689507E+01  0.46585863282E+01  0.51100000000E-03 0.  1.
         12    1    3    3    0    0  0.17331779002E+01  0.16602248377E+01 -0.11710036060E+02  0.11953459611E+02  0.00000000000E+00 0. -1.
</event>
<event>
 7    1  0.2714068E-010  0.4778727E+02  0.7816164E-02  0.1312668E+00
        -11   -1    0    0    0    0  0.00000000000E+00  0.00000000000E+00  0.45593999997E+02  0.45594000000E+02  0.51100000000E-03 0. -1.
         11   -1    0    0    0    0 -0.00000000000E+00 -0.00000000000E+00 -0.45593999997E+02  0.45594000000E+02  0.51100000000E-03 0.  1.
    9900012    2    1    2    0    0 -0.32650499426E+02 -0.27917678672E+02 -0.61782769269E+01  0.47787274189E+02  0.20000014335E+02 0.  0.
        -12    1    1    2    0    0  0.32650499426E+02  0.27917678672E+02  0.61782769269E+01  0.43400725811E+02  0.00000000000E+00 0.  1.
         11    1    3    3    0    0 -0.28049246063E+01 -0.74857674288E+00  0.43505408664E+01  0.52302175173E+01  0.51100000000E-03 0. -1.
        -11    1    3    3    0    0 -0.18467466649E+02 -0.15908020024E+02 -0.10521943856E+02  0.26548516499E+02  0.51100000000E-03 0.  1.
         12    1    3    3    0    0 -0.11378108171E+02 -0.11261081905E+02 -0.68739377913E-02  0.16008540173E+02  0.00000000000E+00 0. -1.
</event>
<event>
 7    1  0.2714068E-010  0.4778726E+02  0.7816164E-02  0.1312668E+00
        -11   -1    0    0    0    0  0.00000000000E+00  0.00000000000E+00  0.45593999997E+02  0.45594000000E+02  0.51100000000E-03 0.  1.
         11   -1    0    0    0    0 -0.00000000000E+00 -0.00000000000E+00 -0.45593999997E+02  0.45594000000E+02  0.51100000000E-03 0. -1.
    9900012    2    1    2    0    0  0.29355241432E+02 -0.26828475144E+02 -0.17381789248E+02  0.47787264113E+02  0.19999968397E+02 0.  0.
        -12    1    1    2    0    0 -0.29355241432E+02  0.26828475144E+02  0.17381789248E+02  0.43400735887E+02  0.00000000000E+00 0.  1.
         11    1    3    3    0    0  0.29202707682E+02 -0.26838007592E+02 -0.17106491094E+02  0.43193851707E+02  0.51100000000E-03 0. -1.
        -11    1    3    3    0    0  0.10801960994E+01  0.17779281166E+01  0.91056921515E+00  0.22709003848E+01  0.51100000000E-03 0.  1.
         12    1    3    3    0    0 -0.92766234908E+00 -0.17683956678E+01 -0.11858673688E+01  0.23225120211E+01  0.00000000000E+00 0. -1.
</event>
<event>
 7    1  0.2714068E-010  0.4778727E+02  0.7816164E-02  0.1312668E+00
        -11   -1    0    0    0    0  0.00000000000E+00  0.00000000000E+00  0.45593999997E+02  0.45594000000E+02  0.51100000000E-03 0.  1.
         11   -1    0    0    0    0 -0.00000000000E+00 -0.00000000000E+00 -0.45593999997E+02  0.45594000000E+02  0.51100000000E-03 0. -1.
    9900012    2    1    2    0    0  0.30936424085E+02  0.18669526955E+02 -0.24041834965E+02  0.47787269587E+02  0.19999993354E+02 0.  0.
        -12    1    1    2    0    0 -0.30936424085E+02 -0.18669526955E+02  0.24041834965E+02  0.43400730413E+02  0.00000000000E+00 0.  1.
         11    1    3    3    0    0  0.23602828035E+02  0.17876980779E+02 -0.12803154503E+02  0.32258343083E+02  0.51100000000E-03 0. -1.
        -11    1    3    3    0    0  0.81925362539E+00  0.58089866996E+00 -0.83321282180E+01  0.83924359199E+01  0.51100000000E-03 0.  1.
        -12    1    3    3    0    0  0.65143424253E+01  0.21164750630E+00 -0.29065522444E+01  0.71364905837E+01  0.00000000000E+00 0.  1.
</event>
<event>
 7    1  0.2714068E-010  0.4778726E+02  0.7816164E-02  0.1312668E+00
        -11   -1    0    0    0    0  0.00000000000E+00  0.00000000000E+00  0.45593999997E+02  0.45594000000E+02  0.51100000000E-03 0. -1.
         11   -1    0    0    0    0 -0.00000000000E+00 -0.00000000000E+00 -0.45593999997E+02  0.45594000000E+02  0.51100000000E-03 0.  1.
    9900012    2    1    2    0    0 -0.15841638977E+02  0.40318530605E+02  0.26613452615E+01  0.47787260442E+02  0.19999951659E+02 0.  0.
        -12    1    1    2    0    0  0.15841638977E+02 -0.40318530605E+02 -0.26613452615E+01  0.43400739558E+02  0.00000000000E+00 0.  1.
         11    1    3    3    0    0  0.58808489811E+00  0.82664859503E+01  0.72968621627E+01  0.11041957775E+02  0.51100000000E-03 0. -1.
        -11    1    3    3    0    0 -0.10244758874E+02  0.20626945178E+02 -0.56502330125E+01  0.23713942842E+02  0.51100000000E-03 0.  1.
        -12    1    3    3    0    0 -0.61849650011E+01  0.11425099477E+02  0.10147161113E+01  0.13031359826E+02  0.00000000000E+00 0.  1.
</event>
<event>
 7    1  0.2714068E-010  0.4778727E+02  0.7816164E-02  0.1312668E+00
        -11   -1    0    0    0    0  0.00000000000E+00  0.00000000000E+00  0.45593999997E+02  0.45594000000E+02  0.51100000000E-03 0.  1.
         11   -1    0    0    0    0 -0.00000000000E+00 -0.00000000000E+00 -0.45593999997E+02  0.45594000000E+02  0.51100000000E-03 0. -1.
    9900012    2    1    2    0    0 -0.40852716754E+02 -0.45744213215E+01 -0.13919537183E+02  0.47787270606E+02  0.19999997999E+02 0.  0.
        -12    1    1    2    0    0  0.40852716754E+02  0.45744213215E+01  0.13919537183E+02  0.43400729394E+02  0.00000000000E+00 0.  1.
         11    1    3    3    0    0 -0.34794671401E+02 -0.35010371078E+01 -0.33101045783E+01  0.35126673787E+02  0.51100000000E-03 0. -1.
        -11    1    3    3    0    0 -0.13109140379E+01  0.60578961382E+00 -0.45950761517E+01  0.48166587767E+01  0.51100000000E-03 0.  1.
         12    1    3    3    0    0 -0.47471313143E+01 -0.16791738275E+01 -0.60143564531E+01  0.78439380418E+01  0.00000000000E+00 0. -1.
</event>
<event>
 7    1  0.2714068E-010  0.4778727E+02  0.7816164E-02  0.1312668E+00
        -11   -1    0    0    0    0  0.00000000000E+00  0.00000000000E+00  0.45593999997E+02  0.45594000000E+02  0.51100000000E-03 0. -1.
         11   -1    0    0    0    0 -0.00000000000E+00 -0.00000000000E+00 -0.45593999997E+02  0.45594000000E+02  0.51100000000E-03 0.  1.
    9900012    2    1    2    0    0 -0.33435514939E+01 -0.94127168039E+01  0.42235582201E+02  0.47787274452E+02  0.20000015537E+02 0.  0.
        -12    1    1    2    0    0  0.33435514939E+01  0.94127168039E+01 -0.42235582201E+02  0.43400725548E+02  0.00000000000E+00 0.  1.
         11    1    3    3    0    0 -0.60511678924E+01  0.19444015321E+01  0.16965763999E+02  0.18117242575E+02  0.51100000000E-03 0. -1.
        -11    1    3    3    0    0  0.54355986236E+01 -0.10248387751E+02  0.23569531502E+02  0.26269716393E+02  0.51100000000E-03 0.  1.
         12    1    3    3    0    0 -0.27279822251E+01 -0.11087305847E+01  0.17002867005E+01  0.34003154845E+01  0.00000000000E+00 0. -1.
</event>
<event>
 7    1  0.2714068E-010  0.4778727E+02  0.7816164E-02  0.1312668E+00
        -11   -1    0    0    0    0  0.00000000000E+00  0.00000000000E+00  0.45593999997E+02  0.45594000000E+02  0.51100000000E-03 0.  1.
         11   -1    0    0    0    0 -0.00000000000E+00 -0.00000000000E+00 -0.45593999997E+02  0.45594000000E+02  0.51100000000E-03 0. -1.
    9900012    2    1    2    0    0 -0.14474379882E+02  0.32486360562E+02 -0.24874721230E+02  0.47787273603E+02  0.20000011664E+02 0.  0.
        -12    1    1    2    0    0  0.14474379882E+02 -0.32486360562E+02  0.24874721230E+02  0.43400726397E+02  0.00000000000E+00 0.  1.
         11    1    3    3    0    0 -0.15850545243E+01  0.85774468263E+01 -0.14509714903E+02  0.16929761332E+02  0.51100000000E-03 0. -1.
        -11    1    3    3    0    0 -0.12925917840E+02  0.21748797048E+02 -0.12139583232E+02  0.28061699990E+02  0.51100000000E-03 0.  1.
         12    1    3    3    0    0  0.36592482398E-01  0.21601166881E+01  0.17745769057E+01  0.27958122809E+01  0.00000000000E+00 0. -1.
</event>
<event>
 7    1  0.2714068E-010  0.4778727E+02  0.7816164E-02  0.1312668E+00
        -11   -1    0    0    0    0  0.00000000000E+00  0.00000000000E+00  0.45593999997E+02  0.45594000000E+02  0.51100000000E-03 0. -1.
         11   -1    0    0    0    0 -0.00000000000E+00 -0.00000000000E+00 -0.45593999997E+02  0.45594000000E+02  0.51100000000E-03 0.  1.
    9900012    2    1    2    0    0 -0.29452113849E+02  0.99963710499E+01  0.30269934187E+02  0.47787270052E+02  0.19999995474E+02 0.  0.
        -12    1    1    2    0    0  0.29452113849E+02 -0.99963710499E+01 -0.30269934187E+02  0.43400729948E+02  0.00000000000E+00 0.  1.
         11    1    3    3    0    0 -0.20340549132E+02  0.94204982402E+01  0.20041615317E+02  0.30069088294E+02  0.51100000000E-03 0. -1.
        -11    1    3    3    0    0 -0.20444984931E+01 -0.35123206753E+01  0.84294593298E+01  0.93579995441E+01  0.51100000000E-03 0.  1.
        -12    1    3    3    0    0 -0.70670662245E+01  0.40881934850E+01  0.17988595399E+01  0.83601822131E+01  0.00000000000E+00 0.  1.
</event>
<event>
 7    1  0.2714068E-010  0.4778727E+02  0.7816164E-02  0.1312668E+00
        -11   -1    0    0    0    0  0.00000000000E+00  0.00000000000E+00  0.45593999997E+02  0.45594000000E+02  0.51100000000E-03 0.  1.
         11   -1    0    0    0    0 -0.00000000000E+00 -0.00000000000E+00 -0.45593999997E+02  0.45594000000E+02  0.51100000000E-03 0. -1.
    9900012    2    1    2    0    0  0.25390160616E+01  0.21887782886E+02 -0.37391198534E+02  0.47787269937E+02  0.19999994950E+02 0.  0.
        -12    1    1    2    0    0 -0.25390160616E+01 -0.21887782886E+02  0.37391198534E+02  0.43400730063E+02  0.00000000000E+00 0.  1.
         11    1    3    3    0    0  0.11384509930E+01  0.23162157904E+02 -0.38710380962E+02  0.45125106359E+02  0.51100000000E-03 0. -1.
        -11    1    3    3    0    0  0.43293539004E+00 -0.15694069240E+00 -0.23525266186E+00  0.51711459940E+00  0.51100000000E-03 0.  1.
         12    1    3    3    0    0  0.96762967860E+00 -0.11174343255E+01  0.15544350906E+01  0.21450489779E+01  0.00000000000E+00 0. -1.
</event>
<event>
 7    1  0.2714068E-010  0.4778726E+02  0.7816164E-02  0.1312668E+00
        -11   -1    0    0    0    0  0.00000000000E+00  0.00000000000E+00  0.45593999997E+02  0.45594000000E+02  0.51100000000E-03 0.  1.
         11   -1    0    0    0    0 -0.00000000000E+00 -0.00000000000E+00 -0.45593999997E+02  0.45594000000E+02  0.51100000000E-03 0. -1.
    9900012    2    1    2    0    0  0.49500221540E+01 -0.31480712141E+02 -0.29463299013E+02  0.47787263314E+02  0.19999964752E+02 0.  0.
        -12    1    1    2    0    0 -0.49500221540E+01  0.31480712141E+02  0.29463299013E+02  0.43400736686E+02  0.00000000000E+00 0.  1.
         11    1    3    3    0    0  0.59484400089E+00 -0.35129164072E+01 -0.14438728422E+02  0.14871829066E+02  0.51100000000E-03 0. -1.
        -11    1    3    3    0    0  0.99570243270E+00 -0.71368462639E+00 -0.23946628420E+01  0.26898288921E+01  0.51100000000E-03 0.  1.
         12    1    3    3    0    0  0.33594757204E+01 -0.27254111107E+02 -0.12629907749E+02  0.30225605355E+02  0.00000000000E+00 0. -1.
</event>
<event>
 7    1  0.2714068E-010  0.4778727E+02  0.7816164E-02  0.1312668E+00
        -11   -1    0    0    0    0  0.00000000000E+00  0.00000000000E+00  0.45593999997E+02  0.45594000000E+02  0.51100000000E-03 0.  1.
         11   -1    0    0    0    0 -0.00000000000E+00 -0.00000000000E+00 -0.45593999997E+02  0.45594000000E+02  0.51100000000E-03 0. -1.
    9900012    2    1    2    0    0  0.21586601439E+02 -0.33676148130E+02 -0.16839209200E+02  0.47787270961E+02  0.19999999622E+02 0.  0.
        -12    1    1    2    0    0 -0.21586601439E+02  0.33676148130E+02  0.16839209200E+02  0.43400729039E+02  0.00000000000E+00 0.  1.
         11    1    3    3    0    0  0.72971913448E+01 -0.19301825723E+02 -0.35893745521E+01  0.20945001496E+02  0.51100000000E-03 0. -1.
        -11    1    3    3    0    0  0.13959630557E+02 -0.79690174996E+01 -0.59871090901E+01  0.17152900650E+02  0.51100000000E-03 0.  1.
        -12    1    3    3    0    0  0.32977953819E+00 -0.64053049081E+01 -0.72627255579E+01  0.96893688153E+01  0.00000000000E+00 0.  1.
</event>
<event>
 7    1  0.2714068E-010  0.4778728E+02  0.7816164E-02  0.1312668E+00
        -11   -1    0    0    0    0  0.00000000000E+00  0.00000000000E+00  0.45593999997E+02  0.45594000000E+02  0.51100000000E-03 0.  1.
         11   -1    0    0    0    0 -0.00000000000E+00 -0.00000000000E+00 -0.45593999997E+02  0.45594000000E+02  0.51100000000E-03 0. -1.
    9900012    2    1    2    0    0  0.24979162158E+02 -0.10326408350E+02 -0.33956287877E+02  0.47787277219E+02  0.20000028154E+02 0.  0.
        -12    1    1    2    0    0 -0.24979162158E+02  0.10326408350E+02  0.33956287877E+02  0.43400722781E+02  0.00000000000E+00 0.  1.
         11    1    3    3    0    0  0.20893436776E+01 -0.15870305032E+01 -0.45045561013E+01  0.52129692836E+01  0.51100000000E-03 0.  1.
        -11    1    3    3    0    0  0.25796892481E+02 -0.55465011455E+01 -0.24535720781E+02  0.36031166109E+02  0.51100000000E-03 0. -1.
        -12    1    3    3    0    0 -0.29070740006E+01 -0.31928767015E+01 -0.49160109940E+01  0.65431418271E+01  0.00000000000E+00 0.  1.
</event>
<event>
 7    1  0.2714068E-010  0.4778727E+02  0.7816164E-02  0.1312668E+00
        -11   -1    0    0    0    0  0.00000000000E+00  0.00000000000E+00  0.45593999997E+02  0.45594000000E+02  0.51100000000E-03 0.  1.
         11   -1    0    0    0    0 -0.00000000000E+00 -0.00000000000E+00 -0.45593999997E+02  0.45594000000E+02  0.51100000000E-03 0. -1.
    9900012    2    1    2    0    0  0.76785841797E+01 -0.10309593763E+01 -0.42703624990E+02  0.47787272823E+02  0.20000008109E+02 0.  0.
        -12    1    1    2    0    0 -0.76785841797E+01  0.10309593763E+01  0.42703624990E+02  0.43400727177E+02  0.00000000000E+00 0.  1.
         11    1    3    3    0    0  0.18039939514E+01 -0.81999790274E+01 -0.26924378861E+02  0.28203124429E+02  0.51100000000E-03 0. -1.
        -11    1    3    3    0    0  0.70290364403E+00 -0.60640426904E+00  0.31214599358E+00  0.97940545881E+00  0.51100000000E-03 0.  1.
         12    1    3    3    0    0  0.51716865843E+01  0.77754239201E+01 -0.16091392122E+02  0.18604742935E+02  0.00000000000E+00 0. -1.
</event>
<event>
 7    1  0.2714068E-010  0.4778727E+02  0.7816164E-02  0.1312668E+00
        -11   -1    0    0    0    0  0.00000000000E+00  0.00000000000E+00  0.45593999997E+02  0.45594000000E+02  0.51100000000E-03 0.  1.
         11   -1    0    0    0    0 -0.00000000000E+00 -0.00000000000E+00 -0.45593999997E+02  0.45594000000E+02  0.51100000000E-03 0. -1.
    9900012    2    1    2    0    0  0.79547589909E+01 -0.11875484453E+01 -0.42648970997E+02  0.47787272022E+02  0.20000004458E+02 0.  0.
        -12    1    1    2    0    0 -0.79547589909E+01  0.11875484453E+01  0.42648970997E+02  0.43400727978E+02  0.00000000000E+00 0.  1.
         11    1    3    3    0    0 -0.21261476068E+01 -0.81712652611E+01 -0.23709116352E+02  0.25167683208E+02  0.51100000000E-03 0. -1.
        -11    1    3    3    0    0  0.76015971019E+01  0.59372164865E+01 -0.15431596989E+02  0.18198049456E+02  0.51100000000E-03 0.  1.
        -12    1    3    3    0    0  0.24793094958E+01  0.10465003293E+01 -0.35082576562E+01  0.44215393584E+01  0.00000000000E+00 0.  1.
</event>
<event>
 7    1  0.2714068E-010  0.4778726E+02  0.7816164E-02  0.1312668E+00
        -11   -1    0    0    0    0  0.00000000000E+00  0.00000000000E+00  0.45593999997E+02  0.45594000000E+02  0.51100000000E-03 0.  1.
         11   -1    0    0    0    0 -0.00000000000E+00 -0.00000000000E+00 -0.45593999997E+02  0.45594000000E+02  0.51100000000E-03 0. -1.
    9900012    2    1    2    0    0  0.18112128289E+02 -0.29435148461E+02 -0.26251604639E+02  0.47787263806E+02  0.19999966996E+02 0.  0.
        -12    1    1    2    0    0 -0.18112128289E+02  0.29435148461E+02  0.26251604639E+02  0.43400736194E+02  0.00000000000E+00 0.  1.
         11    1    3    3    0    0  0.44753153635E+00  0.19740581036E+01 -0.32529932890E+01  0.38313386005E+01  0.51100000000E-03 0. -1.
        -11    1    3    3    0    0  0.16992311970E+02 -0.22501934266E+02 -0.19855493935E+02  0.34486466208E+02  0.51100000000E-03 0.  1.
        -12    1    3    3    0    0  0.67228478249E+00 -0.89072722986E+01 -0.31431174145E+01  0.94694589978E+01  0.00000000000E+00 0.  1.
</event>
<event>
 7    1  0.2714068E-010  0.4778727E+02  0.7816164E-02  0.1312668E+00
        -11   -1    0    0    0    0  0.00000000000E+00  0.00000000000E+00  0.45593999997E+02  0.45594000000E+02  0.51100000000E-03 0.  1.
         11   -1    0    0    0    0 -0.00000000000E+00 -0.00000000000E+00 -0.45593999997E+02  0.45594000000E+02  0.51100000000E-03 0. -1.
    9900012    2    1    2    0    0 -0.11323976456E+02  0.41896482643E+02  0.27488605903E+00  0.47787271170E+02  0.20000000574E+02 0.  0.
        -12    1    1    2    0    0  0.11323976456E+02 -0.41896482643E+02 -0.27488605903E+00  0.43400728830E+02  0.00000000000E+00 0.  1.
         11    1    3    3    0    0 -0.31958394163E+01  0.25089686044E+02 -0.25209044377E+01  0.25417724029E+02  0.51100000000E-03 0. -1.
        -11    1    3    3    0    0 -0.52463760404E+01  0.12610121266E+01 -0.21425848395E+01  0.58056251340E+01  0.51100000000E-03 0.  1.
        -12    1    3    3    0    0 -0.28817609989E+01  0.15545784472E+02  0.49383753361E+01  0.16563922007E+02  0.00000000000E+00 0.  1.
</event>
<event>
 7    1  0.2714068E-010  0.4778728E+02  0.7816164E-02  0.1312668E+00
        -11   -1    0    0    0    0  0.00000000000E+00  0.00000000000E+00  0.45593999997E+02  0.45594000000E+02  0.51100000000E-03 0.  1.
         11   -1    0    0    0    0 -0.00000000000E+00 -0.00000000000E+00 -0.45593999997E+02  0.45594000000E+02  0.51100000000E-03 0. -1.
    9900012    2    1    2    0    0 -0.29464766996E+02  0.12170548310E+02 -0.29450421865E+02  0.47787284702E+02  0.20000062272E+02 0.  0.
        -12    1    1    2    0    0  0.29464766996E+02 -0.12170548310E+02  0.29450421865E+02  0.43400715298E+02  0.00000000000E+00 0.  1.
         11    1    3    3    0    0 -0.13762630408E+02  0.82838679866E+01 -0.44495940831E+01  0.16668273826E+02  0.51100000000E-03 0. -1.
        -11    1    3    3    0    0  0.97916039754E+00  0.73776270507E+00 -0.52818142004E+00  0.13349250042E+01  0.51100000000E-03 0.  1.
         12    1    3    3    0    0 -0.16681296986E+02  0.31489176184E+01 -0.24472646362E+02  0.29784085873E+02  0.00000000000E+00 0. -1.
</event>
<event>
 7    1  0.2714068E-010  0.4778729E+02  0.7816164E-02  0.1312668E+00
        -11   -1    0    0    0    0  0.00000000000E+00  0.00000000000E+00  0.45593999997E+02  0.45594000000E+02  0.51100000000E-03 0.  1.
         11   -1    0    0    0    0 -0.00000000000E+00 -0.00000000000E+00 -0.45593999997E+02  0.45594000000E+02  0.51100000000E-03 0. -1.
    9900012    2    1    2    0    0 -0.32821431820E+02 -0.21017424691E+02 -0.19095637093E+02  0.47787287064E+02  0.20000073039E+02 0.  0.
        -12    1    1    2    0    0  0.32821431820E+02  0.21017424691E+02  0.19095637093E+02  0.43400712936E+02  0.00000000000E+00 0.  1.
         11    1    3    3    0    0 -0.24118004731E+02 -0.69898475888E+01 -0.72200162274E+01  0.26127854027E+02  0.51100000000E-03 0. -1.
        -11    1    3    3    0    0 -0.10219706331E+01 -0.85841065253E+01 -0.48501951870E+01  0.99124014460E+01  0.51100000000E-03 0.  1.
         12    1    3    3    0    0 -0.76814564564E+01 -0.54434705772E+01 -0.70254256789E+01  0.11747031590E+02  0.00000000000E+00 0. -1.
</event>
<event>
 7    1  0.2714068E-010  0.4778727E+02  0.7816164E-02  0.1312668E+00
        -11   -1    0    0    0    0  0.00000000000E+00  0.00000000000E+00  0.45593999997E+02  0.45594000000E+02  0.51100000000E-03 0.  1.
         11   -1    0    0    0    0 -0.00000000000E+00 -0.00000000000E+00 -0.45593999997E+02  0.45594000000E+02  0.51100000000E-03 0. -1.
    9900012    2    1    2    0    0  0.37580427516E+02 -0.10687597827E+02  0.18897346993E+02  0.47787274165E+02  0.20000014228E+02 0.  0.
        -12    1    1    2    0    0 -0.37580427516E+02  0.10687597827E+02 -0.18897346993E+02  0.43400725835E+02  0.00000000000E+00 0.  1.
         11    1    3    3    0    0  0.13552071999E+02 -0.10601656844E+02  0.33125825565E+01  0.17522185559E+02  0.51100000000E-03 0. -1.
        -11    1    3    3    0    0  0.77534905754E+01 -0.19172927849E+01  0.10345495202E+02  0.13069885193E+02  0.51100000000E-03 0.  1.
         12    1    3    3    0    0  0.16274864942E+02  0.18313518016E+01  0.52392692343E+01  0.17195203413E+02  0.00000000000E+00 0. -1.
</event>
<event>
 7    1  0.2714068E-010  0.4778727E+02  0.7816164E-02  0.1312668E+00
        -11   -1    0    0    0    0  0.00000000000E+00  0.00000000000E+00  0.45593999997E+02  0.45594000000E+02  0.51100000000E-03 0. -1.
         11   -1    0    0    0    0 -0.00000000000E+00 -0.00000000000E+00 -0.45593999997E+02  0.45594000000E+02  0.51100000000E-03 0.  1.
    9900012    2    1    2    0    0  0.21855420100E+02 -0.45412032026E+01  0.37220172688E+02  0.47787272250E+02  0.20000005499E+02 0.  0.
        -12    1    1    2    0    0 -0.21855420100E+02  0.45412032026E+01 -0.37220172688E+02  0.43400727750E+02  0.00000000000E+00 0.  1.
         11    1    3    3    0    0  0.10285235948E+02  0.43266615027E+01  0.17052198692E+02  0.20378507275E+02  0.51100000000E-03 0. -1.
        -11    1    3    3    0    0  0.70556807859E+00 -0.26231360254E+01 -0.92884563078E+00  0.28707879386E+01  0.51100000000E-03 0.  1.
         12    1    3    3    0    0  0.10864616074E+02 -0.62447286799E+01  0.21096819626E+02  0.24537977037E+02  0.00000000000E+00 0. -1.
</event>
<event>
 7    1  0.2714068E-010  0.4778727E+02  0.7816164E-02  0.1312668E+00
        -11   -1    0    0    0    0  0.00000000000E+00  0.00000000000E+00  0.45593999997E+02  0.45594000000E+02  0.51100000000E-03 0. -1.
         11   -1    0    0    0    0 -0.00000000000E+00 -0.00000000000E+00 -0.45593999997E+02  0.45594000000E+02  0.51100000000E-03 0.  1.
    9900012    2    1    2    0    0 -0.33035348382E+02  0.10181243858E+02 -0.26241791240E+02  0.47787267556E+02  0.19999984095E+02 0.  0.
        -12    1    1    2    0    0  0.33035348382E+02 -0.10181243858E+02  0.26241791240E+02  0.43400732444E+02  0.00000000000E+00 0.  1.
         11    1    3    3    0    0 -0.70482520343E+01  0.32055011253E+01  0.12331146246E+01  0.78405144055E+01  0.51100000000E-03 0. -1.
        -11    1    3    3    0    0 -0.26464928922E+02  0.52301411443E+01 -0.24377935290E+02  0.36359738289E+02  0.51100000000E-03 0.  1.
        -12    1    3    3    0    0  0.47783257416E+00  0.17456015883E+01 -0.30969705748E+01  0.35870148613E+01  0.00000000000E+00 0.  1.
</event>
<event>
 7    1  0.2714068E-010  0.4778727E+02  0.7816164E-02  0.1312668E+00
        -11   -1    0    0    0    0  0.00000000000E+00  0.00000000000E+00  0.45593999997E+02  0.45594000000E+02  0.51100000000E-03 0.  1.
         11   -1    0    0    0    0 -0.00000000000E+00 -0.00000000000E+00 -0.45593999997E+02  0.45594000000E+02  0.51100000000E-03 0. -1.
    9900012    2    1    2    0    0 -0.28515137357E+01  0.27837011403E+02 -0.33175190406E+02  0.47787267369E+02  0.19999983243E+02 0.  0.
        -12    1    1    2    0    0  0.28515137357E+01 -0.27837011403E+02  0.33175190406E+02  0.43400732631E+02  0.00000000000E+00 0.  1.
         11    1    3    3    0    0 -0.55004542780E+00  0.15715072068E+02 -0.18332078608E+02  0.24152249303E+02  0.51100000000E-03 0. -1.
        -11    1    3    3    0    0 -0.57056946833E+01  0.88718932924E-02 -0.34943013386E+01  0.66906780400E+01  0.51100000000E-03 0.  1.
        -12    1    3    3    0    0  0.34042263753E+01  0.12113067441E+02 -0.11348810460E+02  0.16944340026E+02  0.00000000000E+00 0.  1.
</event>
<event>
 7    1  0.2714068E-010  0.4778727E+02  0.7816164E-02  0.1312668E+00
        -11   -1    0    0    0    0  0.00000000000E+00  0.00000000000E+00  0.45593999997E+02  0.45594000000E+02  0.51100000000E-03 0. -1.
         11   -1    0    0    0    0 -0.00000000000E+00 -0.00000000000E+00 -0.45593999997E+02  0.45594000000E+02  0.51100000000E-03 0.  1.
    9900012    2    1    2    0    0  0.30534461702E+02 -0.29083472745E+02  0.10267484999E+02  0.47787274355E+02  0.20000015094E+02 0.  0.
        -12    1    1    2    0    0 -0.30534461702E+02  0.29083472745E+02 -0.10267484999E+02  0.43400725645E+02  0.00000000000E+00 0.  1.
         11    1    3    3    0    0  0.12616514768E+02 -0.28831776771E+01  0.74633786423E+01  0.14939584313E+02  0.51100000000E-03 0. -1.
        -11    1    3    3    0    0  0.77352544073E+01 -0.15619151386E+02  0.46706610422E+01  0.18044587155E+02  0.51100000000E-03 0.  1.
         12    1    3    3    0    0  0.10182692526E+02 -0.10581143681E+02 -0.18665546855E+01  0.14803102887E+02  0.00000000000E+00 0. -1.
</event>
<event>
 7    1  0.2714068E-010  0.4778727E+02  0.7816164E-02  0.1312668E+00
        -11   -1    0    0    0    0  0.00000000000E+00  0.00000000000E+00  0.45593999997E+02  0.45594000000E+02  0.51100000000E-03 0. -1.
         11   -1    0    0    0    0 -0.00000000000E+00 -0.00000000000E+00 -0.45593999997E+02  0.45594000000E+02  0.51100000000E-03 0.  1.
    9900012    2    1    2    0    0 -0.14237305356E+02  0.24744025869E+02  0.32690293318E+02  0.47787274693E+02  0.20000016633E+02 0.  0.
        -12    1    1    2    0    0  0.14237305356E+02 -0.24744025869E+02 -0.32690293318E+02  0.43400725307E+02  0.00000000000E+00 0.  1.
         11    1    3    3    0    0 -0.11201412791E+02  0.10262092016E+02  0.12430160364E+02  0.19628832568E+02  0.51100000000E-03 0. -1.
        -11    1    3    3    0    0  0.55901004539E+00  0.38231410272E+01  0.15447643378E+02  0.15923523032E+02  0.51100000000E-03 0.  1.
        -12    1    3    3    0    0 -0.35949026112E+01  0.10658792826E+02  0.48124895758E+01  0.12234919093E+02  0.00000000000E+00 0.  1.
</event>
<event>
 7    1  0.2714068E-010  0.4778727E+02  0.7816164E-02  0.1312668E+00
        -11   -1    0    0    0    0  0.00000000000E+00  0.00000000000E+00  0.45593999997E+02  0.45594000000E+02  0.51100000000E-03 0. -1.
         11   -1    0    0    0    0 -0.00000000000E+00 -0.00000000000E+00 -0.45593999997E+02  0.45594000000E+02  0.51100000000E-03 0.  1.
    9900012    2    1    2    0    0  0.30148933072E+02  0.27494212718E+02  0.14789641468E+02  0.47787269671E+02  0.19999993736E+02 0.  0.
        -12    1    1    2    0    0 -0.30148933072E+02 -0.27494212718E+02 -0.14789641468E+02  0.43400730329E+02  0.00000000000E+00 0.  1.
         11    1    3    3    0    0  0.18804375007E+02  0.49285545947E+01  0.50995946716E+01  0.20097289267E+02  0.51100000000E-03 0. -1.
        -11    1    3    3    0    0  0.28141172908E+01  0.98266370819E+01  0.62380723422E+01  0.11974790156E+02  0.51100000000E-03 0.  1.
         12    1    3    3    0    0  0.85304407738E+01  0.12739021042E+02  0.34519744545E+01  0.15715190248E+02  0.00000000000E+00 0. -1.
</event>
<event>
 7    1  0.2714068E-010  0.4778728E+02  0.7816164E-02  0.1312668E+00
        -11   -1    0    0    0    0  0.00000000000E+00  0.00000000000E+00  0.45593999997E+02  0.45594000000E+02  0.51100000000E-03 0. -1.
         11   -1    0    0    0    0 -0.00000000000E+00 -0.00000000000E+00 -0.45593999997E+02  0.45594000000E+02  0.51100000000E-03 0.  1.
    9900012    2    1    2    0    0  0.18450144326E+02  0.11031200037E+01  0.39268283183E+02  0.47787276924E+02  0.20000026806E+02 0.  0.
        -12    1    1    2    0    0 -0.18450144326E+02 -0.11031200037E+01 -0.39268283183E+02  0.43400723076E+02  0.00000000000E+00 0.  1.
         11    1    3    3    0    0 -0.36798723678E+01 -0.20549469888E+00  0.25131525388E+01  0.44608995347E+01  0.51100000000E-03 0. -1.
        -11    1    3    3    0    0  0.25975750218E+01  0.11410726760E+01  0.20443968906E+01  0.34969989639E+01  0.51100000000E-03 0.  1.
         12    1    3    3    0    0  0.19532441672E+02  0.16754202663E+00  0.34710733754E+02  0.39829378425E+02  0.00000000000E+00 0. -1.
</event>
<event>
 7    1  0.2714068E-010  0.4778727E+02  0.7816164E-02  0.1312668E+00
        -11   -1    0    0    0    0  0.00000000000E+00  0.00000000000E+00  0.45593999997E+02  0.45594000000E+02  0.51100000000E-03 0. -1.
         11   -1    0    0    0    0 -0.00000000000E+00 -0.00000000000E+00 -0.45593999997E+02  0.45594000000E+02  0.51100000000E-03 0.  1.
    9900012    2    1    2    0    0  0.14265177704E+02  0.19675456624E+01  0.40942116102E+02  0.47787269571E+02  0.19999993282E+02 0.  0.
        -12    1    1    2    0    0 -0.14265177704E+02 -0.19675456624E+01 -0.40942116102E+02  0.43400730429E+02  0.00000000000E+00 0.  1.
         11    1    3    3    0    0  0.12727892225E+02 -0.24902112458E+01  0.35764620672E+02  0.38043507785E+02  0.51100000000E-03 0. -1.
        -11    1    3    3    0    0 -0.10392657440E+01  0.51636939655E+01  0.46383076789E+01  0.70183835063E+01  0.51100000000E-03 0.  1.
         12    1    3    3    0    0  0.25765512237E+01 -0.70593705726E+00  0.53918775142E+00  0.27253782799E+01  0.00000000000E+00 0. -1.
</event>
<event>
 7    1  0.2714068E-010  0.4778728E+02  0.7816164E-02  0.1312668E+00
        -11   -1    0    0    0    0  0.00000000000E+00  0.00000000000E+00  0.45593999997E+02  0.45594000000E+02  0.51100000000E-03 0.  1.
         11   -1    0    0    0    0 -0.00000000000E+00 -0.00000000000E+00 -0.45593999997E+02  0.45594000000E+02  0.51100000000E-03 0. -1.
    9900012    2    1    2    0    0  0.23585039137E+02 -0.89984433778E+01 -0.35304335514E+02  0.47787283872E+02  0.20000058485E+02 0.  0.
        -12    1    1    2    0    0 -0.23585039137E+02  0.89984433778E+01  0.35304335514E+02  0.43400716128E+02  0.00000000000E+00 0.  1.
         11    1    3    3    0    0 -0.84262804841E+00  0.78864546380E+00 -0.24940991674E+01  0.27481838755E+01  0.51100000000E-03 0. -1.
        -11    1    3    3    0    0  0.32890714966E+01 -0.68608217503E+01 -0.25770998090E+01  0.80330760040E+01  0.51100000000E-03 0.  1.
        -12    1    3    3    0    0  0.21138595689E+02 -0.29262670913E+01 -0.30233136538E+02  0.37006023992E+02  0.00000000000E+00 0.  1.
</event>
<event>
 7    1  0.2714068E-010  0.4778727E+02  0.7816164E-02  0.1312668E+00
        -11   -1    0    0    0    0  0.00000000000E+00  0.00000000000E+00  0.45593999997E+02  0.45594000000E+02  0.51100000000E-03 0.  1.
         11   -1    0    0    0    0 -0.00000000000E+00 -0.00000000000E+00 -0.45593999997E+02  0.45594000000E+02  0.51100000000E-03 0. -1.
    9900012    2    1    2    0    0 -0.22952707033E+00 -0.43374398085E+02 -0.14939971461E+01  0.47787272825E+02  0.20000008117E+02 0.  0.
        -12    1    1    2    0    0  0.22952707033E+00  0.43374398085E+02  0.14939971461E+01  0.43400727175E+02  0.00000000000E+00 0.  1.
         11    1    3    3    0    0  0.82924534532E+01 -0.17466335955E+02  0.97438401445E+00  0.19359418907E+02  0.51100000000E-03 0. -1.
        -11    1    3    3    0    0 -0.75930639787E+01 -0.22209961218E+02  0.68172630562E+00  0.23481945169E+02  0.51100000000E-03 0.  1.
         12    1    3    3    0    0 -0.92891654490E+00 -0.36981009118E+01 -0.31501074662E+01  0.49459087487E+01  0.00000000000E+00 0. -1.
</event>
<event>
 7    1  0.2714068E-010  0.4778726E+02  0.7816164E-02  0.1312668E+00
        -11   -1    0    0    0    0  0.00000000000E+00  0.00000000000E+00  0.45593999997E+02  0.45594000000E+02  0.51100000000E-03 0.  1.
         11   -1    0    0    0    0 -0.00000000000E+00 -0.00000000000E+00 -0.45593999997E+02  0.45594000000E+02  0.51100000000E-03 0. -1.
    9900012    2    1    2    0    0 -0.20034020496E+02 -0.29346480166E+02 -0.24920797772E+02  0.47787262253E+02  0.19999959918E+02 0.  0.
        -12    1    1    2    0    0  0.20034020496E+02  0.29346480166E+02  0.24920797772E+02  0.43400737747E+02  0.00000000000E+00 0.  1.
         11    1    3    3    0    0 -0.93592654788E+01 -0.17203966171E+02 -0.93111911737E+01  0.21685723037E+02  0.51100000000E-03 0. -1.
        -11    1    3    3    0    0  0.32355329659E+00 -0.39959116439E+00 -0.84933919236E+01  0.85089403843E+01  0.51100000000E-03 0.  1.
        -12    1    3    3    0    0 -0.10998308314E+02 -0.11742922830E+02 -0.71162146747E+01  0.17592598832E+02  0.00000000000E+00 0.  1.
</event>
<event>
 7    1  0.2714068E-010  0.4778728E+02  0.7816164E-02  0.1312668E+00
        -11   -1    0    0    0    0  0.00000000000E+00  0.00000000000E+00  0.45593999997E+02  0.45594000000E+02  0.51100000000E-03 0.  1.
         11   -1    0    0    0    0 -0.00000000000E+00 -0.00000000000E+00 -0.45593999997E+02  0.45594000000E+02  0.51100000000E-03 0. -1.
    9900012    2    1    2    0    0  0.45723178298E+00 -0.25691248735E+02 -0.34976757211E+02  0.47787275727E+02  0.20000021349E+02 0.  0.
        -12    1    1    2    0    0 -0.45723178298E+00  0.25691248735E+02  0.34976757211E+02  0.43400724273E+02  0.00000000000E+00 0.  1.
         11    1    3    3    0    0  0.65376699579E+01 -0.23393417337E+02 -0.29796739328E+02  0.38442668716E+02  0.51100000000E-03 0. -1.
        -11    1    3    3    0    0 -0.42106346749E+01  0.47390090698E+00 -0.18426073764E+01  0.46205225505E+01  0.51100000000E-03 0.  1.
         12    1    3    3    0    0 -0.18698035000E+01 -0.27717323052E+01 -0.33374105062E+01  0.47240844602E+01  0.00000000000E+00 0. -1.
</event>
<event>
 7    1  0.2714068E-010  0.4778725E+02  0.7816164E-02  0.1312668E+00
        -11   -1    0    0    0    0  0.00000000000E+00  0.00000000000E+00  0.45593999997E+02  0.45594000000E+02  0.51100000000E-03 0.  1.
         11   -1    0    0    0    0 -0.00000000000E+00 -0.00000000000E+00 -0.45593999997E+02  0.45594000000E+02  0.51100000000E-03 0. -1.
    9900012    2    1    2    0    0 -0.23215157974E+02 -0.87600143382E+01 -0.35608191615E+02  0.47787254373E+02  0.19999923986E+02 0.  0.
        -12    1    1    2    0    0  0.23215157974E+02  0.87600143382E+01  0.35608191615E+02  0.43400745627E+02  0.00000000000E+00 0.  1.
         11    1    3    3    0    0 -0.97684374577E+01 -0.11107550852E+02 -0.26327997739E+02  0.30198733773E+02  0.51100000000E-03 0. -1.
        -11    1    3    3    0    0 -0.58162657089E+01  0.38935985028E+01 -0.56653880581E+01  0.90047586424E+01  0.51100000000E-03 0.  1.
         12    1    3    3    0    0 -0.76304548072E+01 -0.15460619893E+01 -0.36148058178E+01  0.85837619573E+01  0.00000000000E+00 0. -1.
</event>
<event>
 7    1  0.2714068E-010  0.4778727E+02  0.7816164E-02  0.1312668E+00
        -11   -1    0    0    0    0  0.00000000000E+00  0.00000000000E+00  0.45593999997E+02  0.45594000000E+02  0.51100000000E-03 0. -1.
         11   -1    0    0    0    0 -0.00000000000E+00 -0.00000000000E+00 -0.45593999997E+02  0.45594000000E+02  0.51100000000E-03 0.  1.
    9900012    2    1    2    0    0 -0.23207747026E+02  0.31748749027E+02  0.18358670575E+02  0.47787269913E+02  0.19999994842E+02 0.  0.
        -12    1    1    2    0    0  0.23207747026E+02 -0.31748749027E+02 -0.18358670575E+02  0.43400730087E+02  0.00000000000E+00 0.  1.
         11    1    3    3    0    0 -0.87905855095E+01  0.14877752750E+02  0.11203752162E+02  0.20594804763E+02  0.51100000000E-03 0. -1.
        -11    1    3    3    0    0 -0.83465180455E+01  0.51907488353E+01 -0.33149061706E+01  0.10372889671E+02  0.51100000000E-03 0.  1.
        -12    1    3    3    0    0 -0.60706434713E+01  0.11680247442E+02  0.10469824584E+02  0.16819575478E+02  0.00000000000E+00 0.  1.
</event>
<event>
 7    1  0.2714068E-010  0.4778727E+02  0.7816164E-02  0.1312668E+00
        -11   -1    0    0    0    0  0.00000000000E+00  0.00000000000E+00  0.45593999997E+02  0.45594000000E+02  0.51100000000E-03 0. -1.
         11   -1    0    0    0    0 -0.00000000000E+00 -0.00000000000E+00 -0.45593999997E+02  0.45594000000E+02  0.51100000000E-03 0.  1.
    9900012    2    1    2    0    0  0.26860581384E+02  0.29623458593E+02  0.16869592589E+02  0.47787270911E+02  0.19999999394E+02 0.  0.
        -12    1    1    2    0    0 -0.26860581384E+02 -0.29623458593E+02 -0.16869592589E+02  0.43400729089E+02  0.00000000000E+00 0.  1.
         11    1    3    3    0    0  0.24085993742E+02  0.28921194225E+02  0.20252868590E+02  0.42740487320E+02  0.51100000000E-03 0. -1.
        -11    1    3    3    0    0  0.11893713242E+01 -0.13596580008E+00 -0.29762410401E+01  0.32079747249E+01  0.51100000000E-03 0.  1.
         12    1    3    3    0    0  0.15852163176E+01  0.83823016756E+00 -0.40703496108E+00  0.18388088664E+01  0.00000000000E+00 0. -1.
</event>
<event>
 7    1  0.2714068E-010  0.4778727E+02  0.7816164E-02  0.1312668E+00
        -11   -1    0    0    0    0  0.00000000000E+00  0.00000000000E+00  0.45593999997E+02  0.45594000000E+02  0.51100000000E-03 0.  1.
         11   -1    0    0    0    0 -0.00000000000E+00 -0.00000000000E+00 -0.45593999997E+02  0.45594000000E+02  0.51100000000E-03 0. -1.
    9900012    2    1    2    0    0  0.25495072987E+02  0.34010003863E+02  0.87717873667E+01  0.47787270018E+02  0.19999995321E+02 0.  0.
        -12    1    1    2    0    0 -0.25495072987E+02 -0.34010003863E+02 -0.87717873667E+01  0.43400729982E+02  0.00000000000E+00 0.  1.
         11    1    3    3    0    0  0.18865075555E+02  0.23656481589E+02  0.20494528301E+00  0.30258258372E+02  0.51100000000E-03 0. -1.
        -11    1    3    3    0    0 -0.18060378192E+01  0.25830664621E+00  0.23583434413E+01  0.29816570856E+01  0.51100000000E-03 0.  1.
        -12    1    3    3    0    0  0.84360352509E+01  0.10095215628E+02  0.62084986424E+01  0.14547354561E+02  0.00000000000E+00 0.  1.
</event>
<event>
 7    1  0.2714068E-010  0.4778727E+02  0.7816164E-02  0.1312668E+00
        -11   -1    0    0    0    0  0.00000000000E+00  0.00000000000E+00  0.45593999997E+02  0.45594000000E+02  0.51100000000E-03 0. -1.
         11   -1    0    0    0    0 -0.00000000000E+00 -0.00000000000E+00 -0.45593999997E+02  0.45594000000E+02  0.51100000000E-03 0.  1.
    9900012    2    1    2    0    0 -0.91768827674E+01 -0.34112762374E+02  0.25213636747E+02  0.47787271756E+02  0.20000003244E+02 0.  0.
        -12    1    1    2    0    0  0.91768827674E+01  0.34112762374E+02 -0.25213636747E+02  0.43400728244E+02  0.00000000000E+00 0.  1.
         11    1    3    3    0    0 -0.20440785056E+01 -0.11373385266E+02  0.10763520618E+02  0.15791944962E+02  0.51100000000E-03 0. -1.
        -11    1    3    3    0    0  0.19707929377E+01 -0.83787313400E+01  0.12072648782E+02  0.14826867928E+02  0.51100000000E-03 0.  1.
        -12    1    3    3    0    0 -0.91035971994E+01 -0.14360645768E+02  0.23774673472E+01  0.17168458866E+02  0.00000000000E+00 0.  1.
</event>
<event>
 7    1  0.2714068E-010  0.4778727E+02  0.7816164E-02  0.1312668E+00
        -11   -1    0    0    0    0  0.00000000000E+00  0.00000000000E+00  0.45593999997E+02  0.45594000000E+02  0.51100000000E-03 0. -1.
         11   -1    0    0    0    0 -0.00000000000E+00 -0.00000000000E+00 -0.45593999997E+02  0.45594000000E+02  0.51100000000E-03 0.  1.
    9900012    2    1    2    0    0  0.27989793713E+02  0.16181008025E+02  0.28954615537E+02  0.47787270355E+02  0.19999996859E+02 0.  0.
        -12    1    1    2    0    0 -0.27989793713E+02 -0.16181008025E+02 -0.28954615537E+02  0.43400729645E+02  0.00000000000E+00 0.  1.
         11    1    3    3    0    0  0.10435179402E+02  0.10033047168E+02  0.11487031889E+02  0.18479905479E+02  0.51100000000E-03 0. -1.
        -11    1    3    3    0    0 -0.17401171584E+01  0.12306777787E+01 -0.80890187020E+00  0.22796705939E+01  0.51100000000E-03 0.  1.
        -12    1    3    3    0    0  0.19294731470E+02  0.49172830781E+01  0.18276485518E+02  0.27027694283E+02  0.00000000000E+00 0.  1.
</event>
<event>
 7    1  0.2714068E-010  0.4778728E+02  0.7816164E-02  0.1312668E+00
        -11   -1    0    0    0    0  0.00000000000E+00  0.00000000000E+00  0.45593999997E+02  0.45594000000E+02  0.51100000000E-03 0.  1.
         11   -1    0    0    0    0 -0.00000000000E+00 -0.00000000000E+00 -0.45593999997E+02  0.45594000000E+02  0.51100000000E-03 0. -1.
    9900012    2    1    2    0    0  0.47858152068E+01 -0.50036509581E+01 -0.42844863401E+02  0.47787275698E+02  0.20000021215E+02 0.  0.
        -12    1    1    2    0    0 -0.47858152068E+01  0.50036509581E+01  0.42844863401E+02  0.43400724302E+02  0.00000000000E+00 0.  1.
         11    1    3    3    0    0 -0.31571368064E+01  0.13285716397E+01 -0.49503893551E+01  0.60198812650E+01  0.51100000000E-03 0. -1.
        -11    1    3    3    0    0  0.90890014389E+01  0.59713606883E+00 -0.29215807686E+02  0.30602776633E+02  0.51100000000E-03 0.  1.
        -12    1    3    3    0    0 -0.11460494258E+01 -0.69293586667E+01 -0.86786663600E+01  0.11164617799E+02  0.00000000000E+00 0.  1.
</event>
<event>
 7    1  0.2714068E-010  0.4778727E+02  0.7816164E-02  0.1312668E+00
        -11   -1    0    0    0    0  0.00000000000E+00  0.00000000000E+00  0.45593999997E+02  0.45594000000E+02  0.51100000000E-03 0.  1.
         11   -1    0    0    0    0 -0.00000000000E+00 -0.00000000000E+00 -0.45593999997E+02  0.45594000000E+02  0.51100000000E-03 0. -1.
    9900012    2    1    2    0    0  0.10774178180E+01 -0.25818581194E+02 -0.34869234991E+02  0.47787268291E+02  0.19999987447E+02 0.  0.
        -12    1    1    2    0    0 -0.10774178180E+01  0.25818581194E+02  0.34869234991E+02  0.43400731709E+02  0.00000000000E+00 0.  1.
         11    1    3    3    0    0  0.36427022617E+01 -0.42656179231E+01 -0.15572145758E+02  0.16551631334E+02  0.51100000000E-03 0. -1.
        -11    1    3    3    0    0 -0.19263649493E+01 -0.15628173747E+02 -0.63418420927E+01  0.16975560608E+02  0.51100000000E-03 0.  1.
         12    1    3    3    0    0 -0.63891949444E+00 -0.59247895243E+01 -0.12955247140E+02  0.14260076349E+02  0.00000000000E+00 0. -1.
</event>
<event>
 7    1  0.2714068E-010  0.4778727E+02  0.7816164E-02  0.1312668E+00
        -11   -1    0    0    0    0  0.00000000000E+00  0.00000000000E+00  0.45593999997E+02  0.45594000000E+02  0.51100000000E-03 0. -1.
         11   -1    0    0    0    0 -0.00000000000E+00 -0.00000000000E+00 -0.45593999997E+02  0.45594000000E+02  0.51100000000E-03 0.  1.
    9900012    2    1    2    0    0 -0.34114120977E+02  0.31471184435E+01  0.26644806282E+02  0.47787270670E+02  0.19999998294E+02 0.  0.
        -12    1    1    2    0    0  0.34114120977E+02 -0.31471184435E+01 -0.26644806282E+02  0.43400729330E+02  0.00000000000E+00 0.  1.
         11    1    3    3    0    0 -0.60390657002E+01 -0.65159658471E+00 -0.17619776515E+01  0.63245124829E+01  0.51100000000E-03 0. -1.
        -11    1    3    3    0    0 -0.18533561899E+01  0.31003853603E+01  0.15789680020E+01  0.39421388562E+01  0.51100000000E-03 0.  1.
         12    1    3    3    0    0 -0.26221699087E+02  0.69832966785E+00  0.26827815932E+02  0.37520619331E+02  0.00000000000E+00 0. -1.
</event>
<event>
 7    1  0.2714068E-010  0.4778727E+02  0.7816164E-02  0.1312668E+00
        -11   -1    0    0    0    0  0.00000000000E+00  0.00000000000E+00  0.45593999997E+02  0.45594000000E+02  0.51100000000E-03 0.  1.
         11   -1    0    0    0    0 -0.00000000000E+00 -0.00000000000E+00 -0.45593999997E+02  0.45594000000E+02  0.51100000000E-03 0. -1.
    9900012    2    1    2    0    0 -0.36615139779E+02 -0.82047710811E+01 -0.21809086855E+02  0.47787274211E+02  0.20000014439E+02 0.  0.
        -12    1    1    2    0    0  0.36615139779E+02  0.82047710811E+01  0.21809086855E+02  0.43400725789E+02  0.00000000000E+00 0.  1.
         11    1    3    3    0    0 -0.20580717078E+02  0.24096226632E+01 -0.15892026754E+02  0.26113764789E+02  0.51100000000E-03 0. -1.
        -11    1    3    3    0    0 -0.59931637326E+01 -0.71495104374E+01 -0.59242436448E+01  0.11051252148E+02  0.51100000000E-03 0.  1.
         12    1    3    3    0    0 -0.10041258968E+02 -0.34648833069E+01  0.71835434670E-02  0.10622257274E+02  0.00000000000E+00 0. -1.
</event>
<event>
 7    1  0.2714068E-010  0.4778727E+02  0.7816164E-02  0.1312668E+00
        -11   -1    0    0    0    0  0.00000000000E+00  0.00000000000E+00  0.45593999997E+02  0.45594000000E+02  0.51100000000E-03 0. -1.
         11   -1    0    0    0    0 -0.00000000000E+00 -0.00000000000E+00 -0.45593999997E+02  0.45594000000E+02  0.51100000000E-03 0.  1.
    9900012    2    1    2    0    0  0.15500151485E+02 -0.40523504013E+02 -0.11019702252E+01  0.47787269454E+02  0.19999992749E+02 0.  0.
        -12    1    1    2    0    0 -0.15500151485E+02  0.40523504013E+02  0.11019702252E+01  0.43400730546E+02  0.00000000000E+00 0.  1.
         11    1    3    3    0    0  0.95391309258E+01 -0.13436807378E+02 -0.80466796274E+01  0.18338262312E+02  0.51100000000E-03 0.  1.
        -11    1    3    3    0    0 -0.48156039882E-01 -0.15265986479E+02  0.25385420259E+01  0.15475686028E+02  0.51100000000E-03 0. -1.
         12    1    3    3    0    0  0.60091765987E+01 -0.11820710156E+02  0.44061673763E+01  0.13973321114E+02  0.00000000000E+00 0. -1.
</event>
<event>
 7    1  0.2714068E-010  0.4778726E+02  0.7816164E-02  0.1312668E+00
        -11   -1    0    0    0    0  0.00000000000E+00  0.00000000000E+00  0.45593999997E+02  0.45594000000E+02  0.51100000000E-03 0. -1.
         11   -1    0    0    0    0 -0.00000000000E+00 -0.00000000000E+00 -0.45593999997E+02  0.45594000000E+02  0.51100000000E-03 0.  1.
    9900012    2    1    2    0    0 -0.40514887065E+02 -0.11480027952E+02  0.10506039097E+02  0.47787262988E+02  0.19999963267E+02 0.  0.
        -12    1    1    2    0    0  0.40514887065E+02  0.11480027952E+02 -0.10506039097E+02  0.43400737012E+02  0.00000000000E+00 0.  1.
         11    1    3    3    0    0 -0.33178340340E+02 -0.44481277707E+01  0.91233239545E+01  0.34696154666E+02  0.51100000000E-03 0. -1.
        -11    1    3    3    0    0  0.10740162012E+01 -0.22444663951E+01 -0.16071679563E+01  0.29621156797E+01  0.51100000000E-03 0.  1.
        -12    1    3    3    0    0 -0.84105629265E+01 -0.47874337866E+01  0.29898830992E+01  0.10128992642E+02  0.00000000000E+00 0.  1.
</event>
<event>
 7    1  0.2714068E-010  0.4778728E+02  0.7816164E-02  0.1312668E+00
        -11   -1    0    0    0    0  0.00000000000E+00  0.00000000000E+00  0.45593999997E+02  0.45594000000E+02  0.51100000000E-03 0.  1.
         11   -1    0    0    0    0 -0.00000000000E+00 -0.00000000000E+00 -0.45593999997E+02  0.45594000000E+02  0.51100000000E-03 0. -1.
    9900012    2    1    2    0    0  0.25106448078E+02 -0.32311793397E+02 -0.14465027831E+02  0.47787276990E+02  0.20000027110E+02 0.  0.
        -12    1    1    2    0    0 -0.25106448078E+02  0.32311793397E+02  0.14465027831E+02  0.43400723010E+02  0.00000000000E+00 0.  1.
         11    1    3    3    0    0  0.10094801201E+02 -0.10417223445E+02 -0.10174298857E+02  0.17718349615E+02  0.51100000000E-03 0. -1.
        -11    1    3    3    0    0  0.81707034674E+01 -0.17472354041E+02  0.25182387344E+01  0.19452122698E+02  0.51100000000E-03 0.  1.
        -12    1    3    3    0    0  0.68409434097E+01 -0.44222159110E+01 -0.68089677081E+01  0.10616804677E+02  0.00000000000E+00 0.  1.
</event>
<event>
 7    1  0.2714068E-010  0.4778727E+02  0.7816164E-02  0.1312668E+00
        -11   -1    0    0    0    0  0.00000000000E+00  0.00000000000E+00  0.45593999997E+02  0.45594000000E+02  0.51100000000E-03 0. -1.
         11   -1    0    0    0    0 -0.00000000000E+00 -0.00000000000E+00 -0.45593999997E+02  0.45594000000E+02  0.51100000000E-03 0.  1.
    9900012    2    1    2    0    0  0.83267561928E+01 -0.32220150307E+02  0.27859475028E+02  0.47787270705E+02  0.19999998453E+02 0.  0.
        -12    1    1    2    0    0 -0.83267561928E+01  0.32220150307E+02 -0.27859475028E+02  0.43400729295E+02  0.00000000000E+00 0.  1.
         11    1    3    3    0    0  0.11051934810E+02 -0.10911947541E+02  0.16181259284E+02  0.22428754188E+02  0.51100000000E-03 0. -1.
        -11    1    3    3    0    0 -0.42223211951E+01 -0.88363910482E+01  0.65987413484E+01  0.11809030048E+02  0.51100000000E-03 0.  1.
         12    1    3    3    0    0  0.14971425777E+01 -0.12471811718E+02  0.50794743962E+01  0.13549486469E+02  0.00000000000E+00 0. -1.
</event>
<event>
 7    1  0.2714068E-010  0.4778727E+02  0.7816164E-02  0.1312668E+00
        -11   -1    0    0    0    0  0.00000000000E+00  0.00000000000E+00  0.45593999997E+02  0.45594000000E+02  0.51100000000E-03 0.  1.
         11   -1    0    0    0    0 -0.00000000000E+00 -0.00000000000E+00 -0.45593999997E+02  0.45594000000E+02  0.51100000000E-03 0. -1.
    9900012    2    1    2    0    0  0.50720054072E+01 -0.67778618495E+00 -0.43098014068E+02  0.47787269021E+02  0.19999990773E+02 0.  0.
        -12    1    1    2    0    0 -0.50720054072E+01  0.67778618495E+00  0.43098014068E+02  0.43400730979E+02  0.00000000000E+00 0.  1.
         11    1    3    3    0    0 -0.42696648387E+01  0.32187883449E+01 -0.95421318820E+01  0.10938140489E+02  0.51100000000E-03 0.  1.
        -11    1    3    3    0    0  0.54912697714E+01 -0.74680797470E+01 -0.26346915373E+02  0.27930023429E+02  0.51100000000E-03 0. -1.
        -12    1    3    3    0    0  0.38504004745E+01  0.35715052172E+01 -0.72089668125E+01  0.89191051028E+01  0.00000000000E+00 0.  1.
</event>
<event>
 7    1  0.2714068E-010  0.4778727E+02  0.7816164E-02  0.1312668E+00
        -11   -1    0    0    0    0  0.00000000000E+00  0.00000000000E+00  0.45593999997E+02  0.45594000000E+02  0.51100000000E-03 0.  1.
         11   -1    0    0    0    0 -0.00000000000E+00 -0.00000000000E+00 -0.45593999997E+02  0.45594000000E+02  0.51100000000E-03 0. -1.
    9900012    2    1    2    0    0 -0.99883482400E+01 -0.23594757046E+02 -0.35030611165E+02  0.47787269831E+02  0.19999994468E+02 0.  0.
        -12    1    1    2    0    0  0.99883482400E+01  0.23594757046E+02  0.35030611165E+02  0.43400730169E+02  0.00000000000E+00 0.  1.
         11    1    3    3    0    0 -0.10617058165E+02 -0.19899621938E+02 -0.37018509909E+02  0.43348436575E+02  0.51100000000E-03 0. -1.
        -11    1    3    3    0    0  0.51794050463E+00 -0.10989400095E+01  0.12373380750E+01  0.17340522725E+01  0.51100000000E-03 0.  1.
         12    1    3    3    0    0  0.11076942035E+00 -0.25961950985E+01  0.75056066889E+00  0.27047809840E+01  0.00000000000E+00 0. -1.
</event>
<event>
 7    1  0.2714068E-010  0.4778727E+02  0.7816164E-02  0.1312668E+00
        -11   -1    0    0    0    0  0.00000000000E+00  0.00000000000E+00  0.45593999997E+02  0.45594000000E+02  0.51100000000E-03 0.  1.
         11   -1    0    0    0    0 -0.00000000000E+00 -0.00000000000E+00 -0.45593999997E+02  0.45594000000E+02  0.51100000000E-03 0. -1.
    9900012    2    1    2    0    0  0.28052303604E+02  0.17340126440E+02 -0.28213677084E+02  0.47787270778E+02  0.19999998784E+02 0.  0.
        -12    1    1    2    0    0 -0.28052303604E+02 -0.17340126440E+02  0.28213677084E+02  0.43400729222E+02  0.00000000000E+00 0.  1.
         11    1    3    3    0    0 -0.29729794771E+00 -0.24733698091E+01 -0.42512030553E+01  0.49273392375E+01  0.51100000000E-03 0. -1.
        -11    1    3    3    0    0  0.63553711193E+00  0.21244370850E+01 -0.34709251290E+01  0.41187937386E+01  0.51100000000E-03 0.  1.
         12    1    3    3    0    0  0.27714064439E+02  0.17689059164E+02 -0.20491548900E+02  0.38741137802E+02  0.00000000000E+00 0. -1.
</event>
<event>
 7    1  0.2714068E-010  0.4778727E+02  0.7816164E-02  0.1312668E+00
        -11   -1    0    0    0    0  0.00000000000E+00  0.00000000000E+00  0.45593999997E+02  0.45594000000E+02  0.51100000000E-03 0.  1.
         11   -1    0    0    0    0 -0.00000000000E+00 -0.00000000000E+00 -0.45593999997E+02  0.45594000000E+02  0.51100000000E-03 0. -1.
    9900012    2    1    2    0    0 -0.18203316467E+02  0.15119838773E+02 -0.36382038335E+02  0.47787274565E+02  0.20000016051E+02 0.  0.
        -12    1    1    2    0    0  0.18203316467E+02 -0.15119838773E+02  0.36382038335E+02  0.43400725435E+02  0.00000000000E+00 0.  1.
         11    1    3    3    0    0 -0.13384802628E+01  0.52232549041E+01 -0.19943911625E+02  0.20659949961E+02  0.51100000000E-03 0. -1.
        -11    1    3    3    0    0 -0.16763623850E+02  0.65180698533E+01 -0.15127691988E+02  0.23502157015E+02  0.51100000000E-03 0.  1.
        -12    1    3    3    0    0 -0.10121235449E+00  0.33785140151E+01 -0.13104347215E+01  0.36251675893E+01  0.00000000000E+00 0.  1.
</event>
<event>
 7    1  0.2714068E-010  0.4778727E+02  0.7816164E-02  0.1312668E+00
        -11   -1    0    0    0    0  0.00000000000E+00  0.00000000000E+00  0.45593999997E+02  0.45594000000E+02  0.51100000000E-03 0.  1.
         11   -1    0    0    0    0 -0.00000000000E+00 -0.00000000000E+00 -0.45593999997E+02  0.45594000000E+02  0.51100000000E-03 0. -1.
    9900012    2    1    2    0    0  0.18807136403E+02 -0.16504565405E+02 -0.35461446287E+02  0.47787271531E+02  0.20000002216E+02 0.  0.
        -12    1    1    2    0    0 -0.18807136403E+02  0.16504565405E+02  0.35461446287E+02  0.43400728469E+02  0.00000000000E+00 0.  1.
         11    1    3    3    0    0 -0.22826157037E+01 -0.36246389523E+01 -0.43768136567E+01  0.61241195312E+01  0.51100000000E-03 0. -1.
        -11    1    3    3    0    0  0.22450746834E+02 -0.11554331216E+02 -0.30655870060E+02  0.39715500408E+02  0.51100000000E-03 0.  1.
        -12    1    3    3    0    0 -0.13609947273E+01 -0.13255952365E+01 -0.42876257044E+00  0.19476515912E+01  0.00000000000E+00 0.  1.
</event>
<event>
 7    1  0.2714068E-010  0.4778727E+02  0.7816164E-02  0.1312668E+00
        -11   -1    0    0    0    0  0.00000000000E+00  0.00000000000E+00  0.45593999997E+02  0.45594000000E+02  0.51100000000E-03 0. -1.
         11   -1    0    0    0    0 -0.00000000000E+00 -0.00000000000E+00 -0.45593999997E+02  0.45594000000E+02  0.51100000000E-03 0.  1.
    9900012    2    1    2    0    0 -0.63932395590E+01  0.31867319091E+02  0.28761503973E+02  0.47787266724E+02  0.19999980303E+02 0.  0.
        -12    1    1    2    0    0  0.63932395590E+01 -0.31867319091E+02 -0.28761503973E+02  0.43400733276E+02  0.00000000000E+00 0.  1.
         11    1    3    3    0    0 -0.55596548324E+01  0.26338803022E+02  0.19058816229E+02  0.32983037804E+02  0.51100000000E-03 0. -1.
        -11    1    3    3    0    0 -0.40847685571E+01  0.46218708977E+01  0.21508997343E+01  0.65324876340E+01  0.51100000000E-03 0.  1.
         12    1    3    3    0    0  0.32511838305E+01  0.90664517107E+00  0.75517880095E+01  0.82717412862E+01  0.00000000000E+00 0. -1.
</event>
<event>
 7    1  0.2714068E-010  0.4778727E+02  0.7816164E-02  0.1312668E+00
        -11   -1    0    0    0    0  0.00000000000E+00  0.00000000000E+00  0.45593999997E+02  0.45594000000E+02  0.51100000000E-03 0.  1.
         11   -1    0    0    0    0 -0.00000000000E+00 -0.00000000000E+00 -0.45593999997E+02  0.45594000000E+02  0.51100000000E-03 0. -1.
    9900012    2    1    2    0    0  0.17480864359E+01  0.11656571154E+02 -0.41769507788E+02  0.47787271457E+02  0.20000001880E+02 0.  0.
        -12    1    1    2    0    0 -0.17480864359E+01 -0.11656571154E+02  0.41769507788E+02  0.43400728543E+02  0.00000000000E+00 0.  1.
         11    1    3    3    0    0 -0.67085333894E+00  0.93624340870E-01 -0.30404147349E+02  0.30411691600E+02  0.51100000000E-03 0. -1.
        -11    1    3    3    0    0 -0.70110731544E+00  0.33388362444E+01 -0.64565440407E+01  0.73024886269E+01  0.51100000000E-03 0.  1.
         12    1    3    3    0    0  0.31200470903E+01  0.82241105684E+01 -0.49088163981E+01  0.10073091229E+02  0.00000000000E+00 0. -1.
</event>
<event>
 7    1  0.2714068E-010  0.4778727E+02  0.7816164E-02  0.1312668E+00
        -11   -1    0    0    0    0  0.00000000000E+00  0.00000000000E+00  0.45593999997E+02  0.45594000000E+02  0.51100000000E-03 0.  1.
         11   -1    0    0    0    0 -0.00000000000E+00 -0.00000000000E+00 -0.45593999997E+02  0.45594000000E+02  0.51100000000E-03 0. -1.
    9900012    2    1    2    0    0  0.26913266862E+02  0.14482930944E+02 -0.30814676482E+02  0.47787268340E+02  0.19999987668E+02 0.  0.
        -12    1    1    2    0    0 -0.26913266862E+02 -0.14482930944E+02  0.30814676482E+02  0.43400731660E+02  0.00000000000E+00 0.  1.
         11    1    3    3    0    0  0.36588944993E+01  0.61535625447E+01 -0.66070076226E+01  0.97419911176E+01  0.51100000000E-03 0. -1.
        -11    1    3    3    0    0  0.20435389674E+02  0.12621456742E+02 -0.18158177249E+02  0.30110226214E+02  0.51100000000E-03 0.  1.
        -12    1    3    3    0    0  0.28189826890E+01 -0.42920883428E+01 -0.60494916111E+01  0.79350510078E+01  0.00000000000E+00 0.  1.
</event>
<event>
 7    1  0.2714068E-010  0.4778727E+02  0.7816164E-02  0.1312668E+00
        -11   -1    0    0    0    0  0.00000000000E+00  0.00000000000E+00  0.45593999997E+02  0.45594000000E+02  0.51100000000E-03 0.  1.
         11   -1    0    0    0    0 -0.00000000000E+00 -0.00000000000E+00 -0.45593999997E+02  0.45594000000E+02  0.51100000000E-03 0. -1.
    9900012    2    1    2    0    0  0.31805906647E+02  0.72638879651E+01 -0.28622431380E+02  0.47787270235E+02  0.19999996310E+02 0.  0.
        -12    1    1    2    0    0 -0.31805906647E+02 -0.72638879651E+01  0.28622431380E+02  0.43400729765E+02  0.00000000000E+00 0.  1.
         11    1    3    3    0    0  0.19342354680E+02  0.76325190004E+01 -0.13014249347E+02  0.24530648528E+02  0.51100000000E-03 0.  1.
        -11    1    3    3    0    0  0.98308293104E+01  0.51664022596E+01 -0.97594190330E+01  0.14784558748E+02  0.51100000000E-03 0. -1.
        -12    1    3    3    0    0  0.26327226563E+01 -0.55350332949E+01 -0.58487630004E+01  0.84720629598E+01  0.00000000000E+00 0.  1.
</event>
<event>
 7    1  0.2714068E-010  0.4778727E+02  0.7816164E-02  0.1312668E+00
        -11   -1    0    0    0    0  0.00000000000E+00  0.00000000000E+00  0.45593999997E+02  0.45594000000E+02  0.51100000000E-03 0.  1.
         11   -1    0    0    0    0 -0.00000000000E+00 -0.00000000000E+00 -0.45593999997E+02  0.45594000000E+02  0.51100000000E-03 0. -1.
    9900012    2    1    2    0    0  0.10202274364E+02 -0.22660956158E+02 -0.35581146849E+02  0.47787270199E+02  0.19999996144E+02 0.  0.
        -12    1    1    2    0    0 -0.10202274364E+02  0.22660956158E+02  0.35581146849E+02  0.43400729801E+02  0.00000000000E+00 0.  1.
         11    1    3    3    0    0  0.46759094259E+00 -0.38819520739E+01 -0.92112533108E+01  0.10006766761E+02  0.51100000000E-03 0. -1.
        -11    1    3    3    0    0  0.10893935709E+02 -0.21156106111E+02 -0.25754815394E+02  0.35065213207E+02  0.51100000000E-03 0.  1.
        -12    1    3    3    0    0 -0.11592522877E+01  0.23771020266E+01 -0.61507814363E+00  0.27152902302E+01  0.00000000000E+00 0.  1.
</event>
<event>
 7    1  0.2714068E-010  0.4778727E+02  0.7816164E-02  0.1312668E+00
        -11   -1    0    0    0    0  0.00000000000E+00  0.00000000000E+00  0.45593999997E+02  0.45594000000E+02  0.51100000000E-03 0.  1.
         11   -1    0    0    0    0 -0.00000000000E+00 -0.00000000000E+00 -0.45593999997E+02  0.45594000000E+02  0.51100000000E-03 0. -1.
    9900012    2    1    2    0    0 -0.19227606323E+02  0.13498717799E+02 -0.36492563090E+02  0.47787269729E+02  0.19999994003E+02 0.  0.
        -12    1    1    2    0    0  0.19227606323E+02 -0.13498717799E+02  0.36492563090E+02  0.43400730271E+02  0.00000000000E+00 0.  1.
         11    1    3    3    0    0 -0.70609951178E+01  0.65430993334E+01 -0.26214671157E+02  0.27926309908E+02  0.51100000000E-03 0. -1.
        -11    1    3    3    0    0  0.13036721514E+01  0.18640433614E+01 -0.28844181846E+01  0.36734299035E+01  0.51100000000E-03 0.  1.
         12    1    3    3    0    0 -0.13470283357E+02  0.50915751046E+01 -0.73934737485E+01  0.16187529918E+02  0.00000000000E+00 0. -1.
</event>
<event>
 7    1  0.2714068E-010  0.4778727E+02  0.7816164E-02  0.1312668E+00
        -11   -1    0    0    0    0  0.00000000000E+00  0.00000000000E+00  0.45593999997E+02  0.45594000000E+02  0.51100000000E-03 0.  1.
         11   -1    0    0    0    0 -0.00000000000E+00 -0.00000000000E+00 -0.45593999997E+02  0.45594000000E+02  0.51100000000E-03 0. -1.
    9900012    2    1    2    0    0  0.40674870398E+02  0.87413779361E+01 -0.12359871998E+02  0.47787271827E+02  0.20000003570E+02 0.  0.
        -12    1    1    2    0    0 -0.40674870398E+02 -0.87413779361E+01  0.12359871998E+02  0.43400728173E+02  0.00000000000E+00 0.  1.
         11    1    3    3    0    0  0.33574418815E+02  0.27311275669E+01 -0.30011896079E+01  0.33818749177E+02  0.51100000000E-03 0. -1.
        -11    1    3    3    0    0  0.46047626047E+01  0.63546654044E+01 -0.69413083865E+01  0.10476992575E+02  0.51100000000E-03 0.  1.
         12    1    3    3    0    0  0.24956889781E+01 -0.34441503510E+00 -0.24173740038E+01  0.34915300752E+01  0.00000000000E+00 0. -1.
</event>
<event>
 7    1  0.2714068E-010  0.4778726E+02  0.7816164E-02  0.1312668E+00
        -11   -1    0    0    0    0  0.00000000000E+00  0.00000000000E+00  0.45593999997E+02  0.45594000000E+02  0.51100000000E-03 0.  1.
         11   -1    0    0    0    0 -0.00000000000E+00 -0.00000000000E+00 -0.45593999997E+02  0.45594000000E+02  0.51100000000E-03 0. -1.
    9900012    2    1    2    0    0  0.42283576396E+02  0.87112989047E+01 -0.44538482445E+01  0.47787258927E+02  0.19999944753E+02 0.  0.
        -12    1    1    2    0    0 -0.42283576396E+02 -0.87112989047E+01  0.44538482445E+01  0.43400741073E+02  0.00000000000E+00 0.  1.
         11    1    3    3    0    0  0.22091908201E+02 -0.24723887293E+01 -0.16031026293E+01  0.22287553753E+02  0.51100000000E-03 0. -1.
        -11    1    3    3    0    0 -0.14032835494E+00  0.22592332190E+01 -0.23881778826E+01  0.32904742280E+01  0.51100000000E-03 0.  1.
         12    1    3    3    0    0  0.20331996550E+02  0.89244544150E+01 -0.46256773257E+00  0.22209230947E+02  0.00000000000E+00 0. -1.
</event>
<event>
 7    1  0.2714068E-010  0.4778728E+02  0.7816164E-02  0.1312668E+00
        -11   -1    0    0    0    0  0.00000000000E+00  0.00000000000E+00  0.45593999997E+02  0.45594000000E+02  0.51100000000E-03 0.  1.
         11   -1    0    0    0    0 -0.00000000000E+00 -0.00000000000E+00 -0.45593999997E+02  0.45594000000E+02  0.51100000000E-03 0. -1.
    9900012    2    1    2    0    0 -0.30224041900E+01  0.27868408841E+02 -0.33133662541E+02  0.47787277290E+02  0.20000028476E+02 0.  0.
        -12    1    1    2    0    0  0.30224041900E+01 -0.27868408841E+02  0.33133662541E+02  0.43400722710E+02  0.00000000000E+00 0.  1.
         11    1    3    3    0    0 -0.38376991301E+01  0.81464731370E+01 -0.23344614952E+02  0.25021271085E+02  0.51100000000E-03 0. -1.
        -11    1    3    3    0    0  0.17675888503E+01  0.60924416696E+01 -0.75919578601E+00  0.63889431319E+01  0.51100000000E-03 0.  1.
         12    1    3    3    0    0 -0.95229391017E+00  0.13629494034E+02 -0.90298518024E+01  0.16377063073E+02  0.00000000000E+00 0. -1.
</event>
<event>
 7    1  0.2714068E-010  0.4778727E+02  0.7816164E-02  0.1312668E+00
        -11   -1    0    0    0    0  0.00000000000E+00  0.00000000000E+00  0.45593999997E+02  0.45594000000E+02  0.51100000000E-03 0.  1.
         11   -1    0    0    0    0 -0.00000000000E+00 -0.00000000000E+00 -0.45593999997E+02  0.45594000000E+02  0.51100000000E-03 0. -1.
    9900012    2    1    2    0    0 -0.23033606102E+02  0.24477162941E+02 -0.27458056346E+02  0.47787269892E+02  0.19999994743E+02 0.  0.
        -12    1    1    2    0    0  0.23033606102E+02 -0.24477162941E+02  0.27458056346E+02  0.43400730108E+02  0.00000000000E+00 0.  1.
         11    1    3    3    0    0 -0.18717699366E+02  0.24461743752E+02 -0.23154312434E+02  0.38533769106E+02  0.51100000000E-03 0. -1.
        -11    1    3    3    0    0  0.16200312554E+01 -0.91715583391E+00 -0.22118812220E+01  0.28910369928E+01  0.51100000000E-03 0.  1.
         12    1    3    3    0    0 -0.59359379907E+01  0.93257502221E+00 -0.20918626901E+01  0.63624637928E+01  0.00000000000E+00 0. -1.
</event>
<event>
 7    1  0.2714068E-010  0.4778726E+02  0.7816164E-02  0.1312668E+00
        -11   -1    0    0    0    0  0.00000000000E+00  0.00000000000E+00  0.45593999997E+02  0.45594000000E+02  0.51100000000E-03 0. -1.
         11   -1    0    0    0    0 -0.00000000000E+00 -0.00000000000E+00 -0.45593999997E+02  0.45594000000E+02  0.51100000000E-03 0.  1.
    9900012    2    1    2    0    0 -0.16378692049E+02  0.39591810166E+02  0.69174415797E+01  0.47787262869E+02  0.19999962727E+02 0.  0.
        -12    1    1    2    0    0  0.16378692049E+02 -0.39591810166E+02 -0.69174415797E+01  0.43400737131E+02  0.00000000000E+00 0.  1.
         11    1    3    3    0    0 -0.14723846575E+02  0.15625813319E+02  0.78888109749E+01  0.22873369641E+02  0.51100000000E-03 0. -1.
        -11    1    3    3    0    0  0.89194448918E+00  0.33851011009E+00 -0.63710220343E+00  0.11471937697E+01  0.51100000000E-03 0.  1.
         12    1    3    3    0    0 -0.25467899626E+01  0.23627486737E+02 -0.33426719182E+00  0.23766699459E+02  0.00000000000E+00 0. -1.
</event>
<event>
 7    1  0.2714068E-010  0.4778728E+02  0.7816164E-02  0.1312668E+00
        -11   -1    0    0    0    0  0.00000000000E+00  0.00000000000E+00  0.45593999997E+02  0.45594000000E+02  0.51100000000E-03 0. -1.
         11   -1    0    0    0    0 -0.00000000000E+00 -0.00000000000E+00 -0.45593999997E+02  0.45594000000E+02  0.51100000000E-03 0.  1.
    9900012    2    1    2    0    0  0.33939685538E+02  0.23839504161E+02  0.12782738998E+02  0.47787278469E+02  0.20000033854E+02 0.  0.
        -12    1    1    2    0    0 -0.33939685538E+02 -0.23839504161E+02 -0.12782738998E+02  0.43400721531E+02  0.00000000000E+00 0.  1.
         11    1    3    3    0    0  0.49242012048E+01  0.75164680698E+01  0.33365141023E+01  0.95852687164E+01  0.51100000000E-03 0. -1.
        -11    1    3    3    0    0 -0.86645593614E+00  0.46582512829E+01  0.25887432582E+01  0.53992261317E+01  0.51100000000E-03 0.  1.
        -12    1    3    3    0    0  0.29881940269E+02  0.11664784809E+02  0.68574816374E+01  0.32802783621E+02  0.00000000000E+00 0.  1.
</event>
<event>
 7    1  0.2714068E-010  0.4778727E+02  0.7816164E-02  0.1312668E+00
        -11   -1    0    0    0    0  0.00000000000E+00  0.00000000000E+00  0.45593999997E+02  0.45594000000E+02  0.51100000000E-03 0. -1.
         11   -1    0    0    0    0 -0.00000000000E+00 -0.00000000000E+00 -0.45593999997E+02  0.45594000000E+02  0.51100000000E-03 0.  1.
    9900012    2    1    2    0    0 -0.28111024459E+02  0.14218998652E+02 -0.29853205102E+02  0.47787268743E+02  0.19999989506E+02 0.  0.
        -12    1    1    2    0    0  0.28111024459E+02 -0.14218998652E+02  0.29853205102E+02  0.43400731257E+02  0.00000000000E+00 0.  1.
         11    1    3    3    0    0 -0.16908349727E+02  0.43192594001E+01 -0.12013763930E+02  0.21186760401E+02  0.51100000000E-03 0. -1.
        -11    1    3    3    0    0 -0.21432915939E+01  0.67171088952E+01 -0.87201697414E+00  0.71044820101E+01  0.51100000000E-03 0.  1.
        -12    1    3    3    0    0 -0.90593831386E+01  0.31826303565E+01 -0.16967424198E+02  0.19496026332E+02  0.00000000000E+00 0.  1.
</event>
<event>
 7    1  0.2714068E-010  0.4778727E+02  0.7816164E-02  0.1312668E+00
        -11   -1    0    0    0    0  0.00000000000E+00  0.00000000000E+00  0.45593999997E+02  0.45594000000E+02  0.51100000000E-03 0. -1.
         11   -1    0    0    0    0 -0.00000000000E+00 -0.00000000000E+00 -0.45593999997E+02  0.45594000000E+02  0.51100000000E-03 0.  1.
    9900012    2    1    2    0    0 -0.84115154843E+01  0.31448482488E+02  0.28703013325E+02  0.47787267086E+02  0.19999981953E+02 0.  0.
        -12    1    1    2    0    0  0.84115154843E+01 -0.31448482488E+02 -0.28703013325E+02  0.43400732914E+02  0.00000000000E+00 0.  1.
         11    1    3    3    0    0 -0.11584656044E+02  0.18014919748E+02  0.13933011230E+02  0.25551328563E+02  0.51100000000E-03 0. -1.
        -11    1    3    3    0    0  0.45533203444E+01  0.14253708666E+02  0.12772947546E+02  0.19673564145E+02  0.51100000000E-03 0.  1.
         12    1    3    3    0    0 -0.13801797849E+01 -0.82014592628E+00  0.19970545489E+01  0.25623743775E+01  0.00000000000E+00 0. -1.
</event>
<event>
 7    1  0.2714068E-010  0.4778727E+02  0.7816164E-02  0.1312668E+00
        -11   -1    0    0    0    0  0.00000000000E+00  0.00000000000E+00  0.45593999997E+02  0.45594000000E+02  0.51100000000E-03 0.  1.
         11   -1    0    0    0    0 -0.00000000000E+00 -0.00000000000E+00 -0.45593999997E+02  0.45594000000E+02  0.51100000000E-03 0. -1.
    9900012    2    1    2    0    0  0.39508521465E+02  0.17890531176E+02 -0.16214989433E+01  0.47787266908E+02  0.19999981140E+02 0.  0.
        -12    1    1    2    0    0 -0.39508521465E+02 -0.17890531176E+02  0.16214989433E+01  0.43400733092E+02  0.00000000000E+00 0.  1.
         11    1    3    3    0    0  0.12242072016E+02  0.10463989298E+02 -0.58491860337E+01  0.17134070643E+02  0.51100000000E-03 0. -1.
        -11    1    3    3    0    0  0.17720868255E+02  0.56692628381E+01  0.79831591385E+01  0.20246000665E+02  0.51100000000E-03 0.  1.
        -12    1    3    3    0    0  0.95455811936E+01  0.17572790398E+01 -0.37554720480E+01  0.10407195600E+02  0.00000000000E+00 0.  1.
</event>
<event>
 7    1  0.2714068E-010  0.4778727E+02  0.7816164E-02  0.1312668E+00
        -11   -1    0    0    0    0  0.00000000000E+00  0.00000000000E+00  0.45593999997E+02  0.45594000000E+02  0.51100000000E-03 0. -1.
         11   -1    0    0    0    0 -0.00000000000E+00 -0.00000000000E+00 -0.45593999997E+02  0.45594000000E+02  0.51100000000E-03 0.  1.
    9900012    2    1    2    0    0 -0.26301476884E+02  0.38800693674E+01  0.34304529194E+02  0.47787270193E+02  0.19999996119E+02 0.  0.
        -12    1    1    2    0    0  0.26301476884E+02 -0.38800693674E+01 -0.34304529194E+02  0.43400729807E+02  0.00000000000E+00 0.  1.
         11    1    3    3    0    0 -0.51130364458E+01  0.11418785023E+01  0.82679194701E+01  0.97880294664E+01  0.51100000000E-03 0. -1.
        -11    1    3    3    0    0 -0.66912912293E+01 -0.69156713245E+01  0.13325664186E+02  0.16436946628E+02  0.51100000000E-03 0.  1.
        -12    1    3    3    0    0 -0.14497149208E+02  0.96538621896E+01  0.12710945537E+02  0.21562294099E+02  0.00000000000E+00 0.  1.
</event>
<event>
 7    1  0.2714068E-010  0.4778728E+02  0.7816164E-02  0.1312668E+00
        -11   -1    0    0    0    0  0.00000000000E+00  0.00000000000E+00  0.45593999997E+02  0.45594000000E+02  0.51100000000E-03 0. -1.
         11   -1    0    0    0    0 -0.00000000000E+00 -0.00000000000E+00 -0.45593999997E+02  0.45594000000E+02  0.51100000000E-03 0.  1.
    9900012    2    1    2    0    0 -0.14436350875E+02 -0.12631259366E+02  0.38931553691E+02  0.47787276359E+02  0.20000024230E+02 0.  0.
        -12    1    1    2    0    0  0.14436350875E+02  0.12631259366E+02 -0.38931553691E+02  0.43400723641E+02  0.00000000000E+00 0.  1.
         11    1    3    3    0    0 -0.38320168405E+01 -0.61045792853E+01  0.78515812202E+01  0.10658216044E+02  0.51100000000E-03 0. -1.
        -11    1    3    3    0    0 -0.49151192397E+01  0.90174922977E+00  0.35363693304E+00  0.50096515004E+01  0.51100000000E-03 0.  1.
        -12    1    3    3    0    0 -0.56892147952E+01 -0.74284293101E+01  0.30726335538E+02  0.32119408815E+02  0.00000000000E+00 0.  1.
</event>
<event>
 7    1  0.2714068E-010  0.4778727E+02  0.7816164E-02  0.1312668E+00
        -11   -1    0    0    0    0  0.00000000000E+00  0.00000000000E+00  0.45593999997E+02  0.45594000000E+02  0.51100000000E-03 0.  1.
         11   -1    0    0    0    0 -0.00000000000E+00 -0.00000000000E+00 -0.45593999997E+02  0.45594000000E+02  0.51100000000E-03 0. -1.
    9900012    2    1    2    0    0  0.30059636633E+02  0.28858527272E+02 -0.12133704756E+02  0.47787272565E+02  0.20000006931E+02 0.  0.
        -12    1    1    2    0    0 -0.30059636633E+02 -0.28858527272E+02  0.12133704756E+02  0.43400727435E+02  0.00000000000E+00 0.  1.
         11    1    3    3    0    0  0.10344214463E+02  0.81470462839E+00  0.16131148449E+00  0.10377501537E+02  0.51100000000E-03 0. -1.
        -11    1    3    3    0    0  0.10413122826E+02  0.95405400832E+01 -0.80944757607E+01  0.16278070223E+02  0.51100000000E-03 0.  1.
         12    1    3    3    0    0  0.93022993439E+01  0.18503282560E+02 -0.42005404795E+01  0.21131700805E+02  0.00000000000E+00 0. -1.
</event>
<event>
 7    1  0.2714068E-010  0.4778728E+02  0.7816164E-02  0.1312668E+00
        -11   -1    0    0    0    0  0.00000000000E+00  0.00000000000E+00  0.45593999997E+02  0.45594000000E+02  0.51100000000E-03 0.  1.
         11   -1    0    0    0    0 -0.00000000000E+00 -0.00000000000E+00 -0.45593999997E+02  0.45594000000E+02  0.51100000000E-03 0. -1.
    9900012    2    1    2    0    0 -0.16547742311E+02  0.44338324506E+01 -0.39876511016E+02  0.47787276773E+02  0.20000026120E+02 0.  0.
        -12    1    1    2    0    0  0.16547742311E+02 -0.44338324506E+01  0.39876511016E+02  0.43400723227E+02  0.00000000000E+00 0.  1.
         11    1    3    3    0    0 -0.15604997832E+02 -0.30067469988E+01 -0.30693197074E+02  0.34563403069E+02  0.51100000000E-03 0. -1.
        -11    1    3    3    0    0  0.20884119515E+01  0.30348843100E+01 -0.17810062617E+01  0.40919397380E+01  0.51100000000E-03 0.  1.
        -12    1    3    3    0    0 -0.30311564311E+01  0.44056951394E+01 -0.74023076801E+01  0.91319339661E+01  0.00000000000E+00 0.  1.
</event>
<event>
 7    1  0.2714068E-010  0.4778727E+02  0.7816164E-02  0.1312668E+00
        -11   -1    0    0    0    0  0.00000000000E+00  0.00000000000E+00  0.45593999997E+02  0.45594000000E+02  0.51100000000E-03 0.  1.
         11   -1    0    0    0    0 -0.00000000000E+00 -0.00000000000E+00 -0.45593999997E+02  0.45594000000E+02  0.51100000000E-03 0. -1.
    9900012    2    1    2    0    0 -0.12942844399E+02 -0.39036436728E+02 -0.13865877369E+02  0.47787272255E+02  0.20000005519E+02 0.  0.
        -12    1    1    2    0    0  0.12942844399E+02  0.39036436728E+02  0.13865877369E+02  0.43400727745E+02  0.00000000000E+00 0.  1.
         11    1    3    3    0    0 -0.41038624373E+01 -0.31458354187E+02 -0.71763181184E+01  0.32526439662E+02  0.51100000000E-03 0. -1.
        -11    1    3    3    0    0 -0.63914548517E+01 -0.36026248952E+01 -0.75344327196E+01  0.10516524042E+02  0.51100000000E-03 0.  1.
         12    1    3    3    0    0 -0.24475271103E+01 -0.39754576461E+01  0.84487346889E+00  0.47443085513E+01  0.00000000000E+00 0. -1.
</event>
<event>
 7    1  0.2714068E-010  0.4778728E+02  0.7816164E-02  0.1312668E+00
        -11   -1    0    0    0    0  0.00000000000E+00  0.00000000000E+00  0.45593999997E+02  0.45594000000E+02  0.51100000000E-03 0. -1.
         11   -1    0    0    0    0 -0.00000000000E+00 -0.00000000000E+00 -0.45593999997E+02  0.45594000000E+02  0.51100000000E-03 0.  1.
    9900012    2    1    2    0    0 -0.88573110304E+01 -0.37581765983E+02  0.19818722427E+02  0.47787275908E+02  0.20000022176E+02 0.  0.
        -12    1    1    2    0    0  0.88573110304E+01  0.37581765983E+02 -0.19818722427E+02  0.43400724092E+02  0.00000000000E+00 0.  1.
         11    1    3    3    0    0 -0.49802114540E+01 -0.11126081983E+02  0.20765618273E+01  0.12365448463E+02  0.51100000000E-03 0. -1.
        -11    1    3    3    0    0  0.17065191342E+01 -0.14998413933E+02  0.20937604896E+01  0.15239700171E+02  0.51100000000E-03 0.  1.
        -12    1    3    3    0    0 -0.55836187106E+01 -0.11457270067E+02  0.15648400110E+02  0.20182127274E+02  0.00000000000E+00 0.  1.
</event>
<event>
 7    1  0.2714068E-010  0.4778727E+02  0.7816164E-02  0.1312668E+00
        -11   -1    0    0    0    0  0.00000000000E+00  0.00000000000E+00  0.45593999997E+02  0.45594000000E+02  0.51100000000E-03 0. -1.
         11   -1    0    0    0    0 -0.00000000000E+00 -0.00000000000E+00 -0.45593999997E+02  0.45594000000E+02  0.51100000000E-03 0.  1.
    9900012    2    1    2    0    0 -0.19072419845E+02 -0.23822108232E+02  0.30860542681E+02  0.47787272657E+02  0.20000007353E+02 0.  0.
        -12    1    1    2    0    0  0.19072419845E+02  0.23822108232E+02 -0.30860542681E+02  0.43400727343E+02  0.00000000000E+00 0.  1.
         11    1    3    3    0    0  0.26439623473E+01 -0.17192326809E+01  0.22517734577E-01  0.31538556109E+01  0.51100000000E-03 0. -1.
        -11    1    3    3    0    0 -0.45232886495E+01 -0.30052928181E+01  0.15022457341E+01  0.56345956054E+01  0.51100000000E-03 0.  1.
         12    1    3    3    0    0 -0.17193093542E+02 -0.19097582733E+02  0.29335779212E+02  0.38998821441E+02  0.00000000000E+00 0. -1.
</event>
<event>
 7    1  0.2714068E-010  0.4778727E+02  0.7816164E-02  0.1312668E+00
        -11   -1    0    0    0    0  0.00000000000E+00  0.00000000000E+00  0.45593999997E+02  0.45594000000E+02  0.51100000000E-03 0.  1.
         11   -1    0    0    0    0 -0.00000000000E+00 -0.00000000000E+00 -0.45593999997E+02  0.45594000000E+02  0.51100000000E-03 0. -1.
    9900012    2    1    2    0    0 -0.34224615699E+02 -0.13568359104E+02 -0.22982571247E+02  0.47787271093E+02  0.20000000222E+02 0.  0.
        -12    1    1    2    0    0  0.34224615699E+02  0.13568359104E+02  0.22982571247E+02  0.43400728907E+02  0.00000000000E+00 0.  1.
         11    1    3    3    0    0 -0.61113744161E+01  0.26763104108E+00 -0.58012557302E+01  0.84306044823E+01  0.51100000000E-03 0.  1.
        -11    1    3    3    0    0 -0.17562442668E+00 -0.18171022424E+01 -0.70773080896E+01  0.73089667228E+01  0.51100000000E-03 0. -1.
        -12    1    3    3    0    0 -0.27937616856E+02 -0.12018887902E+02 -0.10104007428E+02  0.32047699888E+02  0.00000000000E+00 0.  1.
</event>
<event>
 7    1  0.2714068E-010  0.4778727E+02  0.7816164E-02  0.1312668E+00
        -11   -1    0    0    0    0  0.00000000000E+00  0.00000000000E+00  0.45593999997E+02  0.45594000000E+02  0.51100000000E-03 0.  1.
         11   -1    0    0    0    0 -0.00000000000E+00 -0.00000000000E+00 -0.45593999997E+02  0.45594000000E+02  0.51100000000E-03 0. -1.
    9900012    2    1    2    0    0 -0.41429727404E+02  0.49931056684E+01 -0.11927690720E+02  0.47787271631E+02  0.20000002677E+02 0.  0.
        -12    1    1    2    0    0  0.41429727404E+02 -0.49931056684E+01  0.11927690720E+02  0.43400728369E+02  0.00000000000E+00 0.  1.
         11    1    3    3    0    0 -0.18467251748E+02 -0.54327298136E+01 -0.54804778917E+01  0.20014734036E+02  0.51100000000E-03 0. -1.
        -11    1    3    3    0    0 -0.58611995251E+01  0.74554491974E+01 -0.37908318438E+01  0.10213118473E+02  0.51100000000E-03 0.  1.
        -12    1    3    3    0    0 -0.17101276131E+02  0.29703862845E+01 -0.26563809850E+01  0.17559419123E+02  0.00000000000E+00 0.  1.
</event>
<event>
 7    1  0.2714068E-010  0.4778727E+02  0.7816164E-02  0.1312668E+00
        -11   -1    0    0    0    0  0.00000000000E+00  0.00000000000E+00  0.45593999997E+02  0.45594000000E+02  0.51100000000E-03 0.  1.
         11   -1    0    0    0    0 -0.00000000000E+00 -0.00000000000E+00 -0.45593999997E+02  0.45594000000E+02  0.51100000000E-03 0. -1.
    9900012    2    1    2    0    0  0.26602790616E+02  0.83210238465E+01 -0.33266731212E+02  0.47787270606E+02  0.19999997999E+02 0.  0.
        -12    1    1    2    0    0 -0.26602790616E+02 -0.83210238465E+01  0.33266731212E+02  0.43400729394E+02  0.00000000000E+00 0.  1.
         11    1    3    3    0    0  0.11418600680E+02  0.66308477097E+01 -0.25785234858E+02  0.28969482560E+02  0.51100000000E-03 0. -1.
        -11    1    3    3    0    0  0.18952679356E+01 -0.12323132682E+00  0.17122354338E+01  0.25571423405E+01  0.51100000000E-03 0.  1.
        -12    1    3    3    0    0  0.13288922000E+02  0.18134074636E+01 -0.91937317880E+01  0.16260645705E+02  0.00000000000E+00 0.  1.
</event>
<event>
 7    1  0.2714068E-010  0.4778728E+02  0.7816164E-02  0.1312668E+00
        -11   -1    0    0    0    0  0.00000000000E+00  0.00000000000E+00  0.45593999997E+02  0.45594000000E+02  0.51100000000E-03 0. -1.
         11   -1    0    0    0    0 -0.00000000000E+00 -0.00000000000E+00 -0.45593999997E+02  0.45594000000E+02  0.51100000000E-03 0.  1.
    9900012    2    1    2    0    0  0.29874956211E+02 -0.21852470677E+02 -0.22662281316E+02  0.47787280216E+02  0.20000041817E+02 0.  0.
        -12    1    1    2    0    0 -0.29874956211E+02  0.21852470677E+02  0.22662281316E+02  0.43400719784E+02  0.00000000000E+00 0.  1.
         11    1    3    3    0    0  0.14195615568E+02 -0.13703334045E+02 -0.28401024619E+01  0.19933967181E+02  0.51100000000E-03 0. -1.
        -11    1    3    3    0    0  0.12997470203E+02 -0.24724912970E+01 -0.14429549057E+02  0.19577010271E+02  0.51100000000E-03 0.  1.
         12    1    3    3    0    0  0.26818704399E+01 -0.56766453352E+01 -0.53926297972E+01  0.82763027644E+01  0.00000000000E+00 0. -1.
</event>
<event>
 7    1  0.2714068E-010  0.4778727E+02  0.7816164E-02  0.1312668E+00
        -11   -1    0    0    0    0  0.00000000000E+00  0.00000000000E+00  0.45593999997E+02  0.45594000000E+02  0.51100000000E-03 0.  1.
         11   -1    0    0    0    0 -0.00000000000E+00 -0.00000000000E+00 -0.45593999997E+02  0.45594000000E+02  0.51100000000E-03 0. -1.
    9900012    2    1    2    0    0  0.19810273045E+02 -0.18361565122E+02 -0.33971010451E+02  0.47787267945E+02  0.19999985868E+02 0.  0.
        -12    1    1    2    0    0 -0.19810273045E+02  0.18361565122E+02  0.33971010451E+02  0.43400732055E+02  0.00000000000E+00 0.  1.
         11    1    3    3    0    0  0.12604438045E+02 -0.93874702857E+01 -0.11172288416E+02  0.19282543544E+02  0.51100000000E-03 0. -1.
        -11    1    3    3    0    0  0.39230742427E+01 -0.11371258030E+02 -0.20672123582E+02  0.23917205404E+02  0.51100000000E-03 0.  1.
        -12    1    3    3    0    0  0.32827607572E+01  0.23971631939E+01 -0.21265984535E+01  0.45875189972E+01  0.00000000000E+00 0.  1.
</event>
<event>
 7    1  0.2714068E-010  0.4778728E+02  0.7816164E-02  0.1312668E+00
        -11   -1    0    0    0    0  0.00000000000E+00  0.00000000000E+00  0.45593999997E+02  0.45594000000E+02  0.51100000000E-03 0.  1.
         11   -1    0    0    0    0 -0.00000000000E+00 -0.00000000000E+00 -0.45593999997E+02  0.45594000000E+02  0.51100000000E-03 0. -1.
    9900012    2    1    2    0    0 -0.34388835891E+02  0.24744133170E+02  0.94211605586E+01  0.47787280806E+02  0.20000044508E+02 0.  0.
        -12    1    1    2    0    0  0.34388835891E+02 -0.24744133170E+02 -0.94211605586E+01  0.43400719194E+02  0.00000000000E+00 0.  1.
         11    1    3    3    0    0 -0.28766539304E+02  0.19087386216E+02  0.14658079406E+02  0.37506018027E+02  0.51100000000E-03 0. -1.
        -11    1    3    3    0    0 -0.59525922022E+01  0.51212915608E+01 -0.55127276116E+01  0.95943289060E+01  0.51100000000E-03 0.  1.
         12    1    3    3    0    0  0.33029561552E+00  0.53545539318E+00  0.27580876415E+00  0.68693387317E+00  0.00000000000E+00 0. -1.
</event>
<event>
 7    1  0.2714068E-010  0.4778727E+02  0.7816164E-02  0.1312668E+00
        -11   -1    0    0    0    0  0.00000000000E+00  0.00000000000E+00  0.45593999997E+02  0.45594000000E+02  0.51100000000E-03 0.  1.
         11   -1    0    0    0    0 -0.00000000000E+00 -0.00000000000E+00 -0.45593999997E+02  0.45594000000E+02  0.51100000000E-03 0. -1.
    9900012    2    1    2    0    0 -0.57632465085E+01 -0.32512225784E+02  0.28166709338E+02  0.47787270160E+02  0.19999995965E+02 0.  0.
        -12    1    1    2    0    0  0.57632465085E+01  0.32512225784E+02 -0.28166709338E+02  0.43400729840E+02  0.00000000000E+00 0.  1.
         11    1    3    3    0    0 -0.47812203662E+01 -0.32805441728E+02  0.22893367900E+02  0.40288501699E+02  0.51100000000E-03 0. -1.
        -11    1    3    3    0    0  0.16194102340E+01  0.52463328311E+00  0.44434790648E+01  0.47583858658E+01  0.51100000000E-03 0.  1.
        -12    1    3    3    0    0 -0.26014363762E+01 -0.23141733984E+00  0.82986237334E+00  0.27403825943E+01  0.00000000000E+00 0.  1.
</event>
<event>
 7    1  0.2714068E-010  0.4778725E+02  0.7816164E-02  0.1312668E+00
        -11   -1    0    0    0    0  0.00000000000E+00  0.00000000000E+00  0.45593999997E+02  0.45594000000E+02  0.51100000000E-03 0.  1.
         11   -1    0    0    0    0 -0.00000000000E+00 -0.00000000000E+00 -0.45593999997E+02  0.45594000000E+02  0.51100000000E-03 0. -1.
    9900012    2    1    2    0    0  0.24687680714E+02  0.34144958237E+02 -0.10405068801E+02  0.47787248753E+02  0.19999898366E+02 0.  0.
        -12    1    1    2    0    0 -0.24687680714E+02 -0.34144958237E+02  0.10405068801E+02  0.43400751247E+02  0.00000000000E+00 0.  1.
         11    1    3    3    0    0  0.97867922159E+01  0.25878660604E+02 -0.13258192478E+01  0.27699172794E+02  0.51100000000E-03 0. -1.
        -11    1    3    3    0    0  0.10796630274E+02  0.79603434239E+01 -0.50633594067E+01  0.14337778818E+02  0.51100000000E-03 0.  1.
         12    1    3    3    0    0  0.41042582239E+01  0.30595420910E+00 -0.40158901461E+01  0.57502971412E+01  0.00000000000E+00 0. -1.
</event>
<event>
 7    1  0.2714068E-010  0.4778727E+02  0.7816164E-02  0.1312668E+00
        -11   -1    0    0    0    0  0.00000000000E+00  0.00000000000E+00  0.45593999997E+02  0.45594000000E+02  0.51100000000E-03 0.  1.
         11   -1    0    0    0    0 -0.00000000000E+00 -0.00000000000E+00 -0.45593999997E+02  0.45594000000E+02  0.51100000000E-03 0. -1.
    9900012    2    1    2    0    0 -0.34940657834E+02  0.22195554960E+02  0.13043421468E+02  0.47787273354E+02  0.20000010528E+02 0.  0.
        -12    1    1    2    0    0  0.34940657834E+02 -0.22195554960E+02 -0.13043421468E+02  0.43400726646E+02  0.00000000000E+00 0.  1.
         11    1    3    3    0    0 -0.71621685984E+01  0.13336187413E+02  0.29191931980E+01  0.15416622293E+02  0.51100000000E-03 0. -1.
        -11    1    3    3    0    0 -0.22332650534E+02  0.69224699718E+01  0.12017357819E+02  0.26288491010E+02  0.51100000000E-03 0.  1.
         12    1    3    3    0    0 -0.54458387015E+01  0.19368975755E+01 -0.18931295498E+01  0.60821600499E+01  0.00000000000E+00 0. -1.
</event>
<event>
 7    1  0.2714068E-010  0.4778728E+02  0.7816164E-02  0.1312668E+00
        -11   -1    0    0    0    0  0.00000000000E+00  0.00000000000E+00  0.45593999997E+02  0.45594000000E+02  0.51100000000E-03 0.  1.
         11   -1    0    0    0    0 -0.00000000000E+00 -0.00000000000E+00 -0.45593999997E+02  0.45594000000E+02  0.51100000000E-03 0. -1.
    9900012    2    1    2    0    0 -0.27285186348E+01  0.41299514942E+02 -0.13058638517E+02  0.47787276639E+02  0.20000025507E+02 0.  0.
        -12    1    1    2    0    0  0.27285186348E+01 -0.41299514942E+02  0.13058638517E+02  0.43400723361E+02  0.00000000000E+00 0.  1.
         11    1    3    3    0    0 -0.60493297291E+01  0.29455017258E+02 -0.89615960255E+01  0.31376784975E+02  0.51100000000E-03 0. -1.
        -11    1    3    3    0    0  0.15272934623E+01 -0.16662927065E+01 -0.51337724263E+00  0.23179113784E+01  0.51100000000E-03 0.  1.
         12    1    3    3    0    0  0.17935176319E+01  0.13510790391E+02 -0.35836652490E+01  0.14092580285E+02  0.00000000000E+00 0. -1.
</event>
<event>
 7    1  0.2714068E-010  0.4778727E+02  0.7816164E-02  0.1312668E+00
        -11   -1    0    0    0    0  0.00000000000E+00  0.00000000000E+00  0.45593999997E+02  0.45594000000E+02  0.51100000000E-03 0.  1.
         11   -1    0    0    0    0 -0.00000000000E+00 -0.00000000000E+00 -0.45593999997E+02  0.45594000000E+02  0.51100000000E-03 0. -1.
    9900012    2    1    2    0    0 -0.34015407643E+00  0.33862608330E+02 -0.27144638350E+02  0.47787270295E+02  0.19999996584E+02 0.  0.
        -12    1    1    2    0    0  0.34015407643E+00 -0.33862608330E+02  0.27144638350E+02  0.43400729705E+02  0.00000000000E+00 0.  1.
         11    1    3    3    0    0  0.63410819547E+01  0.13665637855E+02 -0.36945107707E+01  0.15511556609E+02  0.51100000000E-03 0. -1.
        -11    1    3    3    0    0 -0.13636460085E+01  0.26553341239E+00 -0.66658584211E+00  0.15409008325E+01  0.51100000000E-03 0.  1.
         12    1    3    3    0    0 -0.53175900226E+01  0.19931437063E+02 -0.22783541738E+02  0.30734812854E+02  0.00000000000E+00 0. -1.
</event>
<event>
 7    1  0.2714068E-010  0.4778728E+02  0.7816164E-02  0.1312668E+00
        -11   -1    0    0    0    0  0.00000000000E+00  0.00000000000E+00  0.45593999997E+02  0.45594000000E+02  0.51100000000E-03 0. -1.
         11   -1    0    0    0    0 -0.00000000000E+00 -0.00000000000E+00 -0.45593999997E+02  0.45594000000E+02  0.51100000000E-03 0.  1.
    9900012    2    1    2    0    0 -0.37633609180E+02  0.21343522352E+02  0.34333164977E+01  0.47787284010E+02  0.20000059113E+02 0.  0.
        -12    1    1    2    0    0  0.37633609180E+02 -0.21343522352E+02 -0.34333164977E+01  0.43400715990E+02  0.00000000000E+00 0.  1.
         11    1    3    3    0    0 -0.28096431949E+02  0.69797680352E+01  0.78294940526E+01  0.29990458941E+02  0.51100000000E-03 0. -1.
        -11    1    3    3    0    0 -0.63734793272E+01  0.97278626857E+01 -0.28102830644E+01  0.11964541041E+02  0.51100000000E-03 0.  1.
         12    1    3    3    0    0 -0.31636979036E+01  0.46358916308E+01 -0.15858944905E+01  0.58322840271E+01  0.00000000000E+00 0. -1.
</event>
<event>
 7    1  0.2714068E-010  0.4778727E+02  0.7816164E-02  0.1312668E+00
        -11   -1    0    0    0    0  0.00000000000E+00  0.00000000000E+00  0.45593999997E+02  0.45594000000E+02  0.51100000000E-03 0. -1.
         11   -1    0    0    0    0 -0.00000000000E+00 -0.00000000000E+00 -0.45593999997E+02  0.45594000000E+02  0.51100000000E-03 0.  1.
    9900012    2    1    2    0    0 -0.23942785380E+02 -0.32318794108E+02  0.16305282070E+02  0.47787266737E+02  0.19999980362E+02 0.  0.
        -12    1    1    2    0    0  0.23942785380E+02  0.32318794108E+02 -0.16305282070E+02  0.43400733263E+02  0.00000000000E+00 0.  1.
         11    1    3    3    0    0 -0.89579187087E+01 -0.30614311101E+01  0.22423015894E+01  0.97285448405E+01  0.51100000000E-03 0. -1.
        -11    1    3    3    0    0 -0.36980355657E+01 -0.16207543927E+02  0.12371493127E+02  0.20722301745E+02  0.51100000000E-03 0.  1.
        -12    1    3    3    0    0 -0.11286831106E+02 -0.13049819071E+02  0.16914873543E+01  0.17336420151E+02  0.00000000000E+00 0.  1.
</event>
<event>
 7    1  0.2714068E-010  0.4778727E+02  0.7816164E-02  0.1312668E+00
        -11   -1    0    0    0    0  0.00000000000E+00  0.00000000000E+00  0.45593999997E+02  0.45594000000E+02  0.51100000000E-03 0.  1.
         11   -1    0    0    0    0 -0.00000000000E+00 -0.00000000000E+00 -0.45593999997E+02  0.45594000000E+02  0.51100000000E-03 0. -1.
    9900012    2    1    2    0    0 -0.76142550291E+01 -0.38571185854E+02 -0.18382322076E+02  0.47787273938E+02  0.20000013194E+02 0.  0.
        -12    1    1    2    0    0  0.76142550291E+01  0.38571185854E+02  0.18382322076E+02  0.43400726062E+02  0.00000000000E+00 0.  1.
         11    1    3    3    0    0 -0.91872002950E+00 -0.37528967099E+01 -0.21771624232E+01  0.44348975959E+01  0.51100000000E-03 0. -1.
        -11    1    3    3    0    0 -0.64027847649E+01 -0.37231243077E+02 -0.15142540483E+02  0.40699602533E+02  0.51100000000E-03 0.  1.
        -12    1    3    3    0    0 -0.29275023469E+00  0.24129539332E+01 -0.10626191701E+01  0.26527738095E+01  0.00000000000E+00 0.  1.
</event>
<event>
 7    1  0.2714068E-010  0.4778727E+02  0.7816164E-02  0.1312668E+00
        -11   -1    0    0    0    0  0.00000000000E+00  0.00000000000E+00  0.45593999997E+02  0.45594000000E+02  0.51100000000E-03 0.  1.
         11   -1    0    0    0    0 -0.00000000000E+00 -0.00000000000E+00 -0.45593999997E+02  0.45594000000E+02  0.51100000000E-03 0. -1.
    9900012    2    1    2    0    0 -0.21885105271E+02 -0.22518807159E+02 -0.29959453974E+02  0.47787269695E+02  0.19999993846E+02 0.  0.
        -12    1    1    2    0    0  0.21885105271E+02  0.22518807159E+02  0.29959453974E+02  0.43400730305E+02  0.00000000000E+00 0.  1.
         11    1    3    3    0    0 -0.22984038694E+02 -0.13922788246E+02 -0.22987921850E+02  0.35363181679E+02  0.51100000000E-03 0. -1.
        -11    1    3    3    0    0  0.18501935625E+00 -0.56201285544E+01 -0.10304528225E+01  0.57168094607E+01  0.51100000000E-03 0.  1.
         12    1    3    3    0    0  0.91391406616E+00 -0.29758903591E+01 -0.59410793015E+01  0.67072785552E+01  0.00000000000E+00 0. -1.
</event>
<event>
 7    1  0.2714068E-010  0.4778726E+02  0.7816164E-02  0.1312668E+00
        -11   -1    0    0    0    0  0.00000000000E+00  0.00000000000E+00  0.45593999997E+02  0.45594000000E+02  0.51100000000E-03 0.  1.
         11   -1    0    0    0    0 -0.00000000000E+00 -0.00000000000E+00 -0.45593999997E+02  0.45594000000E+02  0.51100000000E-03 0. -1.
    9900012    2    1    2    0    0 -0.41204522978E+02  0.37087103589E+01 -0.13117042546E+02  0.47787262085E+02  0.19999959151E+02 0.  0.
        -12    1    1    2    0    0  0.41204522978E+02 -0.37087103589E+01  0.13117042546E+02  0.43400737915E+02  0.00000000000E+00 0.  1.
         11    1    3    3    0    0 -0.18466128255E+02  0.35318738888E+01  0.50006959497E-01  0.18800918245E+02  0.51100000000E-03 0. -1.
        -11    1    3    3    0    0 -0.98370060415E+00 -0.31161666436E+01 -0.39624785880E+01  0.51360878352E+01  0.51100000000E-03 0.  1.
        -12    1    3    3    0    0 -0.21754694120E+02  0.32930031136E+01 -0.92045709176E+01  0.23850256005E+02  0.00000000000E+00 0.  1.
</event>
<event>
 7    1  0.2714068E-010  0.4778727E+02  0.7816164E-02  0.1312668E+00
        -11   -1    0    0    0    0  0.00000000000E+00  0.00000000000E+00  0.45593999997E+02  0.45594000000E+02  0.51100000000E-03 0. -1.
         11   -1    0    0    0    0 -0.00000000000E+00 -0.00000000000E+00 -0.45593999997E+02  0.45594000000E+02  0.51100000000E-03 0.  1.
    9900012    2    1    2    0    0 -0.41677586070E+01  0.42515281427E+02  0.76618605501E+01  0.47787268743E+02  0.19999989505E+02 0.  0.
        -12    1    1    2    0    0  0.41677586070E+01 -0.42515281427E+02 -0.76618605501E+01  0.43400731257E+02  0.00000000000E+00 0.  1.
         11    1    3    3    0    0 -0.91007959243E+01  0.10877608901E+02 -0.18472139416E+01  0.14302414532E+02  0.51100000000E-03 0.  1.
        -11    1    3    3    0    0  0.39133443286E+01  0.27046713599E+02  0.72853442177E+01  0.28282772512E+02  0.51100000000E-03 0. -1.
        -12    1    3    3    0    0  0.10196929888E+01  0.45909589271E+01  0.22237302739E+01  0.52020816981E+01  0.00000000000E+00 0.  1.
</event>
<event>
 7    1  0.2714068E-010  0.4778728E+02  0.7816164E-02  0.1312668E+00
        -11   -1    0    0    0    0  0.00000000000E+00  0.00000000000E+00  0.45593999997E+02  0.45594000000E+02  0.51100000000E-03 0. -1.
         11   -1    0    0    0    0 -0.00000000000E+00 -0.00000000000E+00 -0.45593999997E+02  0.45594000000E+02  0.51100000000E-03 0.  1.
    9900012    2    1    2    0    0 -0.16767609076E+02 -0.24112020920E+02  0.31954340373E+02  0.47787284157E+02  0.20000059787E+02 0.  0.
        -12    1    1    2    0    0  0.16767609076E+02  0.24112020920E+02 -0.31954340373E+02  0.43400715843E+02  0.00000000000E+00 0.  1.
         11    1    3    3    0    0 -0.49525442236E+01 -0.20803279043E+01  0.17685277419E+02  0.18483086758E+02  0.51100000000E-03 0. -1.
        -11    1    3    3    0    0 -0.43016414768E+01 -0.77857909796E+01  0.21586266497E+01  0.91532688066E+01  0.51100000000E-03 0.  1.
         12    1    3    3    0    0 -0.75134233758E+01 -0.14245902036E+02  0.12110436305E+02  0.20150928593E+02  0.00000000000E+00 0. -1.
</event>
<event>
 7    1  0.2714068E-010  0.4778727E+02  0.7816164E-02  0.1312668E+00
        -11   -1    0    0    0    0  0.00000000000E+00  0.00000000000E+00  0.45593999997E+02  0.45594000000E+02  0.51100000000E-03 0.  1.
         11   -1    0    0    0    0 -0.00000000000E+00 -0.00000000000E+00 -0.45593999997E+02  0.45594000000E+02  0.51100000000E-03 0. -1.
    9900012    2    1    2    0    0  0.79041883549E+00 -0.10745673583E+02 -0.42041993535E+02  0.47787268634E+02  0.19999989011E+02 0.  0.
        -12    1    1    2    0    0 -0.79041883549E+00  0.10745673583E+02  0.42041993535E+02  0.43400731366E+02  0.00000000000E+00 0.  1.
         11    1    3    3    0    0 -0.26283989773E+01 -0.76880650018E+01 -0.30807197339E+02  0.31860606285E+02  0.51100000000E-03 0. -1.
        -11    1    3    3    0    0  0.44258736266E+01  0.24636597371E+01 -0.27784212624E+01  0.57773351670E+01  0.51100000000E-03 0.  1.
        -12    1    3    3    0    0 -0.10070558137E+01 -0.55212683181E+01 -0.84563749331E+01  0.10149327183E+02  0.00000000000E+00 0.  1.
</event>
<event>
 7    1  0.2714068E-010  0.4778727E+02  0.7816164E-02  0.1312668E+00
        -11   -1    0    0    0    0  0.00000000000E+00  0.00000000000E+00  0.45593999997E+02  0.45594000000E+02  0.51100000000E-03 0. -1.
         11   -1    0    0    0    0 -0.00000000000E+00 -0.00000000000E+00 -0.45593999997E+02  0.45594000000E+02  0.51100000000E-03 0.  1.
    9900012    2    1    2    0    0 -0.11742869299E+02  0.30918256709E+02  0.28103198387E+02  0.47787270319E+02  0.19999996692E+02 0.  0.
        -12    1    1    2    0    0  0.11742869299E+02 -0.30918256709E+02 -0.28103198387E+02  0.43400729681E+02  0.00000000000E+00 0.  1.
         11    1    3    3    0    0 -0.22186024826E+01  0.17855086152E+02  0.39863321977E+01  0.18428704326E+02  0.51100000000E-03 0. -1.
        -11    1    3    3    0    0 -0.35073015383E+01  0.48957890678E+01  0.12889268014E+02  0.14226845922E+02  0.51100000000E-03 0.  1.
         12    1    3    3    0    0 -0.60169652785E+01  0.81673814891E+01  0.11227598175E+02  0.15131720072E+02  0.00000000000E+00 0. -1.
</event>
<event>
 7    1  0.2714068E-010  0.4778727E+02  0.7816164E-02  0.1312668E+00
        -11   -1    0    0    0    0  0.00000000000E+00  0.00000000000E+00  0.45593999997E+02  0.45594000000E+02  0.51100000000E-03 0.  1.
         11   -1    0    0    0    0 -0.00000000000E+00 -0.00000000000E+00 -0.45593999997E+02  0.45594000000E+02  0.51100000000E-03 0. -1.
    9900012    2    1    2    0    0 -0.13649513998E+02 -0.33808329533E+02  0.23543809439E+02  0.47787270270E+02  0.19999996469E+02 0.  0.
        -12    1    1    2    0    0  0.13649513998E+02  0.33808329533E+02 -0.23543809439E+02  0.43400729730E+02  0.00000000000E+00 0.  1.
         11    1    3    3    0    0 -0.84326508137E+01 -0.16620779624E+02  0.16844418081E+02  0.25121591028E+02  0.51100000000E-03 0. -1.
        -11    1    3    3    0    0 -0.71712223965E+01 -0.16686125678E+02  0.29389116342E+01  0.18398109214E+02  0.51100000000E-03 0.  1.
        -12    1    3    3    0    0  0.19543592120E+01 -0.50142423149E+00  0.37604797234E+01  0.42675700275E+01  0.00000000000E+00 0.  1.
</event>
<event>
 7    1  0.2714068E-010  0.4778727E+02  0.7816164E-02  0.1312668E+00
        -11   -1    0    0    0    0  0.00000000000E+00  0.00000000000E+00  0.45593999997E+02  0.45594000000E+02  0.51100000000E-03 0. -1.
         11   -1    0    0    0    0 -0.00000000000E+00 -0.00000000000E+00 -0.45593999997E+02  0.45594000000E+02  0.51100000000E-03 0.  1.
    9900012    2    1    2    0    0 -0.38784850439E+02 -0.24954827593E+01  0.19316597200E+02  0.47787274371E+02  0.20000015166E+02 0.  0.
        -12    1    1    2    0    0  0.38784850439E+02  0.24954827593E+01 -0.19316597200E+02  0.43400725629E+02  0.00000000000E+00 0.  1.
         11    1    3    3    0    0 -0.21571985755E+02  0.63243758965E+01  0.11375171470E+02  0.25194103003E+02  0.51100000000E-03 0. -1.
        -11    1    3    3    0    0 -0.18394777542E+01 -0.49685805983E+01  0.22007597356E+01  0.57370563223E+01  0.51100000000E-03 0.  1.
        -12    1    3    3    0    0 -0.15373386930E+02 -0.38512780575E+01  0.57406659944E+01  0.16856115045E+02  0.00000000000E+00 0.  1.
</event>
<event>
 7    1  0.2714068E-010  0.4778727E+02  0.7816164E-02  0.1312668E+00
        -11   -1    0    0    0    0  0.00000000000E+00  0.00000000000E+00  0.45593999997E+02  0.45594000000E+02  0.51100000000E-03 0. -1.
         11   -1    0    0    0    0 -0.00000000000E+00 -0.00000000000E+00 -0.45593999997E+02  0.45594000000E+02  0.51100000000E-03 0.  1.
    9900012    2    1    2    0    0  0.31523382402E+01  0.27098341607E+02  0.33754492912E+02  0.47787272518E+02  0.20000006718E+02 0.  0.
        -12    1    1    2    0    0 -0.31523382402E+01 -0.27098341607E+02 -0.33754492912E+02  0.43400727482E+02  0.00000000000E+00 0.  1.
         11    1    3    3    0    0  0.92714253325E+00  0.88017269007E+01  0.17589835356E+02  0.19690919172E+02  0.51100000000E-03 0. -1.
        -11    1    3    3    0    0  0.71007736497E+01  0.89010857793E+01  0.42372970374E+01  0.12149279852E+02  0.51100000000E-03 0.  1.
        -12    1    3    3    0    0 -0.48755779427E+01  0.93955289267E+01  0.11927360518E+02  0.15947073494E+02  0.00000000000E+00 0.  1.
</event>
<event>
 7    1  0.2714068E-010  0.4778728E+02  0.7816164E-02  0.1312668E+00
        -11   -1    0    0    0    0  0.00000000000E+00  0.00000000000E+00  0.45593999997E+02  0.45594000000E+02  0.51100000000E-03 0.  1.
         11   -1    0    0    0    0 -0.00000000000E+00 -0.00000000000E+00 -0.45593999997E+02  0.45594000000E+02  0.51100000000E-03 0. -1.
    9900012    2    1    2    0    0  0.22274177211E+02  0.15778713179E+02 -0.33741902323E+02  0.47787277283E+02  0.20000028443E+02 0.  0.
        -12    1    1    2    0    0 -0.22274177211E+02 -0.15778713179E+02  0.33741902323E+02  0.43400722717E+02  0.00000000000E+00 0.  1.
         11    1    3    3    0    0  0.27855689489E+01  0.27184841868E+01 -0.17336681031E+01  0.42608867617E+01  0.51100000000E-03 0. -1.
        -11    1    3    3    0    0  0.19155756306E+02  0.93711826879E+01 -0.14882875613E+02  0.26005038962E+02  0.51100000000E-03 0.  1.
        -12    1    3    3    0    0  0.33285195606E+00  0.36890463045E+01 -0.17125358606E+02  0.17521351559E+02  0.00000000000E+00 0.  1.
</event>
<event>
 7    1  0.2714068E-010  0.4778727E+02  0.7816164E-02  0.1312668E+00
        -11   -1    0    0    0    0  0.00000000000E+00  0.00000000000E+00  0.45593999997E+02  0.45594000000E+02  0.51100000000E-03 0.  1.
         11   -1    0    0    0    0 -0.00000000000E+00 -0.00000000000E+00 -0.45593999997E+02  0.45594000000E+02  0.51100000000E-03 0. -1.
    9900012    2    1    2    0    0 -0.34041090276E+02  0.62205014971E+01 -0.26194132279E+02  0.47787273832E+02  0.20000012711E+02 0.  0.
        -12    1    1    2    0    0  0.34041090276E+02 -0.62205014971E+01  0.26194132279E+02  0.43400726168E+02  0.00000000000E+00 0.  1.
         11    1    3    3    0    0 -0.21652274873E+01  0.22607529337E+01 -0.20177736242E+00  0.31368659940E+01  0.51100000000E-03 0. -1.
        -11    1    3    3    0    0 -0.19400115441E+02  0.10359710253E+02 -0.18577077199E+02  0.28788815070E+02  0.51100000000E-03 0.  1.
        -12    1    3    3    0    0 -0.12475747348E+02 -0.63999616894E+01 -0.74152777175E+01  0.15861592768E+02  0.00000000000E+00 0.  1.
</event>
<event>
 7    1  0.2714068E-010  0.4778727E+02  0.7816164E-02  0.1312668E+00
        -11   -1    0    0    0    0  0.00000000000E+00  0.00000000000E+00  0.45593999997E+02  0.45594000000E+02  0.51100000000E-03 0. -1.
         11   -1    0    0    0    0 -0.00000000000E+00 -0.00000000000E+00 -0.45593999997E+02  0.45594000000E+02  0.51100000000E-03 0.  1.
    9900012    2    1    2    0    0 -0.52848302231E+01 -0.26758039348E+02  0.33759457042E+02  0.47787273739E+02  0.20000012285E+02 0.  0.
        -12    1    1    2    0    0  0.52848302231E+01  0.26758039348E+02 -0.33759457042E+02  0.43400726261E+02  0.00000000000E+00 0.  1.
         11    1    3    3    0    0  0.58942527910E+01 -0.49567305110E+01  0.11806858143E+02  0.14096570249E+02  0.51100000000E-03 0. -1.
        -11    1    3    3    0    0 -0.52382083490E+01 -0.15317257515E+02  0.17480105540E+02  0.23824594318E+02  0.51100000000E-03 0.  1.
        -12    1    3    3    0    0 -0.59408746651E+01 -0.64840513220E+01  0.44724933595E+01  0.98661091715E+01  0.00000000000E+00 0.  1.
</event>
<event>
 7    1  0.2714068E-010  0.4778727E+02  0.7816164E-02  0.1312668E+00
        -11   -1    0    0    0    0  0.00000000000E+00  0.00000000000E+00  0.45593999997E+02  0.45594000000E+02  0.51100000000E-03 0.  1.
         11   -1    0    0    0    0 -0.00000000000E+00 -0.00000000000E+00 -0.45593999997E+02  0.45594000000E+02  0.51100000000E-03 0. -1.
    9900012    2    1    2    0    0 -0.29021985948E+02 -0.29245923524E+02  0.13639043621E+02  0.47787271642E+02  0.20000002725E+02 0.  0.
        -12    1    1    2    0    0  0.29021985948E+02  0.29245923524E+02 -0.13639043621E+02  0.43400728358E+02  0.00000000000E+00 0.  1.
         11    1    3    3    0    0 -0.13502795632E+02 -0.16803977096E+02  0.22113580164E+01  0.21670007861E+02  0.51100000000E-03 0. -1.
        -11    1    3    3    0    0 -0.25092400469E+01 -0.26965393207E+01  0.89448042176E+01  0.96735274162E+01  0.51100000000E-03 0.  1.
        -12    1    3    3    0    0 -0.13009950269E+02 -0.97454071066E+01  0.24828813867E+01  0.16443736365E+02  0.00000000000E+00 0.  1.
</event>
<event>
 7    1  0.2714068E-010  0.4778728E+02  0.7816164E-02  0.1312668E+00
        -11   -1    0    0    0    0  0.00000000000E+00  0.00000000000E+00  0.45593999997E+02  0.45594000000E+02  0.51100000000E-03 0. -1.
         11   -1    0    0    0    0 -0.00000000000E+00 -0.00000000000E+00 -0.45593999997E+02  0.45594000000E+02  0.51100000000E-03 0.  1.
    9900012    2    1    2    0    0 -0.31152461267E+02 -0.25763142852E+02  0.15792641404E+02  0.47787275408E+02  0.20000019895E+02 0.  0.
        -12    1    1    2    0    0  0.31152461267E+02  0.25763142852E+02 -0.15792641404E+02  0.43400724592E+02  0.00000000000E+00 0.  1.
         11    1    3    3    0    0 -0.14787658421E+02 -0.12330354811E+02  0.15377370485E+02  0.24640941838E+02  0.51100000000E-03 0. -1.
        -11    1    3    3    0    0 -0.93083174348E+01 -0.11040346640E+02 -0.33111091040E+01  0.14815447046E+02  0.51100000000E-03 0.  1.
        -12    1    3    3    0    0 -0.70564854111E+01 -0.23924414005E+01  0.37263800229E+01  0.83308865247E+01  0.00000000000E+00 0.  1.
</event>
<event>
 7    1  0.2714068E-010  0.4778727E+02  0.7816164E-02  0.1312668E+00
        -11   -1    0    0    0    0  0.00000000000E+00  0.00000000000E+00  0.45593999997E+02  0.45594000000E+02  0.51100000000E-03 0.  1.
         11   -1    0    0    0    0 -0.00000000000E+00 -0.00000000000E+00 -0.45593999997E+02  0.45594000000E+02  0.51100000000E-03 0. -1.
    9900012    2    1    2    0    0  0.28709835751E+02 -0.77332593889E+01 -0.31615904526E+02  0.47787269722E+02  0.19999993971E+02 0.  0.
        -12    1    1    2    0    0 -0.28709835751E+02  0.77332593889E+01  0.31615904526E+02  0.43400730278E+02  0.00000000000E+00 0.  1.
         11    1    3    3    0    0  0.72863620116E+01 -0.30668449026E+01 -0.41342605424E+01  0.89212510061E+01  0.51100000000E-03 0. -1.
        -11    1    3    3    0    0  0.11300009642E+02 -0.29246815145E+01 -0.25983890462E+02  0.28485198677E+02  0.51100000000E-03 0.  1.
        -12    1    3    3    0    0  0.10123464097E+02 -0.17417329718E+01 -0.14977535224E+01  0.10380820039E+02  0.00000000000E+00 0.  1.
</event>
<event>
 7    1  0.2714068E-010  0.4778727E+02  0.7816164E-02  0.1312668E+00
        -11   -1    0    0    0    0  0.00000000000E+00  0.00000000000E+00  0.45593999997E+02  0.45594000000E+02  0.51100000000E-03 0.  1.
         11   -1    0    0    0    0 -0.00000000000E+00 -0.00000000000E+00 -0.45593999997E+02  0.45594000000E+02  0.51100000000E-03 0. -1.
    9900012    2    1    2    0    0  0.39255827884E+02 -0.17917703184E+01 -0.18422619616E+02  0.47787269853E+02  0.19999994569E+02 0.  0.
        -12    1    1    2    0    0 -0.39255827884E+02  0.17917703184E+01  0.18422619616E+02  0.43400730147E+02  0.00000000000E+00 0.  1.
         11    1    3    3    0    0  0.17007191288E+02 -0.42857520729E+01 -0.14394991797E+02  0.22689821847E+02  0.51100000000E-03 0. -1.
        -11    1    3    3    0    0  0.42664966198E+01  0.31122102337E+01  0.26461473767E+01  0.59068555210E+01  0.51100000000E-03 0.  1.
        -12    1    3    3    0    0  0.17982139976E+02 -0.61822847923E+00 -0.66737751956E+01  0.19190592486E+02  0.00000000000E+00 0.  1.
</event>
<event>
 7    1  0.2714068E-010  0.4778727E+02  0.7816164E-02  0.1312668E+00
        -11   -1    0    0    0    0  0.00000000000E+00  0.00000000000E+00  0.45593999997E+02  0.45594000000E+02  0.51100000000E-03 0.  1.
         11   -1    0    0    0    0 -0.00000000000E+00 -0.00000000000E+00 -0.45593999997E+02  0.45594000000E+02  0.51100000000E-03 0. -1.
    9900012    2    1    2    0    0  0.12301380154E+02  0.15251138144E+02 -0.38725988215E+02  0.47787270380E+02  0.19999996969E+02 0.  0.
        -12    1    1    2    0    0 -0.12301380154E+02 -0.15251138144E+02  0.38725988215E+02  0.43400729620E+02  0.00000000000E+00 0.  1.
         11    1    3    3    0    0  0.71102507725E+01  0.27093519019E+01 -0.78416354435E+01  0.10926458734E+02  0.51100000000E-03 0. -1.
        -11    1    3    3    0    0  0.17395419397E+01  0.84935717050E+01 -0.30291688339E+02  0.31507985482E+02  0.51100000000E-03 0.  1.
        -12    1    3    3    0    0  0.34515874415E+01  0.40482145373E+01 -0.59266443219E+00  0.53528261634E+01  0.00000000000E+00 0.  1.
</event>
<event>
 7    1  0.2714068E-010  0.4778727E+02  0.7816164E-02  0.1312668E+00
        -11   -1    0    0    0    0  0.00000000000E+00  0.00000000000E+00  0.45593999997E+02  0.45594000000E+02  0.51100000000E-03 0.  1.
         11   -1    0    0    0    0 -0.00000000000E+00 -0.00000000000E+00 -0.45593999997E+02  0.45594000000E+02  0.51100000000E-03 0. -1.
    9900012    2    1    2    0    0 -0.33296622271E+02  0.27414579653E+02  0.48372400828E+01  0.47787272773E+02  0.20000007883E+02 0.  0.
        -12    1    1    2    0    0  0.33296622271E+02 -0.27414579653E+02 -0.48372400828E+01  0.43400727227E+02  0.00000000000E+00 0.  1.
         11    1    3    3    0    0 -0.23832661149E+02  0.18156112413E+02  0.31648665295E+01  0.30127338678E+02  0.51100000000E-03 0. -1.
        -11    1    3    3    0    0 -0.11535346990E+01 -0.58549672429E+00 -0.35351678621E+01  0.37644203790E+01  0.51100000000E-03 0.  1.
        -12    1    3    3    0    0 -0.83104264227E+01  0.98439639640E+01  0.52075414154E+01  0.13895513716E+02  0.00000000000E+00 0.  1.
</event>
<event>
 7    1  0.2714068E-010  0.4778728E+02  0.7816164E-02  0.1312668E+00
        -11   -1    0    0    0    0  0.00000000000E+00  0.00000000000E+00  0.45593999997E+02  0.45594000000E+02  0.51100000000E-03 0.  1.
         11   -1    0    0    0    0 -0.00000000000E+00 -0.00000000000E+00 -0.45593999997E+02  0.45594000000E+02  0.51100000000E-03 0. -1.
    9900012    2    1    2    0    0 -0.34208681503E+02  0.23569092854E+02 -0.12565291009E+02  0.47787279196E+02  0.20000037167E+02 0.  0.
        -12    1    1    2    0    0  0.34208681503E+02 -0.23569092854E+02  0.12565291009E+02  0.43400720804E+02  0.00000000000E+00 0.  1.
         11    1    3    3    0    0 -0.20800236562E+01  0.17405618362E+01 -0.72946110941E+00  0.28085882018E+01  0.51100000000E-03 0. -1.
        -11    1    3    3    0    0 -0.12433831760E+02  0.19624117486E+02 -0.91976396922E+01  0.24986050819E+02  0.51100000000E-03 0.  1.
        -12    1    3    3    0    0 -0.19694826087E+02  0.22044135317E+01 -0.26381902074E+01  0.19992640176E+02  0.00000000000E+00 0.  1.
</event>
<event>
 7    1  0.2714068E-010  0.4778727E+02  0.7816164E-02  0.1312668E+00
        -11   -1    0    0    0    0  0.00000000000E+00  0.00000000000E+00  0.45593999997E+02  0.45594000000E+02  0.51100000000E-03 0. -1.
         11   -1    0    0    0    0 -0.00000000000E+00 -0.00000000000E+00 -0.45593999997E+02  0.45594000000E+02  0.51100000000E-03 0.  1.
    9900012    2    1    2    0    0 -0.40562229355E+02  0.14163111095E+02  0.61429251187E+01  0.47787266191E+02  0.19999977873E+02 0.  0.
        -12    1    1    2    0    0  0.40562229355E+02 -0.14163111095E+02 -0.61429251187E+01  0.43400733809E+02  0.00000000000E+00 0.  1.
         11    1    3    3    0    0  0.21197096827E-01  0.37098876545E+00  0.24328107227E+01  0.24610262605E+01  0.51100000000E-03 0. -1.
        -11    1    3    3    0    0 -0.29676744343E+02  0.12900664238E+02 -0.29861290132E+01  0.32496973079E+02  0.51100000000E-03 0.  1.
        -12    1    3    3    0    0 -0.10906682109E+02  0.89145809139E+00  0.66962434092E+01  0.12829266851E+02  0.00000000000E+00 0.  1.
</event>
<event>
 7    1  0.2714068E-010  0.4778728E+02  0.7816164E-02  0.1312668E+00
        -11   -1    0    0    0    0  0.00000000000E+00  0.00000000000E+00  0.45593999997E+02  0.45594000000E+02  0.51100000000E-03 0.  1.
         11   -1    0    0    0    0 -0.00000000000E+00 -0.00000000000E+00 -0.45593999997E+02  0.45594000000E+02  0.51100000000E-03 0. -1.
    9900012    2    1    2    0    0 -0.24015398743E+02 -0.31025357027E+02 -0.18555612746E+02  0.47787275123E+02  0.20000018597E+02 0.  0.
        -12    1    1    2    0    0  0.24015398743E+02  0.31025357027E+02  0.18555612746E+02  0.43400724877E+02  0.00000000000E+00 0.  1.
         11    1    3    3    0    0 -0.10697917877E+02 -0.14097635262E+02 -0.14611566111E+02  0.22949654276E+02  0.51100000000E-03 0. -1.
        -11    1    3    3    0    0 -0.13061024018E+02 -0.17371103776E+02 -0.90143808354E+00  0.21752199560E+02  0.51100000000E-03 0.  1.
         12    1    3    3    0    0 -0.25645684788E+00  0.44338201187E+00 -0.30426085519E+01  0.30854212878E+01  0.00000000000E+00 0. -1.
</event>
<event>
 7    1  0.2714068E-010  0.4778726E+02  0.7816164E-02  0.1312668E+00
        -11   -1    0    0    0    0  0.00000000000E+00  0.00000000000E+00  0.45593999997E+02  0.45594000000E+02  0.51100000000E-03 0. -1.
         11   -1    0    0    0    0 -0.00000000000E+00 -0.00000000000E+00 -0.45593999997E+02  0.45594000000E+02  0.51100000000E-03 0.  1.
    9900012    2    1    2    0    0 -0.21805652859E+02  0.28946328300E+02  0.23879871145E+02  0.47787255023E+02  0.19999926951E+02 0.  0.
        -12    1    1    2    0    0  0.21805652859E+02 -0.28946328300E+02 -0.23879871145E+02  0.43400744977E+02  0.00000000000E+00 0.  1.
         11    1    3    3    0    0 -0.17810618726E+02  0.28642434332E+02  0.18202445521E+02  0.38326703576E+02  0.51100000000E-03 0. -1.
        -11    1    3    3    0    0 -0.44033665496E+01  0.21445419433E+01  0.19277350059E+01  0.52635405984E+01  0.51100000000E-03 0.  1.
         12    1    3    3    0    0  0.40833241644E+00 -0.18406479746E+01  0.37496906179E+01  0.41970108481E+01  0.00000000000E+00 0. -1.
</event>
<event>
 7    1  0.2714068E-010  0.4778728E+02  0.7816164E-02  0.1312668E+00
        -11   -1    0    0    0    0  0.00000000000E+00  0.00000000000E+00  0.45593999997E+02  0.45594000000E+02  0.51100000000E-03 0. -1.
         11   -1    0    0    0    0 -0.00000000000E+00 -0.00000000000E+00 -0.45593999997E+02  0.45594000000E+02  0.51100000000E-03 0.  1.
    9900012    2    1    2    0    0  0.36302728914E+02  0.28992527541E+01  0.23607818894E+02  0.47787275282E+02  0.20000019320E+02 0.  0.
        -12    1    1    2    0    0 -0.36302728914E+02 -0.28992527541E+01 -0.23607818894E+02  0.43400724718E+02  0.00000000000E+00 0.  1.
         11    1    3    3    0    0  0.18328968006E+02 -0.47883636123E+01  0.12049293849E+02  0.22451391422E+02  0.51100000000E-03 0. -1.
        -11    1    3    3    0    0  0.97956424974E+01  0.78972433049E+01  0.11659936322E+02  0.17154450707E+02  0.51100000000E-03 0.  1.
        -12    1    3    3    0    0  0.81781184107E+01 -0.20962693848E+00 -0.10141127779E+00  0.81814331532E+01  0.00000000000E+00 0.  1.
</event>
<event>
 7    1  0.2714068E-010  0.4778727E+02  0.7816164E-02  0.1312668E+00
        -11   -1    0    0    0    0  0.00000000000E+00  0.00000000000E+00  0.45593999997E+02  0.45594000000E+02  0.51100000000E-03 0.  1.
         11   -1    0    0    0    0 -0.00000000000E+00 -0.00000000000E+00 -0.45593999997E+02  0.45594000000E+02  0.51100000000E-03 0. -1.
    9900012    2    1    2    0    0  0.79281995333E+01  0.37854407770E+02 -0.19692915823E+02  0.47787268796E+02  0.19999989747E+02 0.  0.
        -12    1    1    2    0    0 -0.79281995333E+01 -0.37854407770E+02  0.19692915823E+02  0.43400731204E+02  0.00000000000E+00 0.  1.
         11    1    3    3    0    0 -0.77890414165E+00 -0.25973963362E+00  0.86753095312E+00  0.11944733379E+01  0.51100000000E-03 0. -1.
        -11    1    3    3    0    0  0.38995264473E+01  0.48950314614E+01 -0.92596668314E+01  0.11176272617E+02  0.51100000000E-03 0.  1.
         12    1    3    3    0    0  0.48075772277E+01  0.33219115942E+02 -0.11300779945E+02  0.35416522841E+02  0.00000000000E+00 0. -1.
</event>
<event>
 7    1  0.2714068E-010  0.4778727E+02  0.7816164E-02  0.1312668E+00
        -11   -1    0    0    0    0  0.00000000000E+00  0.00000000000E+00  0.45593999997E+02  0.45594000000E+02  0.51100000000E-03 0.  1.
         11   -1    0    0    0    0 -0.00000000000E+00 -0.00000000000E+00 -0.45593999997E+02  0.45594000000E+02  0.51100000000E-03 0. -1.
    9900012    2    1    2    0    0  0.12667316573E+02 -0.30790817792E+02 -0.27840400077E+02  0.47787271367E+02  0.20000001469E+02 0.  0.
        -12    1    1    2    0    0 -0.12667316573E+02  0.30790817792E+02  0.27840400077E+02  0.43400728633E+02  0.00000000000E+00 0.  1.
         11    1    3    3    0    0  0.34121649481E+01 -0.32172826999E+01 -0.11639195766E+01  0.48320271777E+01  0.51100000000E-03 0. -1.
        -11    1    3    3    0    0  0.13264776510E+02 -0.25830148631E+02 -0.21226771564E+02  0.35968412607E+02  0.51100000000E-03 0.  1.
        -12    1    3    3    0    0 -0.40096248847E+01 -0.17433864612E+01 -0.54497089364E+01  0.69868315824E+01  0.00000000000E+00 0.  1.
</event>
<event>
 7    1  0.2714068E-010  0.4778727E+02  0.7816164E-02  0.1312668E+00
        -11   -1    0    0    0    0  0.00000000000E+00  0.00000000000E+00  0.45593999997E+02  0.45594000000E+02  0.51100000000E-03 0.  1.
         11   -1    0    0    0    0 -0.00000000000E+00 -0.00000000000E+00 -0.45593999997E+02  0.45594000000E+02  0.51100000000E-03 0. -1.
    9900012    2    1    2    0    0  0.21472042053E+02 -0.15810729702E+02 -0.34243180668E+02  0.47787272058E+02  0.20000004621E+02 0.  0.
        -12    1    1    2    0    0 -0.21472042053E+02  0.15810729702E+02  0.34243180668E+02  0.43400727942E+02  0.00000000000E+00 0.  1.
         11    1    3    3    0    0  0.14024740915E+02 -0.54681404167E+01 -0.26705023113E+02  0.30655377621E+02  0.51100000000E-03 0. -1.
        -11    1    3    3    0    0  0.61809922215E+01 -0.46925720872E+01 -0.17190465218E+00  0.77623739349E+01  0.51100000000E-03 0.  1.
         12    1    3    3    0    0  0.12663089161E+01 -0.56500171983E+01 -0.73662529026E+01  0.93695205020E+01  0.00000000000E+00 0. -1.
</event>
<event>
 7    1  0.2714068E-010  0.4778729E+02  0.7816164E-02  0.1312668E+00
        -11   -1    0    0    0    0  0.00000000000E+00  0.00000000000E+00  0.45593999997E+02  0.45594000000E+02  0.51100000000E-03 0. -1.
         11   -1    0    0    0    0 -0.00000000000E+00 -0.00000000000E+00 -0.45593999997E+02  0.45594000000E+02  0.51100000000E-03 0.  1.
    9900012    2    1    2    0    0  0.24550018205E+02 -0.14498486196E+02  0.32721738364E+02  0.47787289667E+02  0.20000084909E+02 0.  0.
        -12    1    1    2    0    0 -0.24550018205E+02  0.14498486196E+02 -0.32721738364E+02  0.43400710333E+02  0.00000000000E+00 0.  1.
         11    1    3    3    0    0  0.20825991314E+02 -0.16675108946E+02  0.32596784321E+02  0.42122814732E+02  0.51100000000E-03 0. -1.
        -11    1    3    3    0    0  0.27557077991E+01  0.77860504876E-01 -0.11928671634E+01  0.30038175815E+01  0.51100000000E-03 0.  1.
         12    1    3    3    0    0  0.96831909183E+00  0.20987622450E+01  0.13178212060E+01  0.26606573540E+01  0.00000000000E+00 0. -1.
</event>
<event>
 7    1  0.2714068E-010  0.4778729E+02  0.7816164E-02  0.1312668E+00
        -11   -1    0    0    0    0  0.00000000000E+00  0.00000000000E+00  0.45593999997E+02  0.45594000000E+02  0.51100000000E-03 0.  1.
         11   -1    0    0    0    0 -0.00000000000E+00 -0.00000000000E+00 -0.45593999997E+02  0.45594000000E+02  0.51100000000E-03 0. -1.
    9900012    2    1    2    0    0  0.38654618283E+02  0.48397254786E-01 -0.19734236502E+02  0.47787286329E+02  0.20000069687E+02 0.  0.
        -12    1    1    2    0    0 -0.38654618283E+02 -0.48397254786E-01  0.19734236502E+02  0.43400713671E+02  0.00000000000E+00 0.  1.
         11    1    3    3    0    0  0.35231429974E+01 -0.57735563642E+01 -0.27378836881E+01  0.72967456459E+01  0.51100000000E-03 0. -1.
        -11    1    3    3    0    0  0.18470208382E+01  0.36352352934E+00  0.11338377484E+01  0.21975494611E+01  0.51100000000E-03 0.  1.
         12    1    3    3    0    0  0.33284454447E+02  0.54584300896E+01 -0.18130190562E+02  0.38292991222E+02  0.00000000000E+00 0. -1.
</event>
<event>
 7    1  0.2714068E-010  0.4778728E+02  0.7816164E-02  0.1312668E+00
        -11   -1    0    0    0    0  0.00000000000E+00  0.00000000000E+00  0.45593999997E+02  0.45594000000E+02  0.51100000000E-03 0. -1.
         11   -1    0    0    0    0 -0.00000000000E+00 -0.00000000000E+00 -0.45593999997E+02  0.45594000000E+02  0.51100000000E-03 0.  1.
    9900012    2    1    2    0    0  0.24930671858E+02 -0.23321659439E+02  0.26798967736E+02  0.47787275697E+02  0.20000021212E+02 0.  0.
        -12    1    1    2    0    0 -0.24930671858E+02  0.23321659439E+02 -0.26798967736E+02  0.43400724303E+02  0.00000000000E+00 0.  1.
         11    1    3    3    0    0  0.14411659538E+02 -0.19270167435E+02  0.24942788531E+02  0.34658014709E+02  0.51100000000E-03 0. -1.
        -11    1    3    3    0    0  0.72580866805E+00 -0.16686835420E+01 -0.16515209256E+01  0.24574020052E+01  0.51100000000E-03 0.  1.
         12    1    3    3    0    0  0.97932036523E+01 -0.23828084623E+01  0.35077001315E+01  0.10671858983E+02  0.00000000000E+00 0. -1.
</event>
<event>
 7    1  0.2714068E-010  0.4778732E+02  0.7816164E-02  0.1312668E+00
        -11   -1    0    0    0    0  0.00000000000E+00  0.00000000000E+00  0.45593999997E+02  0.45594000000E+02  0.51100000000E-03 0.  1.
         11   -1    0    0    0    0 -0.00000000000E+00 -0.00000000000E+00 -0.45593999997E+02  0.45594000000E+02  0.51100000000E-03 0. -1.
    9900012    2    1    2    0    0 -0.97116426357E+00  0.22854983194E+01 -0.43329576945E+02  0.47787321424E+02  0.20000229701E+02 0.  0.
        -12    1    1    2    0    0  0.97116426357E+00 -0.22854983194E+01  0.43329576945E+02  0.43400678576E+02  0.00000000000E+00 0.  1.
         11    1    3    3    0    0 -0.39168084779E+01 -0.25650686485E+01 -0.31269968837E+02  0.31618537556E+02  0.51100000000E-03 0. -1.
        -11    1    3    3    0    0  0.61977025502E+01  0.37488727566E+01 -0.91369320414E+01  0.11659720890E+02  0.51100000000E-03 0.  1.
         12    1    3    3    0    0 -0.32520583358E+01  0.11016942114E+01 -0.29226760666E+01  0.45090629786E+01  0.00000000000E+00 0. -1.
</event>
<event>
 7    1  0.2714068E-010  0.4778727E+02  0.7816164E-02  0.1312668E+00
        -11   -1    0    0    0    0  0.00000000000E+00  0.00000000000E+00  0.45593999997E+02  0.45594000000E+02  0.51100000000E-03 0.  1.
         11   -1    0    0    0    0 -0.00000000000E+00 -0.00000000000E+00 -0.45593999997E+02  0.45594000000E+02  0.51100000000E-03 0. -1.
    9900012    2    1    2    0    0  0.42156929510E+02  0.10217474001E+02  0.14211563602E+01  0.47787272287E+02  0.20000005665E+02 0.  0.
        -12    1    1    2    0    0 -0.42156929510E+02 -0.10217474001E+02 -0.14211563602E+01  0.43400727713E+02  0.00000000000E+00 0.  1.
         11    1    3    3    0    0  0.32096279316E+02  0.31128817143E+01  0.67918948531E+01  0.32954377774E+02  0.51100000000E-03 0. -1.
        -11    1    3    3    0    0  0.12541683148E+01  0.44239825760E+01 -0.21923811744E+01  0.50942217727E+01  0.51100000000E-03 0.  1.
        -12    1    3    3    0    0  0.88064818788E+01  0.26806097103E+01 -0.31783573185E+01  0.97386727404E+01  0.00000000000E+00 0.  1.
</event>
<event>
 7    1  0.2714068E-010  0.4778728E+02  0.7816164E-02  0.1312668E+00
        -11   -1    0    0    0    0  0.00000000000E+00  0.00000000000E+00  0.45593999997E+02  0.45594000000E+02  0.51100000000E-03 0.  1.
         11   -1    0    0    0    0 -0.00000000000E+00 -0.00000000000E+00 -0.45593999997E+02  0.45594000000E+02  0.51100000000E-03 0. -1.
    9900012    2    1    2    0    0 -0.21749286362E+02 -0.23042922496E+02 -0.29658305776E+02  0.47787276090E+02  0.20000023005E+02 0.  0.
        -12    1    1    2    0    0  0.21749286362E+02  0.23042922496E+02  0.29658305776E+02  0.43400723910E+02  0.00000000000E+00 0.  1.
         11    1    3    3    0    0 -0.45707434095E+01 -0.17266883653E+02 -0.16966579836E+02  0.24635376961E+02  0.51100000000E-03 0. -1.
        -11    1    3    3    0    0 -0.54704162110E+01 -0.11338695480E+00 -0.80103974600E+00  0.55299163700E+01  0.51100000000E-03 0.  1.
         12    1    3    3    0    0 -0.11708126741E+02 -0.56626518877E+01 -0.11890686194E+02  0.17621982759E+02  0.00000000000E+00 0. -1.
</event>
<event>
 7    1  0.2714068E-010  0.4778727E+02  0.7816164E-02  0.1312668E+00
        -11   -1    0    0    0    0  0.00000000000E+00  0.00000000000E+00  0.45593999997E+02  0.45594000000E+02  0.51100000000E-03 0. -1.
         11   -1    0    0    0    0 -0.00000000000E+00 -0.00000000000E+00 -0.45593999997E+02  0.45594000000E+02  0.51100000000E-03 0.  1.
    9900012    2    1    2    0    0  0.79145266595E+01  0.40306893501E+02 -0.14012063498E+02  0.47787270520E+02  0.19999997607E+02 0.  0.
        -12    1    1    2    0    0 -0.79145266595E+01 -0.40306893501E+02  0.14012063498E+02  0.43400729480E+02  0.00000000000E+00 0.  1.
         11    1    3    3    0    0  0.95295847741E+01  0.22299419857E+02 -0.14639886140E+02  0.28326725515E+02  0.51100000000E-03 0. -1.
        -11    1    3    3    0    0 -0.43622121059E+01  0.97411724773E+01 -0.45304336009E+00  0.10682910850E+02  0.51100000000E-03 0.  1.
         12    1    3    3    0    0  0.27471539914E+01  0.82663011667E+01  0.10808660026E+01  0.87776341542E+01  0.00000000000E+00 0. -1.
</event>
<event>
 7    1  0.2714068E-010  0.4778726E+02  0.7816164E-02  0.1312668E+00
        -11   -1    0    0    0    0  0.00000000000E+00  0.00000000000E+00  0.45593999997E+02  0.45594000000E+02  0.51100000000E-03 0.  1.
         11   -1    0    0    0    0 -0.00000000000E+00 -0.00000000000E+00 -0.45593999997E+02  0.45594000000E+02  0.51100000000E-03 0. -1.
    9900012    2    1    2    0    0 -0.27683554168E+02 -0.18454996116E+02 -0.27868582727E+02  0.47787263183E+02  0.19999964158E+02 0.  0.
        -12    1    1    2    0    0  0.27683554168E+02  0.18454996116E+02  0.27868582727E+02  0.43400736817E+02  0.00000000000E+00 0.  1.
         11    1    3    3    0    0 -0.46378699490E+01 -0.12479790815E+02 -0.13422759687E+02  0.18905700048E+02  0.51100000000E-03 0. -1.
        -11    1    3    3    0    0 -0.18551225226E+02 -0.73476114259E+01 -0.13491195703E+02  0.24086255682E+02  0.51100000000E-03 0.  1.
        -12    1    3    3    0    0 -0.44944589936E+01  0.13724061246E+01 -0.95462733733E+00  0.47953074530E+01  0.00000000000E+00 0.  1.
</event>
<event>
 7    1  0.2714068E-010  0.4778726E+02  0.7816164E-02  0.1312668E+00
        -11   -1    0    0    0    0  0.00000000000E+00  0.00000000000E+00  0.45593999997E+02  0.45594000000E+02  0.51100000000E-03 0.  1.
         11   -1    0    0    0    0 -0.00000000000E+00 -0.00000000000E+00 -0.45593999997E+02  0.45594000000E+02  0.51100000000E-03 0. -1.
    9900012    2    1    2    0    0  0.36283142593E+02  0.23586389395E+02 -0.32924733869E+01  0.47787255973E+02  0.19999931283E+02 0.  0.
        -12    1    1    2    0    0 -0.36283142593E+02 -0.23586389395E+02  0.32924733869E+01  0.43400744027E+02  0.00000000000E+00 0.  1.
         11    1    3    3    0    0  0.14710350783E+02  0.32496857911E+01 -0.60304395636E+01  0.16227171026E+02  0.51100000000E-03 0. -1.
        -11    1    3    3    0    0  0.41966196244E+01  0.10676720742E+02  0.21433319068E+01  0.11670383627E+02  0.51100000000E-03 0.  1.
        -12    1    3    3    0    0  0.17376172185E+02  0.96599828622E+01  0.59463426994E+00  0.19889701320E+02  0.00000000000E+00 0.  1.
</event>
<event>
 7    1  0.2714068E-010  0.4778727E+02  0.7816164E-02  0.1312668E+00
        -11   -1    0    0    0    0  0.00000000000E+00  0.00000000000E+00  0.45593999997E+02  0.45594000000E+02  0.51100000000E-03 0. -1.
         11   -1    0    0    0    0 -0.00000000000E+00 -0.00000000000E+00 -0.45593999997E+02  0.45594000000E+02  0.51100000000E-03 0.  1.
    9900012    2    1    2    0    0  0.40962376591E+02 -0.12778159739E+02 -0.65134802937E+01  0.47787273188E+02  0.20000009771E+02 0.  0.
        -12    1    1    2    0    0 -0.40962376591E+02  0.12778159739E+02  0.65134802937E+01  0.43400726812E+02  0.00000000000E+00 0.  1.
         11    1    3    3    0    0  0.18051001419E+02 -0.94718533158E+01 -0.12006548582E+02  0.23658230420E+02  0.51100000000E-03 0.  1.
        -11    1    3    3    0    0  0.90136117868E+01  0.45909806251E+00  0.30348816876E+01  0.95218945380E+01  0.51100000000E-03 0. -1.
        -12    1    3    3    0    0  0.13897763385E+02 -0.37654044855E+01  0.24581866007E+01  0.14607148230E+02  0.00000000000E+00 0.  1.
</event>
<event>
 7    1  0.2714068E-010  0.4778727E+02  0.7816164E-02  0.1312668E+00
        -11   -1    0    0    0    0  0.00000000000E+00  0.00000000000E+00  0.45593999997E+02  0.45594000000E+02  0.51100000000E-03 0.  1.
         11   -1    0    0    0    0 -0.00000000000E+00 -0.00000000000E+00 -0.45593999997E+02  0.45594000000E+02  0.51100000000E-03 0. -1.
    9900012    2    1    2    0    0  0.10305654096E+02 -0.41195335566E+02  0.89644281619E+01  0.47787272460E+02  0.20000006453E+02 0.  0.
        -12    1    1    2    0    0 -0.10305654096E+02  0.41195335566E+02 -0.89644281619E+01  0.43400727540E+02  0.00000000000E+00 0.  1.
         11    1    3    3    0    0  0.74687522700E+01 -0.13597637925E+02 -0.96540134870E+00  0.15543809624E+02  0.51100000000E-03 0. -1.
        -11    1    3    3    0    0 -0.45383984229E+01 -0.43976445190E+01  0.24241659202E+01  0.67685240806E+01  0.51100000000E-03 0.  1.
        -12    1    3    3    0    0  0.73753002486E+01 -0.23200053122E+02  0.75056635904E+01  0.25474938755E+02  0.00000000000E+00 0.  1.
</event>
<event>
 7    1  0.2714068E-010  0.4778727E+02  0.7816164E-02  0.1312668E+00
        -11   -1    0    0    0    0  0.00000000000E+00  0.00000000000E+00  0.45593999997E+02  0.45594000000E+02  0.51100000000E-03 0. -1.
         11   -1    0    0    0    0 -0.00000000000E+00 -0.00000000000E+00 -0.45593999997E+02  0.45594000000E+02  0.51100000000E-03 0.  1.
    9900012    2    1    2    0    0  0.10391470142E+02 -0.31890952261E+02  0.27542835548E+02  0.47787270999E+02  0.19999999791E+02 0.  0.
        -12    1    1    2    0    0 -0.10391470142E+02  0.31890952261E+02 -0.27542835548E+02  0.43400729001E+02  0.00000000000E+00 0.  1.
         11    1    3    3    0    0  0.76422438303E+01 -0.20303805024E+02  0.23747068027E+02  0.32164757567E+02  0.51100000000E-03 0. -1.
        -11    1    3    3    0    0  0.48037540358E+01 -0.41713438590E+01  0.46497592509E+01  0.78801284114E+01  0.51100000000E-03 0.  1.
         12    1    3    3    0    0 -0.20545277245E+01 -0.74158033789E+01 -0.85399173044E+00  0.77423850202E+01  0.00000000000E+00 0. -1.
</event>
<event>
 7    1  0.2714068E-010  0.4778727E+02  0.7816164E-02  0.1312668E+00
        -11   -1    0    0    0    0  0.00000000000E+00  0.00000000000E+00  0.45593999997E+02  0.45594000000E+02  0.51100000000E-03 0. -1.
         11   -1    0    0    0    0 -0.00000000000E+00 -0.00000000000E+00 -0.45593999997E+02  0.45594000000E+02  0.51100000000E-03 0.  1.
    9900012    2    1    2    0    0 -0.40068691402E+02  0.76288850021E+01  0.14829816052E+02  0.47787270038E+02  0.19999995413E+02 0.  0.
        -12    1    1    2    0    0  0.40068691402E+02 -0.76288850021E+01 -0.14829816052E+02  0.43400729962E+02  0.00000000000E+00 0.  1.
         11    1    3    3    0    0 -0.36171045336E+02  0.38446923343E+00  0.11629619506E+02  0.37996583892E+02  0.51100000000E-03 0. -1.
        -11    1    3    3    0    0 -0.45403186865E+01  0.48472497999E+01  0.30384652245E+01  0.73036015485E+01  0.51100000000E-03 0.  1.
         12    1    3    3    0    0  0.64267262065E+00  0.23971659687E+01  0.16173132164E+00  0.24870845984E+01  0.00000000000E+00 0. -1.
</event>
<event>
 7    1  0.2714068E-010  0.4778727E+02  0.7816164E-02  0.1312668E+00
        -11   -1    0    0    0    0  0.00000000000E+00  0.00000000000E+00  0.45593999997E+02  0.45594000000E+02  0.51100000000E-03 0.  1.
         11   -1    0    0    0    0 -0.00000000000E+00 -0.00000000000E+00 -0.45593999997E+02  0.45594000000E+02  0.51100000000E-03 0. -1.
    9900012    2    1    2    0    0  0.33848942262E+02 -0.15091711405E+02  0.22585674112E+02  0.47787270508E+02  0.19999997553E+02 0.  0.
        -12    1    1    2    0    0 -0.33848942262E+02  0.15091711405E+02 -0.22585674112E+02  0.43400729492E+02  0.00000000000E+00 0.  1.
         11    1    3    3    0    0  0.12872452270E+02 -0.14415847008E+02  0.11307083902E+02  0.22391221919E+02  0.51100000000E-03 0. -1.
        -11    1    3    3    0    0  0.96720799344E+01 -0.14754540909E+01  0.10002126026E+02  0.13991734000E+02  0.51100000000E-03 0.  1.
         12    1    3    3    0    0  0.11304410057E+02  0.79958969401E+00  0.12764641841E+01  0.11404314589E+02  0.00000000000E+00 0. -1.
</event>
<event>
 7    1  0.2714068E-010  0.4778727E+02  0.7816164E-02  0.1312668E+00
        -11   -1    0    0    0    0  0.00000000000E+00  0.00000000000E+00  0.45593999997E+02  0.45594000000E+02  0.51100000000E-03 0.  1.
         11   -1    0    0    0    0 -0.00000000000E+00 -0.00000000000E+00 -0.45593999997E+02  0.45594000000E+02  0.51100000000E-03 0. -1.
    9900012    2    1    2    0    0  0.21003595208E+01 -0.92258084680E+01 -0.42356778171E+02  0.47787266032E+02  0.19999977145E+02 0.  0.
        -12    1    1    2    0    0 -0.21003595208E+01  0.92258084680E+01  0.42356778171E+02  0.43400733968E+02  0.00000000000E+00 0.  1.
         11    1    3    3    0    0  0.39525448367E+01 -0.17714624028E+01 -0.10918492898E+02  0.11746240980E+02  0.51100000000E-03 0. -1.
        -11    1    3    3    0    0  0.53207903387E+01  0.19895812926E+01 -0.85905422207E+01  0.10298866901E+02  0.51100000000E-03 0.  1.
        -12    1    3    3    0    0 -0.71729756545E+01 -0.94439273577E+01 -0.22847743052E+02  0.25742158150E+02  0.00000000000E+00 0.  1.
</event>
<event>
 7    1  0.2714068E-010  0.4778727E+02  0.7816164E-02  0.1312668E+00
        -11   -1    0    0    0    0  0.00000000000E+00  0.00000000000E+00  0.45593999997E+02  0.45594000000E+02  0.51100000000E-03 0.  1.
         11   -1    0    0    0    0 -0.00000000000E+00 -0.00000000000E+00 -0.45593999997E+02  0.45594000000E+02  0.51100000000E-03 0. -1.
    9900012    2    1    2    0    0 -0.51147066211E+01  0.40105087423E+02 -0.15781150223E+02  0.47787274621E+02  0.20000016309E+02 0.  0.
        -12    1    1    2    0    0  0.51147066211E+01 -0.40105087423E+02  0.15781150223E+02  0.43400725379E+02  0.00000000000E+00 0.  1.
         11    1    3    3    0    0 -0.13537672852E+01  0.28708578138E+02 -0.14685349507E+02  0.32274984663E+02  0.51100000000E-03 0. -1.
        -11    1    3    3    0    0 -0.65074447298E+01  0.62116092092E+01 -0.27660179005E+01  0.94117894774E+01  0.51100000000E-03 0.  1.
         12    1    3    3    0    0  0.27465053940E+01  0.51849000758E+01  0.16702171850E+01  0.61005004811E+01  0.00000000000E+00 0. -1.
</event>
<event>
 7    1  0.2714068E-010  0.4778728E+02  0.7816164E-02  0.1312668E+00
        -11   -1    0    0    0    0  0.00000000000E+00  0.00000000000E+00  0.45593999997E+02  0.45594000000E+02  0.51100000000E-03 0.  1.
         11   -1    0    0    0    0 -0.00000000000E+00 -0.00000000000E+00 -0.45593999997E+02  0.45594000000E+02  0.51100000000E-03 0. -1.
    9900012    2    1    2    0    0  0.78126934776E+01 -0.56985825818E+01 -0.42309701348E+02  0.47787275917E+02  0.20000022216E+02 0.  0.
        -12    1    1    2    0    0 -0.78126934776E+01  0.56985825818E+01  0.42309701348E+02  0.43400724083E+02  0.00000000000E+00 0.  1.
         11    1    3    3    0    0  0.24732864059E+01 -0.21335645008E+01 -0.34840821179E+02  0.34993600326E+02  0.51100000000E-03 0. -1.
        -11    1    3    3    0    0  0.54284815725E+01 -0.57185286998E+01 -0.70932108778E+01  0.10605829694E+02  0.51100000000E-03 0.  1.
        -12    1    3    3    0    0 -0.89074500774E-01  0.21535106189E+01 -0.37566929093E+00  0.21878458969E+01  0.00000000000E+00 0.  1.
</event>
<event>
 7    1  0.2714068E-010  0.4778727E+02  0.7816164E-02  0.1312668E+00
        -11   -1    0    0    0    0  0.00000000000E+00  0.00000000000E+00  0.45593999997E+02  0.45594000000E+02  0.51100000000E-03 0. -1.
         11   -1    0    0    0    0 -0.00000000000E+00 -0.00000000000E+00 -0.45593999997E+02  0.45594000000E+02  0.51100000000E-03 0.  1.
    9900012    2    1    2    0    0 -0.11324885066E+02  0.41879943591E+02  0.12002866097E+01  0.47787269766E+02  0.19999994170E+02 0.  0.
        -12    1    1    2    0    0  0.11324885066E+02 -0.41879943591E+02 -0.12002866097E+01  0.43400730234E+02  0.00000000000E+00 0.  1.
         11    1    3    3    0    0 -0.92645748036E+01  0.14721074367E+02  0.61744031113E+01  0.18457129540E+02  0.51100000000E-03 0. -1.
        -11    1    3    3    0    0  0.37977459141E+01  0.13884370405E+02 -0.23400163868E+01  0.14583356696E+02  0.51100000000E-03 0.  1.
        -12    1    3    3    0    0 -0.58580561769E+01  0.13274498819E+02 -0.26341001148E+01  0.14746783530E+02  0.00000000000E+00 0.  1.
</event>
<event>
 7    1 -0.2714068E-010  0.4778727E+02  0.7816164E-02  0.1312668E+00
        -11   -1    0    0    0    0  0.00000000000E+00  0.00000000000E+00  0.45593999997E+02  0.45594000000E+02  0.51100000000E-03 0.  1.
         11   -1    0    0    0    0 -0.00000000000E+00 -0.00000000000E+00 -0.45593999997E+02  0.45594000000E+02  0.51100000000E-03 0. -1.
    9900012    2    1    2    0    0  0.35395826356E+02  0.55937378266E+01 -0.24484048726E+02  0.47787273413E+02  0.20000010799E+02 0.  0.
        -12    1    1    2    0    0 -0.35395826356E+02 -0.55937378266E+01  0.24484048726E+02  0.43400726587E+02  0.00000000000E+00 0.  1.
         11    1    3    3    0    0  0.24530220692E+02  0.11856457319E+01 -0.22922451112E+02  0.33594288923E+02  0.51100000000E-03 0. -1.
        -11    1    3    3    0    0  0.10218351997E+02  0.39448368782E+01 -0.39745135451E+01  0.11652176351E+02  0.51100000000E-03 0.  1.
         12    1    3    3    0    0  0.64725366609E+00  0.46325521646E+00  0.24129159316E+01  0.25408081385E+01  0.00000000000E+00 0. -1.
</event>
<event>
 7    1  0.2714068E-010  0.4778727E+02  0.7816164E-02  0.1312668E+00
        -11   -1    0    0    0    0  0.00000000000E+00  0.00000000000E+00  0.45593999997E+02  0.45594000000E+02  0.51100000000E-03 0.  1.
         11   -1    0    0    0    0 -0.00000000000E+00 -0.00000000000E+00 -0.45593999997E+02  0.45594000000E+02  0.51100000000E-03 0. -1.
    9900012    2    1    2    0    0 -0.20701551063E+01 -0.32230549110E+02 -0.28991885708E+02  0.47787271032E+02  0.19999999944E+02 0.  0.
        -12    1    1    2    0    0  0.20701551063E+01  0.32230549110E+02  0.28991885708E+02  0.43400728968E+02  0.00000000000E+00 0.  1.
         11    1    3    3    0    0  0.22103176731E+01 -0.68146562083E+01 -0.11879840277E+02  0.13872838524E+02  0.51100000000E-03 0. -1.
        -11    1    3    3    0    0 -0.24006011112E+01 -0.96177359331E+01  0.81447144180E+00  0.99462100402E+01  0.51100000000E-03 0.  1.
        -12    1    3    3    0    0 -0.18798716682E+01 -0.15798156968E+02 -0.17926516872E+02  0.23968222467E+02  0.00000000000E+00 0.  1.
</event>
<event>
 7    1  0.2714068E-010  0.4778728E+02  0.7816164E-02  0.1312668E+00
        -11   -1    0    0    0    0  0.00000000000E+00  0.00000000000E+00  0.45593999997E+02  0.45594000000E+02  0.51100000000E-03 0.  1.
         11   -1    0    0    0    0 -0.00000000000E+00 -0.00000000000E+00 -0.45593999997E+02  0.45594000000E+02  0.51100000000E-03 0. -1.
    9900012    2    1    2    0    0 -0.29396229026E+02  0.19518278815E+02 -0.25268976362E+02  0.47787278171E+02  0.20000032494E+02 0.  0.
        -12    1    1    2    0    0  0.29396229026E+02 -0.19518278815E+02  0.25268976362E+02  0.43400721829E+02  0.00000000000E+00 0.  1.
         11    1    3    3    0    0 -0.20512380087E+02  0.17660007674E+02 -0.14438057477E+02  0.30677208345E+02  0.51100000000E-03 0. -1.
        -11    1    3    3    0    0 -0.80119964704E+01 -0.27941917044E+01 -0.64237872320E+01  0.10642586029E+02  0.51100000000E-03 0.  1.
        -12    1    3    3    0    0 -0.87185246828E+00  0.46524628461E+01 -0.44071316525E+01  0.64674837969E+01  0.00000000000E+00 0.  1.
</event>
<event>
 7    1  0.2714068E-010  0.4778727E+02  0.7816164E-02  0.1312668E+00
        -11   -1    0    0    0    0  0.00000000000E+00  0.00000000000E+00  0.45593999997E+02  0.45594000000E+02  0.51100000000E-03 0.  1.
         11   -1    0    0    0    0 -0.00000000000E+00 -0.00000000000E+00 -0.45593999997E+02  0.45594000000E+02  0.51100000000E-03 0. -1.
    9900012    2    1    2    0    0  0.42444688682E+00 -0.37309009490E+02 -0.22169369987E+02  0.47787270630E+02  0.19999998109E+02 0.  0.
        -12    1    1    2    0    0 -0.42444688682E+00  0.37309009490E+02  0.22169369987E+02  0.43400729370E+02  0.00000000000E+00 0.  1.
         11    1    3    3    0    0  0.61730875675E+01 -0.22075850275E+02 -0.77355907402E+01  0.24192758004E+02  0.51100000000E-03 0. -1.
        -11    1    3    3    0    0 -0.78701266477E+01 -0.89850964423E+01 -0.79819187704E+01  0.14365997322E+02  0.51100000000E-03 0.  1.
        -12    1    3    3    0    0  0.21214859670E+01 -0.62480627728E+01 -0.64518604761E+01  0.92285153044E+01  0.00000000000E+00 0.  1.
</event>
<event>
 7    1  0.2714068E-010  0.4778727E+02  0.7816164E-02  0.1312668E+00
        -11   -1    0    0    0    0  0.00000000000E+00  0.00000000000E+00  0.45593999997E+02  0.45594000000E+02  0.51100000000E-03 0.  1.
         11   -1    0    0    0    0 -0.00000000000E+00 -0.00000000000E+00 -0.45593999997E+02  0.45594000000E+02  0.51100000000E-03 0. -1.
    9900012    2    1    2    0    0 -0.53959813297E+01 -0.28426692191E+02 -0.32348568286E+02  0.47787270587E+02  0.19999997915E+02 0.  0.
        -12    1    1    2    0    0  0.53959813297E+01  0.28426692191E+02  0.32348568286E+02  0.43400729413E+02  0.00000000000E+00 0.  1.
         11    1    3    3    0    0  0.46523711532E+01 -0.22092934409E+02 -0.20761937983E+02  0.30672469370E+02  0.51100000000E-03 0. -1.
        -11    1    3    3    0    0 -0.89996611579E+01 -0.69354341518E+01 -0.10132708240E+02  0.15223860364E+02  0.51100000000E-03 0.  1.
         12    1    3    3    0    0 -0.10486913250E+01  0.60167636990E+00 -0.14539220620E+01  0.18909408536E+01  0.00000000000E+00 0. -1.
</event>
<event>
 7    1  0.2714068E-010  0.4778726E+02  0.7816164E-02  0.1312668E+00
        -11   -1    0    0    0    0  0.00000000000E+00  0.00000000000E+00  0.45593999997E+02  0.45594000000E+02  0.51100000000E-03 0. -1.
         11   -1    0    0    0    0 -0.00000000000E+00 -0.00000000000E+00 -0.45593999997E+02  0.45594000000E+02  0.51100000000E-03 0.  1.
    9900012    2    1    2    0    0 -0.22727571652E+02  0.28832534939E+02  0.23146626364E+02  0.47787263875E+02  0.19999967310E+02 0.  0.
        -12    1    1    2    0    0  0.22727571652E+02 -0.28832534939E+02 -0.23146626364E+02  0.43400736125E+02  0.00000000000E+00 0.  1.
         11    1    3    3    0    0 -0.12076133464E+02  0.17401545404E+01  0.98813274057E+01  0.15700374799E+02  0.51100000000E-03 0. -1.
        -11    1    3    3    0    0 -0.32277229039E+01  0.11535615257E+02  0.53497299257E+01  0.13119002440E+02  0.51100000000E-03 0.  1.
         12    1    3    3    0    0 -0.74237152836E+01  0.15556765142E+02  0.79155690328E+01  0.18967886635E+02  0.00000000000E+00 0. -1.
</event>
<event>
 7    1  0.2714068E-010  0.4778732E+02  0.7816164E-02  0.1312668E+00
        -11   -1    0    0    0    0  0.00000000000E+00  0.00000000000E+00  0.45593999997E+02  0.45594000000E+02  0.51100000000E-03 0. -1.
         11   -1    0    0    0    0 -0.00000000000E+00 -0.00000000000E+00 -0.45593999997E+02  0.45594000000E+02  0.51100000000E-03 0.  1.
    9900012    2    1    2    0    0 -0.92872854445E+01  0.34053938228E+02  0.25252610161E+02  0.47787323741E+02  0.20000240265E+02 0.  0.
        -12    1    1    2    0    0  0.92872854445E+01 -0.34053938228E+02 -0.25252610161E+02  0.43400676259E+02  0.00000000000E+00 0.  1.
         11    1    3    3    0    0 -0.77546247541E+01  0.51942548955E+01  0.72973258919E+01  0.11847592769E+02  0.51100000000E-03 0. -1.
        -11    1    3    3    0    0  0.49618197016E+01  0.14676450171E+02  0.98708986542E+01  0.18369879827E+02  0.51100000000E-03 0.  1.
        -12    1    3    3    0    0 -0.64944803920E+01  0.14183233161E+02  0.80843856153E+01  0.17569851145E+02  0.00000000000E+00 0.  1.
</event>
<event>
 7    1  0.2714068E-010  0.4778727E+02  0.7816164E-02  0.1312668E+00
        -11   -1    0    0    0    0  0.00000000000E+00  0.00000000000E+00  0.45593999997E+02  0.45594000000E+02  0.51100000000E-03 0.  1.
         11   -1    0    0    0    0 -0.00000000000E+00 -0.00000000000E+00 -0.45593999997E+02  0.45594000000E+02  0.51100000000E-03 0. -1.
    9900012    2    1    2    0    0 -0.42605967648E+02  0.48551762153E+01 -0.66919552337E+01  0.47787268668E+02  0.19999989164E+02 0.  0.
        -12    1    1    2    0    0  0.42605967648E+02 -0.48551762153E+01  0.66919552337E+01  0.43400731332E+02  0.00000000000E+00 0.  1.
         11    1    3    3    0    0 -0.16153073673E+01 -0.30400587033E+01 -0.34855400557E+01  0.48989962799E+01  0.51100000000E-03 0. -1.
        -11    1    3    3    0    0 -0.16106340186E+01  0.60249203589E-01  0.18107269310E+01  0.24241501992E+01  0.51100000000E-03 0.  1.
         12    1    3    3    0    0 -0.39380026262E+02  0.78349857150E+01 -0.50171421091E+01  0.40464122189E+02  0.00000000000E+00 0. -1.
</event>
<event>
 7    1  0.2714068E-010  0.4778727E+02  0.7816164E-02  0.1312668E+00
        -11   -1    0    0    0    0  0.00000000000E+00  0.00000000000E+00  0.45593999997E+02  0.45594000000E+02  0.51100000000E-03 0. -1.
         11   -1    0    0    0    0 -0.00000000000E+00 -0.00000000000E+00 -0.45593999997E+02  0.45594000000E+02  0.51100000000E-03 0.  1.
    9900012    2    1    2    0    0  0.13105752512E+02  0.27575649920E+02  0.30845522243E+02  0.47787268901E+02  0.19999990229E+02 0.  0.
        -12    1    1    2    0    0 -0.13105752512E+02 -0.27575649920E+02 -0.30845522243E+02  0.43400731099E+02  0.00000000000E+00 0.  1.
         11    1    3    3    0    0  0.33805718127E+01  0.46237668271E+01  0.24190284873E+01  0.62176510464E+01  0.51100000000E-03 0.  1.
        -11    1    3    3    0    0  0.11605467376E+02  0.92816668444E+01  0.21483737865E+02  0.26122542092E+02  0.51100000000E-03 0. -1.
        -12    1    3    3    0    0 -0.18802866760E+01  0.13670216249E+02  0.69427558910E+01  0.15447075763E+02  0.00000000000E+00 0.  1.
</event>
<event>
 7    1  0.2714068E-010  0.4778727E+02  0.7816164E-02  0.1312668E+00
        -11   -1    0    0    0    0  0.00000000000E+00  0.00000000000E+00  0.45593999997E+02  0.45594000000E+02  0.51100000000E-03 0.  1.
         11   -1    0    0    0    0 -0.00000000000E+00 -0.00000000000E+00 -0.45593999997E+02  0.45594000000E+02  0.51100000000E-03 0. -1.
    9900012    2    1    2    0    0 -0.27486859664E+02 -0.31316131803E+02  0.12140660946E+02  0.47787271740E+02  0.20000003171E+02 0.  0.
        -12    1    1    2    0    0  0.27486859664E+02  0.31316131803E+02 -0.12140660946E+02  0.43400728260E+02  0.00000000000E+00 0.  1.
         11    1    3    3    0    0 -0.13872171577E+02 -0.13178545879E+02 -0.15945412845E+01  0.19200358796E+02  0.51100000000E-03 0. -1.
        -11    1    3    3    0    0 -0.98387760637E+01 -0.18279543878E+02  0.13577438461E+02  0.24805041307E+02  0.51100000000E-03 0.  1.
        -12    1    3    3    0    0 -0.37759120233E+01  0.14195795360E+00  0.15776376967E+00  0.37818716365E+01  0.00000000000E+00 0.  1.
</event>
<event>
 7    1  0.2714068E-010  0.4778727E+02  0.7816164E-02  0.1312668E+00
        -11   -1    0    0    0    0  0.00000000000E+00  0.00000000000E+00  0.45593999997E+02  0.45594000000E+02  0.51100000000E-03 0. -1.
         11   -1    0    0    0    0 -0.00000000000E+00 -0.00000000000E+00 -0.45593999997E+02  0.45594000000E+02  0.51100000000E-03 0.  1.
    9900012    2    1    2    0    0  0.28720701241E+02 -0.31392916886E+02 -0.85574423546E+01  0.47787265790E+02  0.19999976041E+02 0.  0.
        -12    1    1    2    0    0 -0.28720701241E+02  0.31392916886E+02  0.85574423546E+01  0.43400734210E+02  0.00000000000E+00 0.  1.
         11    1    3    3    0    0  0.10397685092E+02 -0.76286492660E+01  0.27871148964E+01  0.13193792275E+02  0.51100000000E-03 0. -1.
        -11    1    3    3    0    0  0.20034563518E+02 -0.22573588830E+02 -0.11888080375E+02  0.32438820929E+02  0.51100000000E-03 0.  1.
        -12    1    3    3    0    0 -0.17115473689E+01 -0.11906787902E+01  0.54352312422E+00  0.21546525854E+01  0.00000000000E+00 0.  1.
</event>
<event>
 7    1  0.2714068E-010  0.4778727E+02  0.7816164E-02  0.1312668E+00
        -11   -1    0    0    0    0  0.00000000000E+00  0.00000000000E+00  0.45593999997E+02  0.45594000000E+02  0.51100000000E-03 0. -1.
         11   -1    0    0    0    0 -0.00000000000E+00 -0.00000000000E+00 -0.45593999997E+02  0.45594000000E+02  0.51100000000E-03 0.  1.
    9900012    2    1    2    0    0  0.27840153636E+02 -0.14568940722E+02  0.29938185143E+02  0.47787272841E+02  0.20000008192E+02 0.  0.
        -12    1    1    2    0    0 -0.27840153636E+02  0.14568940722E+02 -0.29938185143E+02  0.43400727159E+02  0.00000000000E+00 0.  1.
         11    1    3    3    0    0  0.23771583224E+02 -0.11548337299E+02  0.32629941506E+02  0.41990062471E+02  0.51100000000E-03 0. -1.
        -11    1    3    3    0    0  0.27695619590E+01 -0.19779570506E+01 -0.13617456487E+01  0.36656703359E+01  0.51100000000E-03 0.  1.
         12    1    3    3    0    0  0.12990084531E+01 -0.10426463724E+01 -0.13300107140E+01  0.21315400344E+01  0.00000000000E+00 0. -1.
</event>
<event>
 7    1  0.2714068E-010  0.4778727E+02  0.7816164E-02  0.1312668E+00
        -11   -1    0    0    0    0  0.00000000000E+00  0.00000000000E+00  0.45593999997E+02  0.45594000000E+02  0.51100000000E-03 0. -1.
         11   -1    0    0    0    0 -0.00000000000E+00 -0.00000000000E+00 -0.45593999997E+02  0.45594000000E+02  0.51100000000E-03 0.  1.
    9900012    2    1    2    0    0 -0.69986429491E+01  0.35896388176E+02  0.23368596702E+02  0.47787274211E+02  0.20000014437E+02 0.  0.
        -12    1    1    2    0    0  0.69986429491E+01 -0.35896388176E+02 -0.23368596702E+02  0.43400725789E+02  0.00000000000E+00 0.  1.
         11    1    3    3    0    0 -0.46868846050E+01  0.28267433392E+02  0.12004788669E+02  0.31066535518E+02  0.51100000000E-03 0. -1.
        -11    1    3    3    0    0 -0.29621589619E+01  0.14835297150E+01 -0.49373299490E+00  0.33494803571E+01  0.51100000000E-03 0.  1.
         12    1    3    3    0    0  0.65040061775E+00  0.61454250690E+01  0.11857541028E+02  0.13371258336E+02  0.00000000000E+00 0. -1.
</event>
<event>
 7    1  0.2714068E-010  0.4778727E+02  0.7816164E-02  0.1312668E+00
        -11   -1    0    0    0    0  0.00000000000E+00  0.00000000000E+00  0.45593999997E+02  0.45594000000E+02  0.51100000000E-03 0.  1.
         11   -1    0    0    0    0 -0.00000000000E+00 -0.00000000000E+00 -0.45593999997E+02  0.45594000000E+02  0.51100000000E-03 0. -1.
    9900012    2    1    2    0    0 -0.34959927026E+02 -0.40589907734E+00 -0.25715016290E+02  0.47787270576E+02  0.19999997866E+02 0.  0.
        -12    1    1    2    0    0  0.34959927026E+02  0.40589907734E+00  0.25715016290E+02  0.43400729424E+02  0.00000000000E+00 0.  1.
         11    1    3    3    0    0 -0.24383439304E+02 -0.63437166331E+00 -0.80530914743E+01  0.25686705166E+02  0.51100000000E-03 0. -1.
        -11    1    3    3    0    0 -0.82111788328E+00 -0.19477365553E+01 -0.77150892185E+01  0.79994071141E+01  0.51100000000E-03 0.  1.
        -12    1    3    3    0    0 -0.97553698383E+01  0.21762091413E+01 -0.99468355972E+01  0.14101158297E+02  0.00000000000E+00 0.  1.
</event>
<event>
 7    1  0.2714068E-010  0.4778727E+02  0.7816164E-02  0.1312668E+00
        -11   -1    0    0    0    0  0.00000000000E+00  0.00000000000E+00  0.45593999997E+02  0.45594000000E+02  0.51100000000E-03 0.  1.
         11   -1    0    0    0    0 -0.00000000000E+00 -0.00000000000E+00 -0.45593999997E+02  0.45594000000E+02  0.51100000000E-03 0. -1.
    9900012    2    1    2    0    0 -0.17929831038E+02  0.21842620432E+02 -0.32940012256E+02  0.47787270561E+02  0.19999997797E+02 0.  0.
        -12    1    1    2    0    0  0.17929831038E+02 -0.21842620432E+02  0.32940012256E+02  0.43400729439E+02  0.00000000000E+00 0.  1.
         11    1    3    3    0    0 -0.26499440739E+01  0.57162452019E+01 -0.54014276698E+01  0.82989808975E+01  0.51100000000E-03 0. -1.
        -11    1    3    3    0    0 -0.10834710769E+02  0.15104957474E+02 -0.29216175003E+02  0.34628537073E+02  0.51100000000E-03 0.  1.
        -12    1    3    3    0    0 -0.44451761950E+01  0.10214177561E+01  0.16775904170E+01  0.48597525909E+01  0.00000000000E+00 0.  1.
</event>
<event>
 7    1  0.2714068E-010  0.4778727E+02  0.7816164E-02  0.1312668E+00
        -11   -1    0    0    0    0  0.00000000000E+00  0.00000000000E+00  0.45593999997E+02  0.45594000000E+02  0.51100000000E-03 0.  1.
         11   -1    0    0    0    0 -0.00000000000E+00 -0.00000000000E+00 -0.45593999997E+02  0.45594000000E+02  0.51100000000E-03 0. -1.
    9900012    2    1    2    0    0  0.10899802489E+02 -0.41558598971E+02  0.61400514654E+01  0.47787273339E+02  0.20000010460E+02 0.  0.
        -12    1    1    2    0    0 -0.10899802489E+02  0.41558598971E+02 -0.61400514654E+01  0.43400726661E+02  0.00000000000E+00 0.  1.
         11    1    3    3    0    0  0.19603197315E+01 -0.13099279318E+02 -0.11453646670E+01  0.13294579067E+02  0.51100000000E-03 0. -1.
        -11    1    3    3    0    0  0.75855743924E+01 -0.29318227456E+02  0.95178718895E+01  0.31744122064E+02  0.51100000000E-03 0.  1.
        -12    1    3    3    0    0  0.13539083649E+01  0.85890780258E+00 -0.22324557571E+01  0.27485722078E+01  0.00000000000E+00 0.  1.
</event>
<event>
 7    1  0.2714068E-010  0.4778727E+02  0.7816164E-02  0.1312668E+00
        -11   -1    0    0    0    0  0.00000000000E+00  0.00000000000E+00  0.45593999997E+02  0.45594000000E+02  0.51100000000E-03 0. -1.
         11   -1    0    0    0    0 -0.00000000000E+00 -0.00000000000E+00 -0.45593999997E+02  0.45594000000E+02  0.51100000000E-03 0.  1.
    9900012    2    1    2    0    0 -0.17483325373E+02  0.31461848634E+02  0.24250950676E+02  0.47787271962E+02  0.20000004183E+02 0.  0.
        -12    1    1    2    0    0  0.17483325373E+02 -0.31461848634E+02 -0.24250950676E+02  0.43400728038E+02  0.00000000000E+00 0.  1.
         11    1    3    3    0    0 -0.14019741226E+02  0.14322711723E+02  0.13105743809E+02  0.23946894082E+02  0.51100000000E-03 0. -1.
        -11    1    3    3    0    0  0.80176768411E+00  0.70020427831E+01  0.10726270631E+02  0.12834497126E+02  0.51100000000E-03 0.  1.
        -12    1    3    3    0    0 -0.42653518307E+01  0.10137094128E+02  0.41893623610E+00  0.11005880754E+02  0.00000000000E+00 0.  1.
</event>
<event>
 7    1  0.2714068E-010  0.4778725E+02  0.7816164E-02  0.1312668E+00
        -11   -1    0    0    0    0  0.00000000000E+00  0.00000000000E+00  0.45593999997E+02  0.45594000000E+02  0.51100000000E-03 0.  1.
         11   -1    0    0    0    0 -0.00000000000E+00 -0.00000000000E+00 -0.45593999997E+02  0.45594000000E+02  0.51100000000E-03 0. -1.
    9900012    2    1    2    0    0  0.41378016769E+01 -0.83107460220E+00 -0.43195059973E+02  0.47787247774E+02  0.19999893898E+02 0.  0.
        -12    1    1    2    0    0 -0.41378016769E+01  0.83107460220E+00  0.43195059973E+02  0.43400752226E+02  0.00000000000E+00 0.  1.
         11    1    3    3    0    0  0.73428647525E+01 -0.27682586978E+01 -0.24880774762E+02  0.26088960731E+02  0.51100000000E-03 0. -1.
        -11    1    3    3    0    0 -0.52709054006E+01  0.37815714919E+01 -0.17714160883E+02  0.18864628879E+02  0.51100000000E-03 0.  1.
         12    1    3    3    0    0  0.20658423250E+01 -0.18443873964E+01 -0.60012432844E+00  0.28336581638E+01  0.00000000000E+00 0. -1.
</event>
<event>
 7    1  0.2714068E-010  0.4778727E+02  0.7816164E-02  0.1312668E+00
        -11   -1    0    0    0    0  0.00000000000E+00  0.00000000000E+00  0.45593999997E+02  0.45594000000E+02  0.51100000000E-03 0. -1.
         11   -1    0    0    0    0 -0.00000000000E+00 -0.00000000000E+00 -0.45593999997E+02  0.45594000000E+02  0.51100000000E-03 0.  1.
    9900012    2    1    2    0    0 -0.31939218023E+02 -0.29162258339E+02  0.36156255795E+01  0.47787266047E+02  0.19999977213E+02 0.  0.
        -12    1    1    2    0    0  0.31939218023E+02  0.29162258339E+02 -0.36156255795E+01  0.43400733953E+02  0.00000000000E+00 0.  1.
         11    1    3    3    0    0 -0.16468490049E+02 -0.66061025254E+01 -0.30877176312E+01  0.18010712243E+02  0.51100000000E-03 0. -1.
        -11    1    3    3    0    0 -0.29911500464E+01 -0.70716847082E+01  0.62229359184E+01  0.98833514011E+01  0.51100000000E-03 0.  1.
         12    1    3    3    0    0 -0.12479577928E+02 -0.15484471105E+02  0.48040729224E+00  0.19893202402E+02  0.00000000000E+00 0. -1.
</event>
<event>
 7    1  0.2714068E-010  0.4778721E+02  0.7816164E-02  0.1312668E+00
        -11   -1    0    0    0    0  0.00000000000E+00  0.00000000000E+00  0.45593999997E+02  0.45594000000E+02  0.51100000000E-03 0.  1.
         11   -1    0    0    0    0 -0.00000000000E+00 -0.00000000000E+00 -0.45593999997E+02  0.45594000000E+02  0.51100000000E-03 0. -1.
    9900012    2    1    2    0    0  0.42352439879E+02  0.92782227882E+01 -0.19529196108E+01  0.47787211104E+02  0.19999726704E+02 0.  0.
        -12    1    1    2    0    0 -0.42352439879E+02 -0.92782227882E+01  0.19529196108E+01  0.43400788896E+02  0.00000000000E+00 0.  1.
         11    1    3    3    0    0  0.26037751297E+01 -0.33318323216E+01 -0.32394754429E+01  0.53268145220E+01  0.51100000000E-03 0. -1.
        -11    1    3    3    0    0  0.30286498581E+02  0.87965635498E+01 -0.23606243727E+01  0.31626319329E+02  0.51100000000E-03 0.  1.
         12    1    3    3    0    0  0.94621661681E+01  0.38134915601E+01  0.36471802048E+01  0.10834077253E+02  0.00000000000E+00 0. -1.
</event>
<event>
 7    1  0.2714068E-010  0.4778727E+02  0.7816164E-02  0.1312668E+00
        -11   -1    0    0    0    0  0.00000000000E+00  0.00000000000E+00  0.45593999997E+02  0.45594000000E+02  0.51100000000E-03 0.  1.
         11   -1    0    0    0    0 -0.00000000000E+00 -0.00000000000E+00 -0.45593999997E+02  0.45594000000E+02  0.51100000000E-03 0. -1.
    9900012    2    1    2    0    0 -0.38538935967E+02 -0.93589821540E+01 -0.17629040564E+02  0.47787271854E+02  0.20000003690E+02 0.  0.
        -12    1    1    2    0    0  0.38538935967E+02  0.93589821540E+01  0.17629040564E+02  0.43400728146E+02  0.00000000000E+00 0.  1.
         11    1    3    3    0    0 -0.28171932283E+02 -0.86185850693E+01 -0.92841437883E+01  0.30889045037E+02  0.51100000000E-03 0. -1.
        -11    1    3    3    0    0 -0.73326836525E+01  0.44798977879E+01 -0.56643700859E+01  0.10291881386E+02  0.51100000000E-03 0.  1.
        -12    1    3    3    0    0 -0.30343200308E+01 -0.52202948726E+01 -0.26805266899E+01  0.66063454301E+01  0.00000000000E+00 0.  1.
</event>
<event>
 7    1  0.2714068E-010  0.4778727E+02  0.7816164E-02  0.1312668E+00
        -11   -1    0    0    0    0  0.00000000000E+00  0.00000000000E+00  0.45593999997E+02  0.45594000000E+02  0.51100000000E-03 0. -1.
         11   -1    0    0    0    0 -0.00000000000E+00 -0.00000000000E+00 -0.45593999997E+02  0.45594000000E+02  0.51100000000E-03 0.  1.
    9900012    2    1    2    0    0 -0.19149343350E+02 -0.37801701227E+02  0.93785466405E+01  0.47787273007E+02  0.20000008949E+02 0.  0.
        -12    1    1    2    0    0  0.19149343350E+02  0.37801701227E+02 -0.93785466405E+01  0.43400726993E+02  0.00000000000E+00 0.  1.
         11    1    3    3    0    0 -0.10416981697E+02 -0.25292144498E+02 -0.11181273432E+01  0.27376199334E+02  0.51100000000E-03 0. -1.
        -11    1    3    3    0    0 -0.41648968794E+01 -0.72035369848E+01  0.67322857318E+00  0.83480864922E+01  0.51100000000E-03 0.  1.
         12    1    3    3    0    0 -0.45674647742E+01 -0.53060197448E+01  0.98234454105E+01  0.12062987181E+02  0.00000000000E+00 0. -1.
</event>
<event>
 7    1  0.2714068E-010  0.4778727E+02  0.7816164E-02  0.1312668E+00
        -11   -1    0    0    0    0  0.00000000000E+00  0.00000000000E+00  0.45593999997E+02  0.45594000000E+02  0.51100000000E-03 0. -1.
         11   -1    0    0    0    0 -0.00000000000E+00 -0.00000000000E+00 -0.45593999997E+02  0.45594000000E+02  0.51100000000E-03 0.  1.
    9900012    2    1    2    0    0 -0.14805785137E+02  0.36904311441E+02 -0.17392074483E+02  0.47787265775E+02  0.19999975976E+02 0.  0.
        -12    1    1    2    0    0  0.14805785137E+02 -0.36904311441E+02  0.17392074483E+02  0.43400734225E+02  0.00000000000E+00 0.  1.
         11    1    3    3    0    0 -0.14484015342E+02  0.26454081916E+02 -0.12908694435E+02  0.32806090025E+02  0.51100000000E-03 0. -1.
        -11    1    3    3    0    0  0.10424109578E+01 -0.14834584032E+01 -0.20299580326E+01  0.27217640078E+01  0.51100000000E-03 0.  1.
        -12    1    3    3    0    0 -0.13641807526E+01  0.11933687928E+02 -0.24534220154E+01  0.12259411743E+02  0.00000000000E+00 0.  1.
</event>
<event>
 7    1  0.2714068E-010  0.4778727E+02  0.7816164E-02  0.1312668E+00
        -11   -1    0    0    0    0  0.00000000000E+00  0.00000000000E+00  0.45593999997E+02  0.45594000000E+02  0.51100000000E-03 0.  1.
         11   -1    0    0    0    0 -0.00000000000E+00 -0.00000000000E+00 -0.45593999997E+02  0.45594000000E+02  0.51100000000E-03 0. -1.
    9900012    2    1    2    0    0 -0.41416970291E+02 -0.26390139735E+01 -0.12700134893E+02  0.47787271330E+02  0.20000001301E+02 0.  0.
        -12    1    1    2    0    0  0.41416970291E+02  0.26390139735E+01  0.12700134893E+02  0.43400728670E+02  0.00000000000E+00 0.  1.
         11    1    3    3    0    0 -0.28746548221E+02  0.52625680232E+01 -0.13326443796E+02  0.32119351820E+02  0.51100000000E-03 0. -1.
        -11    1    3    3    0    0 -0.11944328345E+02 -0.80867799429E+01 -0.36044339420E+00  0.14428891474E+02  0.51100000000E-03 0.  1.
         12    1    3    3    0    0 -0.72609372423E+00  0.18519794617E+00  0.98675229808E+00  0.12390280358E+01  0.00000000000E+00 0. -1.
</event>
<event>
 7    1  0.2714068E-010  0.4778732E+02  0.7816164E-02  0.1312668E+00
        -11   -1    0    0    0    0  0.00000000000E+00  0.00000000000E+00  0.45593999997E+02  0.45594000000E+02  0.51100000000E-03 0.  1.
         11   -1    0    0    0    0 -0.00000000000E+00 -0.00000000000E+00 -0.45593999997E+02  0.45594000000E+02  0.51100000000E-03 0. -1.
    9900012    2    1    2    0    0 -0.21479100329E+02  0.30838044073E+02 -0.21709029080E+02  0.47787324235E+02  0.20000242517E+02 0.  0.
        -12    1    1    2    0    0  0.21479100329E+02 -0.30838044073E+02  0.21709029080E+02  0.43400675765E+02  0.00000000000E+00 0.  1.
         11    1    3    3    0    0 -0.92635895445E+01  0.24753230246E+02 -0.18891431636E+02  0.32487269636E+02  0.51100000000E-03 0. -1.
        -11    1    3    3    0    0 -0.11750245092E+02  0.49124904697E+01 -0.42173118952E+01  0.13415906314E+02  0.51100000000E-03 0.  1.
         12    1    3    3    0    0 -0.46526569245E+00  0.11723233571E+01  0.13997144504E+01  0.18841482853E+01  0.00000000000E+00 0. -1.
</event>
<event>
 7    1  0.2714068E-010  0.4778726E+02  0.7816164E-02  0.1312668E+00
        -11   -1    0    0    0    0  0.00000000000E+00  0.00000000000E+00  0.45593999997E+02  0.45594000000E+02  0.51100000000E-03 0.  1.
         11   -1    0    0    0    0 -0.00000000000E+00 -0.00000000000E+00 -0.45593999997E+02  0.45594000000E+02  0.51100000000E-03 0. -1.
    9900012    2    1    2    0    0 -0.38646265978E+02  0.15664756408E+02 -0.12029371972E+02  0.47787259713E+02  0.19999948336E+02 0.  0.
        -12    1    1    2    0    0  0.38646265978E+02 -0.15664756408E+02  0.12029371972E+02  0.43400740287E+02  0.00000000000E+00 0.  1.
         11    1    3    3    0    0 -0.12209330620E+02  0.11307082230E+02 -0.77395592937E+01  0.18352619460E+02  0.51100000000E-03 0. -1.
        -11    1    3    3    0    0 -0.25846084486E+01 -0.27344029834E+01  0.12049900133E+01  0.39508431633E+01  0.51100000000E-03 0.  1.
        -12    1    3    3    0    0 -0.23852326910E+02  0.70920771623E+01 -0.54948026916E+01  0.25483797089E+02  0.00000000000E+00 0.  1.
</event>
<event>
 7    1  0.2714068E-010  0.4778727E+02  0.7816164E-02  0.1312668E+00
        -11   -1    0    0    0    0  0.00000000000E+00  0.00000000000E+00  0.45593999997E+02  0.45594000000E+02  0.51100000000E-03 0. -1.
         11   -1    0    0    0    0 -0.00000000000E+00 -0.00000000000E+00 -0.45593999997E+02  0.45594000000E+02  0.51100000000E-03 0.  1.
    9900012    2    1    2    0    0  0.36299889163E+02 -0.21173129321E+02  0.10846203029E+02  0.47787268686E+02  0.19999989246E+02 0.  0.
        -12    1    1    2    0    0 -0.36299889163E+02  0.21173129321E+02 -0.10846203029E+02  0.43400731314E+02  0.00000000000E+00 0.  1.
         11    1    3    3    0    0  0.20947780668E+02 -0.14804288307E+02 -0.25653038925E+01  0.25779007962E+02  0.51100000000E-03 0.  1.
        -11    1    3    3    0    0  0.10163641699E+02 -0.17882891414E+01  0.96613661799E+01  0.14136463043E+02  0.51100000000E-03 0. -1.
        -12    1    3    3    0    0  0.51884667956E+01 -0.45805518720E+01  0.37501407412E+01  0.78717976803E+01  0.00000000000E+00 0.  1.
</event>
<event>
 7    1  0.2714068E-010  0.4778727E+02  0.7816164E-02  0.1312668E+00
        -11   -1    0    0    0    0  0.00000000000E+00  0.00000000000E+00  0.45593999997E+02  0.45594000000E+02  0.51100000000E-03 0.  1.
         11   -1    0    0    0    0 -0.00000000000E+00 -0.00000000000E+00 -0.45593999997E+02  0.45594000000E+02  0.51100000000E-03 0. -1.
    9900012    2    1    2    0    0 -0.26379347493E+01  0.32015854981E+02 -0.29183043725E+02  0.47787266009E+02  0.19999977040E+02 0.  0.
        -12    1    1    2    0    0  0.26379347493E+01 -0.32015854981E+02  0.29183043725E+02  0.43400733991E+02  0.00000000000E+00 0.  1.
         11    1    3    3    0    0 -0.26763057366E+00  0.16436867915E+02 -0.16064030864E+02  0.22984676218E+02  0.51100000000E-03 0. -1.
        -11    1    3    3    0    0  0.46861408456E+01  0.14215585570E+01 -0.50894296311E+01  0.70627925771E+01  0.51100000000E-03 0.  1.
        -12    1    3    3    0    0 -0.70564450213E+01  0.14157428509E+02 -0.80295832300E+01  0.17739797214E+02  0.00000000000E+00 0.  1.
</event>
<event>
 7    1  0.2714068E-010  0.4778727E+02  0.7816164E-02  0.1312668E+00
        -11   -1    0    0    0    0  0.00000000000E+00  0.00000000000E+00  0.45593999997E+02  0.45594000000E+02  0.51100000000E-03 0.  1.
         11   -1    0    0    0    0 -0.00000000000E+00 -0.00000000000E+00 -0.45593999997E+02  0.45594000000E+02  0.51100000000E-03 0. -1.
    9900012    2    1    2    0    0  0.33956581779E+02 -0.26908903195E+02 -0.25464855876E+01  0.47787272977E+02  0.20000008812E+02 0.  0.
        -12    1    1    2    0    0 -0.33956581779E+02  0.26908903195E+02  0.25464855876E+01  0.43400727023E+02  0.00000000000E+00 0.  1.
         11    1    3    3    0    0  0.11061483269E+02 -0.71159966951E+01 -0.23201370953E+01  0.13355779928E+02  0.51100000000E-03 0. -1.
        -11    1    3    3    0    0  0.19650594366E+02 -0.20976612131E+02  0.39487675837E+01  0.29013046740E+02  0.51100000000E-03 0.  1.
        -12    1    3    3    0    0  0.32445041444E+01  0.11837056316E+01 -0.41751160761E+01  0.54184463099E+01  0.00000000000E+00 0.  1.
</event>
<event>
 7    1  0.2714068E-010  0.4778727E+02  0.7816164E-02  0.1312668E+00
        -11   -1    0    0    0    0  0.00000000000E+00  0.00000000000E+00  0.45593999997E+02  0.45594000000E+02  0.51100000000E-03 0. -1.
         11   -1    0    0    0    0 -0.00000000000E+00 -0.00000000000E+00 -0.45593999997E+02  0.45594000000E+02  0.51100000000E-03 0.  1.
    9900012    2    1    2    0    0  0.37979298414E+02  0.20730543241E+02  0.33824033238E+01  0.47787272087E+02  0.20000004755E+02 0.  0.
        -12    1    1    2    0    0 -0.37979298414E+02 -0.20730543241E+02 -0.33824033238E+01  0.43400727913E+02  0.00000000000E+00 0.  1.
         11    1    3    3    0    0  0.25536121594E+02  0.14805983168E+02  0.32481236583E+01  0.29696143709E+02  0.51100000000E-03 0. -1.
        -11    1    3    3    0    0 -0.10835058118E+01  0.11868249268E+01 -0.30152555158E+01  0.34167681129E+01  0.51100000000E-03 0.  1.
        -12    1    3    3    0    0  0.13526682632E+02  0.47377351470E+01  0.31495351813E+01  0.14674360266E+02  0.00000000000E+00 0.  1.
</event>
<event>
 7    1  0.2714068E-010  0.4778727E+02  0.7816164E-02  0.1312668E+00
        -11   -1    0    0    0    0  0.00000000000E+00  0.00000000000E+00  0.45593999997E+02  0.45594000000E+02  0.51100000000E-03 0. -1.
         11   -1    0    0    0    0 -0.00000000000E+00 -0.00000000000E+00 -0.45593999997E+02  0.45594000000E+02  0.51100000000E-03 0.  1.
    9900012    2    1    2    0    0  0.43164543987E+02 -0.30151395158E+01  0.33696444442E+01  0.47787269274E+02  0.19999991927E+02 0.  0.
        -12    1    1    2    0    0 -0.43164543987E+02  0.30151395158E+01 -0.33696444442E+01  0.43400730726E+02  0.00000000000E+00 0.  1.
         11    1    3    3    0    0  0.11750155748E+02 -0.64785193280E+01  0.28516889846E+01  0.13717488951E+02  0.51100000000E-03 0. -1.
        -11    1    3    3    0    0  0.97007315973E+01  0.38948641174E+01 -0.51084264724E+01  0.11634869200E+02  0.51100000000E-03 0.  1.
         12    1    3    3    0    0  0.21713656642E+02 -0.43148430521E+00  0.56263819320E+01  0.22434911123E+02  0.00000000000E+00 0. -1.
</event>
<event>
 7    1  0.2714068E-010  0.4778727E+02  0.7816164E-02  0.1312668E+00
        -11   -1    0    0    0    0  0.00000000000E+00  0.00000000000E+00  0.45593999997E+02  0.45594000000E+02  0.51100000000E-03 0.  1.
         11   -1    0    0    0    0 -0.00000000000E+00 -0.00000000000E+00 -0.45593999997E+02  0.45594000000E+02  0.51100000000E-03 0. -1.
    9900012    2    1    2    0    0 -0.16648305622E+02 -0.83226253435E+00 -0.40071990777E+02  0.47787272058E+02  0.20000004622E+02 0.  0.
        -12    1    1    2    0    0  0.16648305622E+02  0.83226253435E+00  0.40071990777E+02  0.43400727942E+02  0.00000000000E+00 0.  1.
         11    1    3    3    0    0 -0.80863318620E+01 -0.14640285888E+00 -0.17445647105E+02  0.19229165347E+02  0.51100000000E-03 0. -1.
        -11    1    3    3    0    0 -0.11641568597E+02  0.29074170324E+01 -0.12219915132E+02  0.17126164758E+02  0.51100000000E-03 0.  1.
        -12    1    3    3    0    0  0.30795948371E+01 -0.35932767079E+01 -0.10406428540E+02  0.11431941953E+02  0.00000000000E+00 0.  1.
</event>
<event>
 7    1  0.2714068E-010  0.4778728E+02  0.7816164E-02  0.1312668E+00
        -11   -1    0    0    0    0  0.00000000000E+00  0.00000000000E+00  0.45593999997E+02  0.45594000000E+02  0.51100000000E-03 0.  1.
         11   -1    0    0    0    0 -0.00000000000E+00 -0.00000000000E+00 -0.45593999997E+02  0.45594000000E+02  0.51100000000E-03 0. -1.
    9900012    2    1    2    0    0  0.11310119770E+02 -0.12573047525E+02 -0.39970270253E+02  0.47787276073E+02  0.20000022926E+02 0.  0.
        -12    1    1    2    0    0 -0.11310119770E+02  0.12573047525E+02  0.39970270253E+02  0.43400723927E+02  0.00000000000E+00 0.  1.
         11    1    3    3    0    0  0.73101781384E+01 -0.10954074454E+02 -0.33782823493E+02  0.36258924625E+02  0.51100000000E-03 0. -1.
        -11    1    3    3    0    0  0.12944292336E+01 -0.27058913443E+01  0.14657712583E+01  0.33385446906E+01  0.51100000000E-03 0.  1.
        -12    1    3    3    0    0  0.27055123982E+01  0.10869182738E+01 -0.76532180187E+01  0.81898067567E+01  0.00000000000E+00 0.  1.
</event>
<event>
 7    1  0.2714068E-010  0.4778727E+02  0.7816164E-02  0.1312668E+00
        -11   -1    0    0    0    0  0.00000000000E+00  0.00000000000E+00  0.45593999997E+02  0.45594000000E+02  0.51100000000E-03 0.  1.
         11   -1    0    0    0    0 -0.00000000000E+00 -0.00000000000E+00 -0.45593999997E+02  0.45594000000E+02  0.51100000000E-03 0. -1.
    9900012    2    1    2    0    0 -0.21929747865E+02  0.32921792466E+02 -0.17856791757E+02  0.47787271061E+02  0.20000000075E+02 0.  0.
        -12    1    1    2    0    0  0.21929747865E+02 -0.32921792466E+02  0.17856791757E+02  0.43400728939E+02  0.00000000000E+00 0.  1.
         11    1    3    3    0    0 -0.17405869615E+02  0.23355657745E+02 -0.14585582986E+02  0.32575915598E+02  0.51100000000E-03 0. -1.
        -11    1    3    3    0    0  0.31709724316E+01  0.49126147520E+01 -0.16321800867E+01  0.60706558097E+01  0.51100000000E-03 0.  1.
        -12    1    3    3    0    0 -0.76948506821E+01  0.46535199689E+01 -0.16390286843E+01  0.91406996531E+01  0.00000000000E+00 0.  1.
</event>
<event>
 7    1  0.2714068E-010  0.4778727E+02  0.7816164E-02  0.1312668E+00
        -11   -1    0    0    0    0  0.00000000000E+00  0.00000000000E+00  0.45593999997E+02  0.45594000000E+02  0.51100000000E-03 0.  1.
         11   -1    0    0    0    0 -0.00000000000E+00 -0.00000000000E+00 -0.45593999997E+02  0.45594000000E+02  0.51100000000E-03 0. -1.
    9900012    2    1    2    0    0 -0.15161443141E+02 -0.34811936945E+02 -0.21021006598E+02  0.47787273849E+02  0.20000012788E+02 0.  0.
        -12    1    1    2    0    0  0.15161443141E+02  0.34811936945E+02  0.21021006598E+02  0.43400726151E+02  0.00000000000E+00 0.  1.
         11    1    3    3    0    0 -0.99685415416E+01 -0.10836491739E+02 -0.11346118131E+02  0.18588592485E+02  0.51100000000E-03 0. -1.
        -11    1    3    3    0    0  0.22611190127E+01 -0.56681048200E+01  0.17748851560E+01  0.63553354764E+01  0.51100000000E-03 0.  1.
        -12    1    3    3    0    0 -0.74540206124E+01 -0.18307340387E+02 -0.11449773623E+02  0.22843345888E+02  0.00000000000E+00 0.  1.
</event>
<event>
 7    1  0.2714068E-010  0.4778727E+02  0.7816164E-02  0.1312668E+00
        -11   -1    0    0    0    0  0.00000000000E+00  0.00000000000E+00  0.45593999997E+02  0.45594000000E+02  0.51100000000E-03 0.  1.
         11   -1    0    0    0    0 -0.00000000000E+00 -0.00000000000E+00 -0.45593999997E+02  0.45594000000E+02  0.51100000000E-03 0. -1.
    9900012    2    1    2    0    0 -0.25972500166E+02 -0.61879754245E+01 -0.34216390982E+02  0.47787271704E+02  0.20000003009E+02 0.  0.
        -12    1    1    2    0    0  0.25972500166E+02  0.61879754245E+01  0.34216390982E+02  0.43400728296E+02  0.00000000000E+00 0.  1.
         11    1    3    3    0    0 -0.16162177021E+02 -0.79762253101E+01 -0.16780260770E+02  0.24625460159E+02  0.51100000000E-03 0. -1.
        -11    1    3    3    0    0  0.47317478077E+00  0.45584483309E+01 -0.56957179145E+01  0.73105778418E+01  0.51100000000E-03 0.  1.
        -12    1    3    3    0    0 -0.10283497926E+02 -0.27701984453E+01 -0.11740412298E+02  0.15851233704E+02  0.00000000000E+00 0.  1.
</event>
<event>
 7    1  0.2714068E-010  0.4778727E+02  0.7816164E-02  0.1312668E+00
        -11   -1    0    0    0    0  0.00000000000E+00  0.00000000000E+00  0.45593999997E+02  0.45594000000E+02  0.51100000000E-03 0.  1.
         11   -1    0    0    0    0 -0.00000000000E+00 -0.00000000000E+00 -0.45593999997E+02  0.45594000000E+02  0.51100000000E-03 0. -1.
    9900012    2    1    2    0    0 -0.19966706766E+02 -0.41055182415E+01 -0.38315772211E+02  0.47787273517E+02  0.20000011275E+02 0.  0.
        -12    1    1    2    0    0  0.19966706766E+02  0.41055182415E+01  0.38315772211E+02  0.43400726483E+02  0.00000000000E+00 0.  1.
         11    1    3    3    0    0 -0.86146636280E+01  0.43698142455E+01 -0.16498099408E+02  0.19117923273E+02  0.51100000000E-03 0. -1.
        -11    1    3    3    0    0 -0.70755962180E+00 -0.36170060003E+01  0.24738854028E+00  0.36938563014E+01  0.51100000000E-03 0.  1.
        -12    1    3    3    0    0 -0.10644483516E+02 -0.48583264867E+01 -0.22065061344E+02  0.24975493942E+02  0.00000000000E+00 0.  1.
</event>
<event>
 7    1  0.2714068E-010  0.4778727E+02  0.7816164E-02  0.1312668E+00
        -11   -1    0    0    0    0  0.00000000000E+00  0.00000000000E+00  0.45593999997E+02  0.45594000000E+02  0.51100000000E-03 0.  1.
         11   -1    0    0    0    0 -0.00000000000E+00 -0.00000000000E+00 -0.45593999997E+02  0.45594000000E+02  0.51100000000E-03 0. -1.
    9900012    2    1    2    0    0  0.11323010099E+02 -0.28704878141E+02 -0.30519543632E+02  0.47787272698E+02  0.20000007539E+02 0.  0.
        -12    1    1    2    0    0 -0.11323010099E+02  0.28704878141E+02  0.30519543632E+02  0.43400727302E+02  0.00000000000E+00 0.  1.
         11    1    3    3    0    0 -0.98465504364E+00 -0.38948841346E+01 -0.72959005151E+01  0.83288554174E+01  0.51100000000E-03 0. -1.
        -11    1    3    3    0    0  0.79826281449E+01 -0.12278009594E+02 -0.21607719218E+02  0.26102976876E+02  0.51100000000E-03 0.  1.
        -12    1    3    3    0    0  0.43250369980E+01 -0.12531984413E+02 -0.16159238990E+01  0.13355440405E+02  0.00000000000E+00 0.  1.
</event>
<event>
 7    1  0.2714068E-010  0.4778727E+02  0.7816164E-02  0.1312668E+00
        -11   -1    0    0    0    0  0.00000000000E+00  0.00000000000E+00  0.45593999997E+02  0.45594000000E+02  0.51100000000E-03 0. -1.
         11   -1    0    0    0    0 -0.00000000000E+00 -0.00000000000E+00 -0.45593999997E+02  0.45594000000E+02  0.51100000000E-03 0.  1.
    9900012    2    1    2    0    0  0.66455803010E+01  0.37977748685E+02  0.19928638760E+02  0.47787265265E+02  0.19999973648E+02 0.  0.
        -12    1    1    2    0    0 -0.66455803010E+01 -0.37977748685E+02 -0.19928638760E+02  0.43400734735E+02  0.00000000000E+00 0.  1.
         11    1    3    3    0    0  0.17835381764E+00  0.90123172947E+01  0.10677139427E+02  0.13973366800E+02  0.51100000000E-03 0. -1.
        -11    1    3    3    0    0  0.30596050473E+01  0.25709503677E+02  0.31168981411E+01  0.26077860661E+02  0.51100000000E-03 0.  1.
        -12    1    3    3    0    0  0.34076214361E+01  0.32559277135E+01  0.61346011917E+01  0.77360378042E+01  0.00000000000E+00 0.  1.
</event>
<event>
 7    1  0.2714068E-010  0.4778727E+02  0.7816164E-02  0.1312668E+00
        -11   -1    0    0    0    0  0.00000000000E+00  0.00000000000E+00  0.45593999997E+02  0.45594000000E+02  0.51100000000E-03 0.  1.
         11   -1    0    0    0    0 -0.00000000000E+00 -0.00000000000E+00 -0.45593999997E+02  0.45594000000E+02  0.51100000000E-03 0. -1.
    9900012    2    1    2    0    0 -0.19088120386E+02 -0.21827055033E+02 -0.32293135473E+02  0.47787271089E+02  0.20000000205E+02 0.  0.
        -12    1    1    2    0    0  0.19088120386E+02  0.21827055033E+02  0.32293135473E+02  0.43400728911E+02  0.00000000000E+00 0.  1.
         11    1    3    3    0    0 -0.71287115036E+01 -0.17796554496E+02 -0.17426632935E+02  0.25907979762E+02  0.51100000000E-03 0. -1.
        -11    1    3    3    0    0 -0.12652049855E+02 -0.59139421479E+01 -0.12215858316E+02  0.18554683288E+02  0.51100000000E-03 0.  1.
         12    1    3    3    0    0  0.69264097235E+00  0.18834416117E+01 -0.26506442226E+01  0.33246080395E+01  0.00000000000E+00 0. -1.
</event>
<event>
 7    1  0.2714068E-010  0.4778727E+02  0.7816164E-02  0.1312668E+00
        -11   -1    0    0    0    0  0.00000000000E+00  0.00000000000E+00  0.45593999997E+02  0.45594000000E+02  0.51100000000E-03 0.  1.
         11   -1    0    0    0    0 -0.00000000000E+00 -0.00000000000E+00 -0.45593999997E+02  0.45594000000E+02  0.51100000000E-03 0. -1.
    9900012    2    1    2    0    0 -0.26467872025E+02 -0.74474364585E+01 -0.33579918721E+02  0.47787268432E+02  0.19999988087E+02 0.  0.
        -12    1    1    2    0    0  0.26467872025E+02  0.74474364585E+01  0.33579918721E+02  0.43400731568E+02  0.00000000000E+00 0.  1.
         11    1    3    3    0    0 -0.12586727470E+02 -0.39776516509E+01 -0.26361703967E+02  0.29481975127E+02  0.51100000000E-03 0. -1.
        -11    1    3    3    0    0 -0.13487447567E+02 -0.24388382134E+01 -0.31142226985E+01  0.14055516959E+02  0.51100000000E-03 0.  1.
        -12    1    3    3    0    0 -0.39369698821E+00 -0.10309465942E+01 -0.41039920556E+01  0.42497763460E+01  0.00000000000E+00 0.  1.
</event>
<event>
 7    1  0.2714068E-010  0.4778727E+02  0.7816164E-02  0.1312668E+00
        -11   -1    0    0    0    0  0.00000000000E+00  0.00000000000E+00  0.45593999997E+02  0.45594000000E+02  0.51100000000E-03 0. -1.
         11   -1    0    0    0    0 -0.00000000000E+00 -0.00000000000E+00 -0.45593999997E+02  0.45594000000E+02  0.51100000000E-03 0.  1.
    9900012    2    1    2    0    0 -0.34655791578E+02 -0.12618815616E+02  0.22877172039E+02  0.47787269615E+02  0.19999993483E+02 0.  0.
        -12    1    1    2    0    0  0.34655791578E+02  0.12618815616E+02 -0.22877172039E+02  0.43400730385E+02  0.00000000000E+00 0.  1.
         11    1    3    3    0    0 -0.33042730358E+02 -0.75968887426E+01  0.16758650391E+02  0.37820458898E+02  0.51100000000E-03 0. -1.
        -11    1    3    3    0    0 -0.22783275117E+01 -0.36685046160E+01  0.69963985106E+01  0.82218182143E+01  0.51100000000E-03 0.  1.
         12    1    3    3    0    0  0.66526629193E+00 -0.13534222576E+01 -0.87787686290E+00  0.17449925023E+01  0.00000000000E+00 0. -1.
</event>
<event>
 7    1  0.2714068E-010  0.4778726E+02  0.7816164E-02  0.1312668E+00
        -11   -1    0    0    0    0  0.00000000000E+00  0.00000000000E+00  0.45593999997E+02  0.45594000000E+02  0.51100000000E-03 0. -1.
         11   -1    0    0    0    0 -0.00000000000E+00 -0.00000000000E+00 -0.45593999997E+02  0.45594000000E+02  0.51100000000E-03 0.  1.
    9900012    2    1    2    0    0  0.20161036528E+02  0.30929995646E+02  0.22814296798E+02  0.47787260802E+02  0.19999953300E+02 0.  0.
        -12    1    1    2    0    0 -0.20161036528E+02 -0.30929995646E+02 -0.22814296798E+02  0.43400739198E+02  0.00000000000E+00 0.  1.
         11    1    3    3    0    0  0.15346659268E+02  0.87622597555E+01  0.60932262076E+01  0.18692901128E+02  0.51100000000E-03 0.  1.
        -11    1    3    3    0    0  0.59047847793E+01  0.21848654550E+02  0.16261776319E+02  0.27868899480E+02  0.51100000000E-03 0. -1.
         12    1    3    3    0    0 -0.10904075188E+01  0.31908134141E+00  0.45929427085E+00  0.12254601939E+01  0.00000000000E+00 0. -1.
</event>
<event>
 7    1  0.2714068E-010  0.4778727E+02  0.7816164E-02  0.1312668E+00
        -11   -1    0    0    0    0  0.00000000000E+00  0.00000000000E+00  0.45593999997E+02  0.45594000000E+02  0.51100000000E-03 0.  1.
         11   -1    0    0    0    0 -0.00000000000E+00 -0.00000000000E+00 -0.45593999997E+02  0.45594000000E+02  0.51100000000E-03 0. -1.
    9900012    2    1    2    0    0 -0.42212646302E+01 -0.53714899527E+01 -0.42859668119E+02  0.47787272695E+02  0.20000007524E+02 0.  0.
        -12    1    1    2    0    0  0.42212646302E+01  0.53714899527E+01  0.42859668119E+02  0.43400727305E+02  0.00000000000E+00 0.  1.
         11    1    3    3    0    0 -0.12338520198E+01 -0.70190674321E+00 -0.34604410427E+02  0.34633513901E+02  0.51100000000E-03 0. -1.
        -11    1    3    3    0    0 -0.36188644789E+01 -0.66188784913E+01 -0.81451745248E+01  0.11101783681E+02  0.51100000000E-03 0.  1.
        -12    1    3    3    0    0  0.63145186846E+00  0.19492952818E+01 -0.11008316666E+00  0.20519751123E+01  0.00000000000E+00 0.  1.
</event>
<event>
 7    1  0.2714068E-010  0.4778727E+02  0.7816164E-02  0.1312668E+00
        -11   -1    0    0    0    0  0.00000000000E+00  0.00000000000E+00  0.45593999997E+02  0.45594000000E+02  0.51100000000E-03 0. -1.
         11   -1    0    0    0    0 -0.00000000000E+00 -0.00000000000E+00 -0.45593999997E+02  0.45594000000E+02  0.51100000000E-03 0.  1.
    9900012    2    1    2    0    0 -0.10885086194E+02 -0.33373155554E+02  0.25521962769E+02  0.47787271934E+02  0.20000004056E+02 0.  0.
        -12    1    1    2    0    0  0.10885086194E+02  0.33373155554E+02 -0.25521962769E+02  0.43400728066E+02  0.00000000000E+00 0.  1.
         11    1    3    3    0    0 -0.12578774673E+02 -0.33229812241E+02  0.25380265471E+02  0.43664675305E+02  0.51100000000E-03 0. -1.
        -11    1    3    3    0    0  0.21960039666E+01  0.12016180788E+01 -0.49552292590E+00  0.25518351553E+01  0.51100000000E-03 0.  1.
        -12    1    3    3    0    0 -0.50231548747E+00 -0.13449613914E+01  0.63722022401E+00  0.15707614736E+01  0.00000000000E+00 0.  1.
</event>
<event>
 7    1  0.2714068E-010  0.4778727E+02  0.7816164E-02  0.1312668E+00
        -11   -1    0    0    0    0  0.00000000000E+00  0.00000000000E+00  0.45593999997E+02  0.45594000000E+02  0.51100000000E-03 0.  1.
         11   -1    0    0    0    0 -0.00000000000E+00 -0.00000000000E+00 -0.45593999997E+02  0.45594000000E+02  0.51100000000E-03 0. -1.
    9900012    2    1    2    0    0  0.42348420411E+02  0.10403380564E+01  0.94420378592E+01  0.47787273122E+02  0.20000009473E+02 0.  0.
        -12    1    1    2    0    0 -0.42348420411E+02 -0.10403380564E+01 -0.94420378592E+01  0.43400726878E+02  0.00000000000E+00 0.  1.
         11    1    3    3    0    0  0.20712407625E+02 -0.31646877762E+00  0.75440602786E+01  0.22045789346E+02  0.51100000000E-03 0. -1.
        -11    1    3    3    0    0  0.73976009835E+01  0.45473639186E+01  0.60351720477E+01  0.10574796491E+02  0.51100000000E-03 0.  1.
        -12    1    3    3    0    0  0.14238411802E+02 -0.31905570845E+01 -0.41371944670E+01  0.15166687285E+02  0.00000000000E+00 0.  1.
</event>
<event>
 7    1  0.2714068E-010  0.4778727E+02  0.7816164E-02  0.1312668E+00
        -11   -1    0    0    0    0  0.00000000000E+00  0.00000000000E+00  0.45593999997E+02  0.45594000000E+02  0.51100000000E-03 0.  1.
         11   -1    0    0    0    0 -0.00000000000E+00 -0.00000000000E+00 -0.45593999997E+02  0.45594000000E+02  0.51100000000E-03 0. -1.
    9900012    2    1    2    0    0 -0.23981203848E+02  0.31542089842E+02 -0.17709373208E+02  0.47787268796E+02  0.19999989750E+02 0.  0.
        -12    1    1    2    0    0  0.23981203848E+02 -0.31542089842E+02  0.17709373208E+02  0.43400731204E+02  0.00000000000E+00 0.  1.
         11    1    3    3    0    0 -0.10329710789E+02  0.46076860276E+01  0.20771297859E+00  0.11312684936E+02  0.51100000000E-03 0. -1.
        -11    1    3    3    0    0 -0.77062968211E+01  0.21891469221E+02 -0.97178111943E+01  0.25160669506E+02  0.51100000000E-03 0.  1.
         12    1    3    3    0    0 -0.59451962378E+01  0.50429345936E+01 -0.81992749925E+01  0.11313914355E+02  0.00000000000E+00 0. -1.
</event>
<event>
 7    1  0.2714068E-010  0.4778727E+02  0.7816164E-02  0.1312668E+00
        -11   -1    0    0    0    0  0.00000000000E+00  0.00000000000E+00  0.45593999997E+02  0.45594000000E+02  0.51100000000E-03 0.  1.
         11   -1    0    0    0    0 -0.00000000000E+00 -0.00000000000E+00 -0.45593999997E+02  0.45594000000E+02  0.51100000000E-03 0. -1.
    9900012    2    1    2    0    0 -0.17908640354E+02 -0.32732966789E+02 -0.22168829473E+02  0.47787268274E+02  0.19999987370E+02 0.  0.
        -12    1    1    2    0    0  0.17908640354E+02  0.32732966789E+02  0.22168829473E+02  0.43400731726E+02  0.00000000000E+00 0.  1.
         11    1    3    3    0    0 -0.85224750304E+01 -0.93020149684E+01 -0.14181631041E+02  0.18981009519E+02  0.51100000000E-03 0. -1.
        -11    1    3    3    0    0 -0.45952341150E+01 -0.14723400873E+02  0.93253979070E+00  0.15452001183E+02  0.51100000000E-03 0.  1.
        -12    1    3    3    0    0 -0.47909312086E+01 -0.87075509470E+01 -0.89197382221E+01  0.13354257572E+02  0.00000000000E+00 0.  1.
</event>
<event>
 7    1  0.2714068E-010  0.4778728E+02  0.7816164E-02  0.1312668E+00
        -11   -1    0    0    0    0  0.00000000000E+00  0.00000000000E+00  0.45593999997E+02  0.45594000000E+02  0.51100000000E-03 0. -1.
         11   -1    0    0    0    0 -0.00000000000E+00 -0.00000000000E+00 -0.45593999997E+02  0.45594000000E+02  0.51100000000E-03 0.  1.
    9900012    2    1    2    0    0 -0.20273217789E+02 -0.38276532149E+02  0.27434364344E+01  0.47787277468E+02  0.20000029285E+02 0.  0.
        -12    1    1    2    0    0  0.20273217789E+02  0.38276532149E+02 -0.27434364344E+01  0.43400722532E+02  0.00000000000E+00 0.  1.
         11    1    3    3    0    0 -0.95003421338E+00 -0.65093058790E+01 -0.54165993022E+01  0.85213365322E+01  0.51100000000E-03 0. -1.
        -11    1    3    3    0    0 -0.16886284292E+02 -0.20200441740E+02  0.77191771666E+01  0.27437021341E+02  0.51100000000E-03 0.  1.
         12    1    3    3    0    0 -0.24368992832E+01 -0.11566784530E+02  0.44085856996E+00  0.11828919594E+02  0.00000000000E+00 0. -1.
</event>
<event>
 7    1  0.2714068E-010  0.4778727E+02  0.7816164E-02  0.1312668E+00
        -11   -1    0    0    0    0  0.00000000000E+00  0.00000000000E+00  0.45593999997E+02  0.45594000000E+02  0.51100000000E-03 0.  1.
         11   -1    0    0    0    0 -0.00000000000E+00 -0.00000000000E+00 -0.45593999997E+02  0.45594000000E+02  0.51100000000E-03 0. -1.
    9900012    2    1    2    0    0  0.15039679285E+02 -0.18571074338E+02 -0.36229090214E+02  0.47787265757E+02  0.19999975895E+02 0.  0.
        -12    1    1    2    0    0 -0.15039679285E+02  0.18571074338E+02  0.36229090214E+02  0.43400734243E+02  0.00000000000E+00 0.  1.
         11    1    3    3    0    0  0.11572722346E+01 -0.34211945155E+01 -0.70896705513E+01  0.79565871908E+01  0.51100000000E-03 0. -1.
        -11    1    3    3    0    0  0.12590074713E+02 -0.13456119312E+02 -0.31597141974E+02  0.36578087831E+02  0.51100000000E-03 0.  1.
        -12    1    3    3    0    0  0.12923323373E+01 -0.16937605106E+01  0.24577223108E+01  0.32525907357E+01  0.00000000000E+00 0.  1.
</event>
<event>
 7    1  0.2714068E-010  0.4778729E+02  0.7816164E-02  0.1312668E+00
        -11   -1    0    0    0    0  0.00000000000E+00  0.00000000000E+00  0.45593999997E+02  0.45594000000E+02  0.51100000000E-03 0. -1.
         11   -1    0    0    0    0 -0.00000000000E+00 -0.00000000000E+00 -0.45593999997E+02  0.45594000000E+02  0.51100000000E-03 0.  1.
    9900012    2    1    2    0    0  0.23754716113E+02 -0.35493221766E+02  0.77179387194E+01  0.47787286792E+02  0.20000071799E+02 0.  0.
        -12    1    1    2    0    0 -0.23754716113E+02  0.35493221766E+02 -0.77179387194E+01  0.43400713208E+02  0.00000000000E+00 0.  1.
         11    1    3    3    0    0  0.71107117383E+01 -0.27837170308E+01  0.71005554072E+01  0.10427328962E+02  0.51100000000E-03 0. -1.
        -11    1    3    3    0    0  0.14761399121E+02 -0.25199992706E+02 -0.17689277173E+01  0.29258633630E+02  0.51100000000E-03 0.  1.
        -12    1    3    3    0    0  0.18826052535E+01 -0.75095120290E+01  0.23863110295E+01  0.81013241993E+01  0.00000000000E+00 0.  1.
</event>
<event>
 7    1  0.2714068E-010  0.4778727E+02  0.7816164E-02  0.1312668E+00
        -11   -1    0    0    0    0  0.00000000000E+00  0.00000000000E+00  0.45593999997E+02  0.45594000000E+02  0.51100000000E-03 0.  1.
         11   -1    0    0    0    0 -0.00000000000E+00 -0.00000000000E+00 -0.45593999997E+02  0.45594000000E+02  0.51100000000E-03 0. -1.
    9900012    2    1    2    0    0 -0.65304807410E+01  0.20700516290E+02 -0.37582769347E+02  0.47787272988E+02  0.20000008860E+02 0.  0.
        -12    1    1    2    0    0  0.65304807410E+01 -0.20700516290E+02  0.37582769347E+02  0.43400727012E+02  0.00000000000E+00 0.  1.
         11    1    3    3    0    0 -0.98377458843E+01  0.14982841046E+02 -0.14847155664E+02  0.23274552658E+02  0.51100000000E-03 0. -1.
        -11    1    3    3    0    0 -0.42498700686E+00  0.35383721996E+00 -0.11513078706E+02  0.11526352254E+02  0.51100000000E-03 0.  1.
         12    1    3    3    0    0  0.37322521501E+01  0.53638380245E+01 -0.11222534978E+02  0.12986368076E+02  0.00000000000E+00 0. -1.
</event>
<event>
 7    1  0.2714068E-010  0.4778728E+02  0.7816164E-02  0.1312668E+00
        -11   -1    0    0    0    0  0.00000000000E+00  0.00000000000E+00  0.45593999997E+02  0.45594000000E+02  0.51100000000E-03 0.  1.
         11   -1    0    0    0    0 -0.00000000000E+00 -0.00000000000E+00 -0.45593999997E+02  0.45594000000E+02  0.51100000000E-03 0. -1.
    9900012    2    1    2    0    0 -0.53812863550E+01 -0.43061633141E+02 -0.60015543750E+00  0.47787277908E+02  0.20000031293E+02 0.  0.
        -12    1    1    2    0    0  0.53812863550E+01  0.43061633141E+02  0.60015543750E+00  0.43400722092E+02  0.00000000000E+00 0.  1.
         11    1    3    3    0    0 -0.85711514226E+01 -0.16026636990E+02  0.31924830838E+01  0.18452904335E+02  0.51100000000E-03 0. -1.
        -11    1    3    3    0    0  0.63340699012E+01 -0.22473693455E+02 -0.44033386845E+01  0.23760823446E+02  0.51100000000E-03 0.  1.
        -12    1    3    3    0    0 -0.31442048336E+01 -0.45613026961E+01  0.61070016321E+00  0.55735501263E+01  0.00000000000E+00 0.  1.
</event>
<event>
 7    1  0.2714068E-010  0.4778727E+02  0.7816164E-02  0.1312668E+00
        -11   -1    0    0    0    0  0.00000000000E+00  0.00000000000E+00  0.45593999997E+02  0.45594000000E+02  0.51100000000E-03 0. -1.
         11   -1    0    0    0    0 -0.00000000000E+00 -0.00000000000E+00 -0.45593999997E+02  0.45594000000E+02  0.51100000000E-03 0.  1.
    9900012    2    1    2    0    0 -0.83663570160E+01  0.36375761680E+02  0.22145685148E+02  0.47787270303E+02  0.19999996619E+02 0.  0.
        -12    1    1    2    0    0  0.83663570160E+01 -0.36375761680E+02 -0.22145685148E+02  0.43400729697E+02  0.00000000000E+00 0.  1.
         11    1    3    3    0    0 -0.88247964566E+01  0.31378251119E+02  0.22241951925E+02  0.39461070709E+02  0.51100000000E-03 0. -1.
        -11    1    3    3    0    0 -0.21429740091E+01  0.35030412225E+01  0.20959337010E+01  0.46104851968E+01  0.51100000000E-03 0.  1.
         12    1    3    3    0    0  0.26014134498E+01  0.14944693386E+01 -0.21922004784E+01  0.37157143967E+01  0.00000000000E+00 0. -1.
</event>
<event>
 7    1  0.2714068E-010  0.4778727E+02  0.7816164E-02  0.1312668E+00
        -11   -1    0    0    0    0  0.00000000000E+00  0.00000000000E+00  0.45593999997E+02  0.45594000000E+02  0.51100000000E-03 0.  1.
         11   -1    0    0    0    0 -0.00000000000E+00 -0.00000000000E+00 -0.45593999997E+02  0.45594000000E+02  0.51100000000E-03 0. -1.
    9900012    2    1    2    0    0  0.76651700794E+01  0.35707412864E+02  0.23448863339E+02  0.47787270079E+02  0.19999995598E+02 0.  0.
        -12    1    1    2    0    0 -0.76651700794E+01 -0.35707412864E+02 -0.23448863339E+02  0.43400729921E+02  0.00000000000E+00 0.  1.
         11    1    3    3    0    0 -0.98170286554E+00  0.29429536955E+01  0.33907866179E-01  0.31025581339E+01  0.51100000000E-03 0. -1.
        -11    1    3    3    0    0  0.64406103805E+00  0.26786648724E+02  0.11557946016E+02  0.29180909528E+02  0.51100000000E-03 0.  1.
        -12    1    3    3    0    0  0.80028119069E+01  0.59778104438E+01  0.11857009458E+02  0.15503802417E+02  0.00000000000E+00 0.  1.
</event>
<event>
 7    1  0.2714068E-010  0.4778727E+02  0.7816164E-02  0.1312668E+00
        -11   -1    0    0    0    0  0.00000000000E+00  0.00000000000E+00  0.45593999997E+02  0.45594000000E+02  0.51100000000E-03 0.  1.
         11   -1    0    0    0    0 -0.00000000000E+00 -0.00000000000E+00 -0.45593999997E+02  0.45594000000E+02  0.51100000000E-03 0. -1.
    9900012    2    1    2    0    0  0.36680112038E+02  0.19098775317E+02 -0.13169259532E+02  0.47787271500E+02  0.20000002076E+02 0.  0.
        -12    1    1    2    0    0 -0.36680112038E+02 -0.19098775317E+02  0.13169259532E+02  0.43400728500E+02  0.00000000000E+00 0.  1.
         11    1    3    3    0    0  0.31483172311E+02  0.86469949026E+01 -0.13149123623E+02  0.35197444679E+02  0.51100000000E-03 0. -1.
        -11    1    3    3    0    0  0.27302764584E+01  0.57289132709E+01  0.23378488178E+01  0.67631645079E+01  0.51100000000E-03 0.  1.
         12    1    3    3    0    0  0.24666632686E+01  0.47228671436E+01 -0.23579847264E+01  0.58266623127E+01  0.00000000000E+00 0. -1.
</event>
<event>
 7    1  0.2714068E-010  0.4778729E+02  0.7816164E-02  0.1312668E+00
        -11   -1    0    0    0    0  0.00000000000E+00  0.00000000000E+00  0.45593999997E+02  0.45594000000E+02  0.51100000000E-03 0.  1.
         11   -1    0    0    0    0 -0.00000000000E+00 -0.00000000000E+00 -0.45593999997E+02  0.45594000000E+02  0.51100000000E-03 0. -1.
    9900012    2    1    2    0    0  0.27311453674E+01 -0.13726334936E+02 -0.41082234992E+02  0.47787291968E+02  0.20000095397E+02 0.  0.
        -12    1    1    2    0    0 -0.27311453674E+01  0.13726334936E+02  0.41082234992E+02  0.43400708032E+02  0.00000000000E+00 0.  1.
         11    1    3    3    0    0 -0.35248241206E+00  0.22766666945E+00 -0.53287695304E+00  0.67825811562E+00  0.51100000000E-03 0. -1.
        -11    1    3    3    0    0  0.11078725373E+02 -0.99341209969E+01 -0.22707767840E+02  0.27148989602E+02  0.51100000000E-03 0.  1.
        -12    1    3    3    0    0 -0.79950975937E+01 -0.40198806084E+01 -0.17841590199E+02  0.19960044250E+02  0.00000000000E+00 0.  1.
</event>
<event>
 7    1  0.2714068E-010  0.4778727E+02  0.7816164E-02  0.1312668E+00
        -11   -1    0    0    0    0  0.00000000000E+00  0.00000000000E+00  0.45593999997E+02  0.45594000000E+02  0.51100000000E-03 0. -1.
         11   -1    0    0    0    0 -0.00000000000E+00 -0.00000000000E+00 -0.45593999997E+02  0.45594000000E+02  0.51100000000E-03 0.  1.
    9900012    2    1    2    0    0  0.35128643226E+02  0.54039926457E+01  0.24907806486E+02  0.47787268032E+02  0.19999986265E+02 0.  0.
        -12    1    1    2    0    0 -0.35128643226E+02 -0.54039926457E+01 -0.24907806486E+02  0.43400731968E+02  0.00000000000E+00 0.  1.
         11    1    3    3    0    0  0.60233107869E+01  0.60841402312E+01  0.11952833345E+02  0.14702627671E+02  0.51100000000E-03 0.  1.
        -11    1    3    3    0    0  0.19197182115E+02 -0.46592926802E+01  0.88314693540E+01  0.21638753676E+02  0.51100000000E-03 0. -1.
         12    1    3    3    0    0  0.99081503244E+01  0.39791450946E+01  0.41235037865E+01  0.11445886685E+02  0.00000000000E+00 0. -1.
</event>
<event>
 7    1  0.2714068E-010  0.4778727E+02  0.7816164E-02  0.1312668E+00
        -11   -1    0    0    0    0  0.00000000000E+00  0.00000000000E+00  0.45593999997E+02  0.45594000000E+02  0.51100000000E-03 0.  1.
         11   -1    0    0    0    0 -0.00000000000E+00 -0.00000000000E+00 -0.45593999997E+02  0.45594000000E+02  0.51100000000E-03 0. -1.
    9900012    2    1    2    0    0 -0.32491371978E+02 -0.16744436292E+02 -0.23399963508E+02  0.47787266228E+02  0.19999978042E+02 0.  0.
        -12    1    1    2    0    0  0.32491371978E+02  0.16744436292E+02  0.23399963508E+02  0.43400733772E+02  0.00000000000E+00 0.  1.
         11    1    3    3    0    0 -0.66885556324E+01 -0.50818557503E+00 -0.61198088075E+01  0.90800379475E+01  0.51100000000E-03 0. -1.
        -11    1    3    3    0    0 -0.17463660346E+02 -0.42632136347E+01 -0.15990682950E+02  0.24059434005E+02  0.51100000000E-03 0.  1.
        -12    1    3    3    0    0 -0.83391559995E+01 -0.11973037082E+02 -0.12894717506E+01  0.14647794276E+02  0.00000000000E+00 0.  1.
</event>
<event>
 7    1  0.2714068E-010  0.4778727E+02  0.7816164E-02  0.1312668E+00
        -11   -1    0    0    0    0  0.00000000000E+00  0.00000000000E+00  0.45593999997E+02  0.45594000000E+02  0.51100000000E-03 0.  1.
         11   -1    0    0    0    0 -0.00000000000E+00 -0.00000000000E+00 -0.45593999997E+02  0.45594000000E+02  0.51100000000E-03 0. -1.
    9900012    2    1    2    0    0  0.12961954049E+01 -0.62031564019E+01 -0.42935579115E+02  0.47787271598E+02  0.20000002523E+02 0.  0.
        -12    1    1    2    0    0 -0.12961954049E+01  0.62031564019E+01  0.42935579115E+02  0.43400728402E+02  0.00000000000E+00 0.  1.
         11    1    3    3    0    0  0.90875726515E+00  0.26277396612E+01  0.24957390638E+00  0.27916201192E+01  0.51100000000E-03 0. -1.
        -11    1    3    3    0    0  0.32969069600E+00  0.24239497998E+00  0.34171644324E+00  0.53312444143E+00  0.51100000000E-03 0.  1.
         12    1    3    3    0    0  0.57747443718E-01 -0.90732910431E+01 -0.43526869465E+02  0.44462527037E+02  0.00000000000E+00 0. -1.
</event>
<event>
 7    1  0.2714068E-010  0.4778726E+02  0.7816164E-02  0.1312668E+00
        -11   -1    0    0    0    0  0.00000000000E+00  0.00000000000E+00  0.45593999997E+02  0.45594000000E+02  0.51100000000E-03 0. -1.
         11   -1    0    0    0    0 -0.00000000000E+00 -0.00000000000E+00 -0.45593999997E+02  0.45594000000E+02  0.51100000000E-03 0.  1.
    9900012    2    1    2    0    0  0.11940660178E+02  0.19181665745E+02  0.37055475483E+02  0.47787263491E+02  0.19999965562E+02 0.  0.
        -12    1    1    2    0    0 -0.11940660178E+02 -0.19181665745E+02 -0.37055475483E+02  0.43400736509E+02  0.00000000000E+00 0.  1.
         11    1    3    3    0    0  0.12585200395E+02  0.12949268075E+02  0.28822979402E+02  0.34012276527E+02  0.51100000000E-03 0.  1.
        -11    1    3    3    0    0 -0.40886641987E+01  0.37025768282E+01  0.76951613939E+01  0.94679332083E+01  0.51100000000E-03 0. -1.
         12    1    3    3    0    0  0.34441239814E+01  0.25298208417E+01  0.53733468684E+00  0.43070537559E+01  0.00000000000E+00 0. -1.
</event>
<event>
 7    1  0.2714068E-010  0.4778727E+02  0.7816164E-02  0.1312668E+00
        -11   -1    0    0    0    0  0.00000000000E+00  0.00000000000E+00  0.45593999997E+02  0.45594000000E+02  0.51100000000E-03 0.  1.
         11   -1    0    0    0    0 -0.00000000000E+00 -0.00000000000E+00 -0.45593999997E+02  0.45594000000E+02  0.51100000000E-03 0. -1.
    9900012    2    1    2    0    0 -0.29828453465E+02 -0.22848563442E+02 -0.21721644259E+02  0.47787270550E+02  0.19999997746E+02 0.  0.
        -12    1    1    2    0    0  0.29828453465E+02  0.22848563442E+02  0.21721644259E+02  0.43400729450E+02  0.00000000000E+00 0.  1.
         11    1    3    3    0    0 -0.25865933092E+02 -0.12758745448E+02 -0.17627867486E+02  0.33801979121E+02  0.51100000000E-03 0. -1.
        -11    1    3    3    0    0  0.12604716428E+01 -0.47402448603E+01 -0.42752098918E+01  0.65066220098E+01  0.51100000000E-03 0.  1.
         12    1    3    3    0    0 -0.52229920161E+01 -0.53495731334E+01  0.18143311901E+00  0.74786694195E+01  0.00000000000E+00 0. -1.
</event>
<event>
 7    1  0.2714068E-010  0.4778727E+02  0.7816164E-02  0.1312668E+00
        -11   -1    0    0    0    0  0.00000000000E+00  0.00000000000E+00  0.45593999997E+02  0.45594000000E+02  0.51100000000E-03 0. -1.
         11   -1    0    0    0    0 -0.00000000000E+00 -0.00000000000E+00 -0.45593999997E+02  0.45594000000E+02  0.51100000000E-03 0.  1.
    9900012    2    1    2    0    0  0.21227107652E+02 -0.48773622639E+01  0.37539905801E+02  0.47787270865E+02  0.19999999180E+02 0.  0.
        -12    1    1    2    0    0 -0.21227107652E+02  0.48773622639E+01 -0.37539905801E+02  0.43400729135E+02  0.00000000000E+00 0.  1.
         11    1    3    3    0    0  0.18957850336E+02 -0.51605521583E+01  0.20660088932E+02  0.28510886743E+02  0.51100000000E-03 0. -1.
        -11    1    3    3    0    0  0.31714880385E+01 -0.92211336385E+00  0.11841628433E+01  0.35086851291E+01  0.51100000000E-03 0.  1.
         12    1    3    3    0    0 -0.90223072212E+00  0.12053032583E+01  0.15695654026E+02  0.15767698993E+02  0.00000000000E+00 0. -1.
</event>
<event>
 7    1  0.2714068E-010  0.4778727E+02  0.7816164E-02  0.1312668E+00
        -11   -1    0    0    0    0  0.00000000000E+00  0.00000000000E+00  0.45593999997E+02  0.45594000000E+02  0.51100000000E-03 0.  1.
         11   -1    0    0    0    0 -0.00000000000E+00 -0.00000000000E+00 -0.45593999997E+02  0.45594000000E+02  0.51100000000E-03 0. -1.
    9900012    2    1    2    0    0  0.31470349462E+01  0.95150923777E+01 -0.42227744610E+02  0.47787271587E+02  0.20000002473E+02 0.  0.
        -12    1    1    2    0    0 -0.31470349462E+01 -0.95150923777E+01  0.42227744610E+02  0.43400728413E+02  0.00000000000E+00 0.  1.
         11    1    3    3    0    0 -0.28057351621E+01  0.26573324810E+01 -0.92185327908E+01  0.99957447342E+01  0.51100000000E-03 0. -1.
        -11    1    3    3    0    0 -0.19153224693E+01  0.39047591879E+01 -0.69748394581E+00  0.44047801980E+01  0.51100000000E-03 0.  1.
        -12    1    3    3    0    0  0.78680925775E+01  0.29530007088E+01 -0.32311727874E+02  0.33386746655E+02  0.00000000000E+00 0.  1.
</event>
<event>
 7    1  0.2714068E-010  0.4778727E+02  0.7816164E-02  0.1312668E+00
        -11   -1    0    0    0    0  0.00000000000E+00  0.00000000000E+00  0.45593999997E+02  0.45594000000E+02  0.51100000000E-03 0.  1.
         11   -1    0    0    0    0 -0.00000000000E+00 -0.00000000000E+00 -0.45593999997E+02  0.45594000000E+02  0.51100000000E-03 0. -1.
    9900012    2    1    2    0    0 -0.32048743024E+02  0.67191411279E+01 -0.28484279324E+02  0.47787274712E+02  0.20000016722E+02 0.  0.
        -12    1    1    2    0    0  0.32048743024E+02 -0.67191411279E+01  0.28484279324E+02  0.43400725288E+02  0.00000000000E+00 0.  1.
         11    1    3    3    0    0 -0.11201165858E+02 -0.30253500552E+01 -0.13480486455E+02  0.17786016273E+02  0.51100000000E-03 0. -1.
        -11    1    3    3    0    0 -0.11748157062E+01  0.57960243159E+01 -0.33030796745E+01  0.67738043529E+01  0.51100000000E-03 0.  1.
        -12    1    3    3    0    0 -0.19672761460E+02  0.39484668672E+01 -0.11700713194E+02  0.23227454086E+02  0.00000000000E+00 0.  1.
</event>
<event>
 7    1  0.2714068E-010  0.4778727E+02  0.7816164E-02  0.1312668E+00
        -11   -1    0    0    0    0  0.00000000000E+00  0.00000000000E+00  0.45593999997E+02  0.45594000000E+02  0.51100000000E-03 0. -1.
         11   -1    0    0    0    0 -0.00000000000E+00 -0.00000000000E+00 -0.45593999997E+02  0.45594000000E+02  0.51100000000E-03 0.  1.
    9900012    2    1    2    0    0  0.33507584929E+02 -0.59291112706E+01  0.26939020345E+02  0.47787269299E+02  0.19999992042E+02 0.  0.
        -12    1    1    2    0    0 -0.33507584929E+02  0.59291112706E+01 -0.26939020345E+02  0.43400730701E+02  0.00000000000E+00 0.  1.
         11    1    3    3    0    0  0.10359088022E+02  0.83003052359E+00  0.13288094722E+02  0.16869295092E+02  0.51100000000E-03 0. -1.
        -11    1    3    3    0    0  0.61993037988E+01  0.41037224414E+01  0.21789773542E+01  0.77472477718E+01  0.51100000000E-03 0.  1.
        -12    1    3    3    0    0  0.16949193109E+02 -0.10862864236E+02  0.11471948268E+02  0.23170726435E+02  0.00000000000E+00 0.  1.
</event>
<event>
 7    1  0.2714068E-010  0.4778727E+02  0.7816164E-02  0.1312668E+00
        -11   -1    0    0    0    0  0.00000000000E+00  0.00000000000E+00  0.45593999997E+02  0.45594000000E+02  0.51100000000E-03 0.  1.
         11   -1    0    0    0    0 -0.00000000000E+00 -0.00000000000E+00 -0.45593999997E+02  0.45594000000E+02  0.51100000000E-03 0. -1.
    9900012    2    1    2    0    0 -0.16953213088E+02 -0.15514712370E+02 -0.36817189222E+02  0.47787272401E+02  0.20000006185E+02 0.  0.
        -12    1    1    2    0    0  0.16953213088E+02  0.15514712370E+02  0.36817189222E+02  0.43400727599E+02  0.00000000000E+00 0.  1.
         11    1    3    3    0    0 -0.10985324263E+02 -0.84124674183E+01 -0.19392045588E+02  0.23822224699E+02  0.51100000000E-03 0. -1.
        -11    1    3    3    0    0  0.36045492891E+01  0.88565713799E+00 -0.23113847705E+01  0.43726037966E+01  0.51100000000E-03 0.  1.
        -12    1    3    3    0    0 -0.95724381135E+01 -0.79879020898E+01 -0.15113758863E+02  0.19592443906E+02  0.00000000000E+00 0.  1.
</event>
<event>
 7    1  0.2714068E-010  0.4778726E+02  0.7816164E-02  0.1312668E+00
        -11   -1    0    0    0    0  0.00000000000E+00  0.00000000000E+00  0.45593999997E+02  0.45594000000E+02  0.51100000000E-03 0.  1.
         11   -1    0    0    0    0 -0.00000000000E+00 -0.00000000000E+00 -0.45593999997E+02  0.45594000000E+02  0.51100000000E-03 0. -1.
    9900012    2    1    2    0    0 -0.33901139341E+02 -0.11411395823E+00 -0.27098413725E+02  0.47787259257E+02  0.19999946258E+02 0.  0.
        -12    1    1    2    0    0  0.33901139341E+02  0.11411395823E+00  0.27098413725E+02  0.43400740743E+02  0.00000000000E+00 0.  1.
         11    1    3    3    0    0 -0.94326415002E+01 -0.96816968900E+00 -0.68212041867E+01  0.11680792141E+02  0.51100000000E-03 0. -1.
        -11    1    3    3    0    0 -0.27089783831E+02  0.79423600649E+00 -0.19445030305E+02  0.33355605266E+02  0.51100000000E-03 0.  1.
        -12    1    3    3    0    0  0.26212859905E+01  0.59819724284E-01 -0.83217923343E+00  0.27508618504E+01  0.00000000000E+00 0.  1.
</event>
<event>
 7    1  0.2714068E-010  0.4778727E+02  0.7816164E-02  0.1312668E+00
        -11   -1    0    0    0    0  0.00000000000E+00  0.00000000000E+00  0.45593999997E+02  0.45594000000E+02  0.51100000000E-03 0.  1.
         11   -1    0    0    0    0 -0.00000000000E+00 -0.00000000000E+00 -0.45593999997E+02  0.45594000000E+02  0.51100000000E-03 0. -1.
    9900012    2    1    2    0    0  0.35038838184E+02 -0.89975777711E+01 -0.23978043872E+02  0.47787272184E+02  0.20000005197E+02 0.  0.
        -12    1    1    2    0    0 -0.35038838184E+02  0.89975777711E+01  0.23978043872E+02  0.43400727816E+02  0.00000000000E+00 0.  1.
         11    1    3    3    0    0  0.28937083657E+02  0.96470331464E-01 -0.21612106423E+02  0.36117132519E+02  0.51100000000E-03 0. -1.
        -11    1    3    3    0    0  0.37232679177E+01 -0.64762596242E+01 -0.30477894299E+01  0.80680656528E+01  0.51100000000E-03 0.  1.
         12    1    3    3    0    0  0.23784866096E+01 -0.26177884783E+01  0.68185198134E+00  0.36020740128E+01  0.00000000000E+00 0. -1.
</event>
<event>
 7    1  0.2714068E-010  0.4778727E+02  0.7816164E-02  0.1312668E+00
        -11   -1    0    0    0    0  0.00000000000E+00  0.00000000000E+00  0.45593999997E+02  0.45594000000E+02  0.51100000000E-03 0. -1.
         11   -1    0    0    0    0 -0.00000000000E+00 -0.00000000000E+00 -0.45593999997E+02  0.45594000000E+02  0.51100000000E-03 0.  1.
    9900012    2    1    2    0    0  0.22227593946E+02  0.19291847950E+02  0.31896425896E+02  0.47787270572E+02  0.19999997847E+02 0.  0.
        -12    1    1    2    0    0 -0.22227593946E+02 -0.19291847950E+02 -0.31896425896E+02  0.43400729428E+02  0.00000000000E+00 0.  1.
         11    1    3    3    0    0  0.72364914336E+01  0.11383307510E+02  0.10421474611E+02  0.17045633795E+02  0.51100000000E-03 0. -1.
        -11    1    3    3    0    0  0.10373969950E+02 -0.23677308009E+01  0.11826242942E+02  0.15908658775E+02  0.51100000000E-03 0.  1.
        -12    1    3    3    0    0  0.46171325625E+01  0.10276271240E+02  0.96487083437E+01  0.14832978002E+02  0.00000000000E+00 0.  1.
</event>
<event>
 7    1  0.2714068E-010  0.4778727E+02  0.7816164E-02  0.1312668E+00
        -11   -1    0    0    0    0  0.00000000000E+00  0.00000000000E+00  0.45593999997E+02  0.45594000000E+02  0.51100000000E-03 0. -1.
         11   -1    0    0    0    0 -0.00000000000E+00 -0.00000000000E+00 -0.45593999997E+02  0.45594000000E+02  0.51100000000E-03 0.  1.
    9900012    2    1    2    0    0  0.25889147256E+02  0.20679493841E+02  0.28030942403E+02  0.47787272551E+02  0.20000006868E+02 0.  0.
        -12    1    1    2    0    0 -0.25889147256E+02 -0.20679493841E+02 -0.28030942403E+02  0.43400727449E+02  0.00000000000E+00 0.  1.
         11    1    3    3    0    0  0.69023831519E+01  0.10981627267E+02  0.72463214557E+01  0.14857597569E+02  0.51100000000E-03 0. -1.
        -11    1    3    3    0    0  0.20182820898E+02  0.61360153184E+01  0.14466748264E+02  0.25578970835E+02  0.51100000000E-03 0.  1.
        -12    1    3    3    0    0 -0.11960567940E+01  0.35618512554E+01  0.63178726833E+01  0.73507041474E+01  0.00000000000E+00 0.  1.
</event>
<event>
 7    1  0.2714068E-010  0.4778727E+02  0.7816164E-02  0.1312668E+00
        -11   -1    0    0    0    0  0.00000000000E+00  0.00000000000E+00  0.45593999997E+02  0.45594000000E+02  0.51100000000E-03 0.  1.
         11   -1    0    0    0    0 -0.00000000000E+00 -0.00000000000E+00 -0.45593999997E+02  0.45594000000E+02  0.51100000000E-03 0. -1.
    9900012    2    1    2    0    0  0.26660855529E+02  0.27167074911E+02  0.20851189202E+02  0.47787271113E+02  0.20000000315E+02 0.  0.
        -12    1    1    2    0    0 -0.26660855529E+02 -0.27167074911E+02 -0.20851189202E+02  0.43400728887E+02  0.00000000000E+00 0.  1.
         11    1    3    3    0    0  0.14995013227E+02  0.23988547590E+02  0.72853901643E+01  0.29212629927E+02  0.51100000000E-03 0. -1.
        -11    1    3    3    0    0  0.33955415552E+01 -0.81518595257E+00  0.41025603240E+01  0.53875070361E+01  0.51100000000E-03 0.  1.
         12    1    3    3    0    0  0.82703007467E+01  0.39937132740E+01  0.94632387134E+01  0.13187134150E+02  0.00000000000E+00 0. -1.
</event>
<event>
 7    1  0.2714068E-010  0.4778725E+02  0.7816164E-02  0.1312668E+00
        -11   -1    0    0    0    0  0.00000000000E+00  0.00000000000E+00  0.45593999997E+02  0.45594000000E+02  0.51100000000E-03 0.  1.
         11   -1    0    0    0    0 -0.00000000000E+00 -0.00000000000E+00 -0.45593999997E+02  0.45594000000E+02  0.51100000000E-03 0. -1.
    9900012    2    1    2    0    0 -0.85662148612E+01  0.16657923574E+02 -0.39150459459E+02  0.47787251957E+02  0.19999912972E+02 0.  0.
        -12    1    1    2    0    0  0.85662148612E+01 -0.16657923574E+02  0.39150459459E+02  0.43400748043E+02  0.00000000000E+00 0.  1.
         11    1    3    3    0    0  0.37003935800E+01  0.77165493187E+01 -0.70579290374E+01  0.11092899017E+02  0.51100000000E-03 0. -1.
        -11    1    3    3    0    0  0.37351258788E+00  0.15358421960E+01 -0.19379344450E+00  0.15924443678E+01  0.51100000000E-03 0.  1.
         12    1    3    3    0    0 -0.12640121029E+02  0.74055320598E+01 -0.31898736977E+02  0.35101908573E+02  0.00000000000E+00 0. -1.
</event>
<event>
 7    1  0.2714068E-010  0.4778727E+02  0.7816164E-02  0.1312668E+00
        -11   -1    0    0    0    0  0.00000000000E+00  0.00000000000E+00  0.45593999997E+02  0.45594000000E+02  0.51100000000E-03 0.  1.
         11   -1    0    0    0    0 -0.00000000000E+00 -0.00000000000E+00 -0.45593999997E+02  0.45594000000E+02  0.51100000000E-03 0. -1.
    9900012    2    1    2    0    0 -0.25839952682E+02 -0.15525462460E+02 -0.31223070344E+02  0.47787271194E+02  0.20000000682E+02 0.  0.
        -12    1    1    2    0    0  0.25839952682E+02  0.15525462460E+02  0.31223070344E+02  0.43400728806E+02  0.00000000000E+00 0.  1.
         11    1    3    3    0    0 -0.51337546246E+01 -0.13312959714E+01 -0.97697665373E+01  0.11116479837E+02  0.51100000000E-03 0. -1.
        -11    1    3    3    0    0 -0.88092963948E+01  0.19275771458E+01 -0.32056901138E+01  0.95705645597E+01  0.51100000000E-03 0.  1.
        -12    1    3    3    0    0 -0.11896901662E+02 -0.16121743635E+02 -0.18247613693E+02  0.27100226797E+02  0.00000000000E+00 0.  1.
</event>
<event>
 7    1  0.2714068E-010  0.4778727E+02  0.7816164E-02  0.1312668E+00
        -11   -1    0    0    0    0  0.00000000000E+00  0.00000000000E+00  0.45593999997E+02  0.45594000000E+02  0.51100000000E-03 0. -1.
         11   -1    0    0    0    0 -0.00000000000E+00 -0.00000000000E+00 -0.45593999997E+02  0.45594000000E+02  0.51100000000E-03 0.  1.
    9900012    2    1    2    0    0 -0.13188308697E+02  0.21942754328E+02  0.35045790393E+02  0.47787269844E+02  0.19999994525E+02 0.  0.
        -12    1    1    2    0    0  0.13188308697E+02 -0.21942754328E+02 -0.35045790393E+02  0.43400730156E+02  0.00000000000E+00 0.  1.
         11    1    3    3    0    0 -0.12112132276E+02  0.10539945948E+02  0.10881043896E+02  0.19395652229E+02  0.51100000000E-03 0. -1.
        -11    1    3    3    0    0  0.25396206267E+01  0.84383701959E+01  0.93135497690E+01  0.12821777336E+02  0.51100000000E-03 0.  1.
         12    1    3    3    0    0 -0.36157970475E+01  0.29644381844E+01  0.14851196728E+02  0.15569840279E+02  0.00000000000E+00 0. -1.
</event>
<event>
 7    1  0.2714068E-010  0.4778727E+02  0.7816164E-02  0.1312668E+00
        -11   -1    0    0    0    0  0.00000000000E+00  0.00000000000E+00  0.45593999997E+02  0.45594000000E+02  0.51100000000E-03 0.  1.
         11   -1    0    0    0    0 -0.00000000000E+00 -0.00000000000E+00 -0.45593999997E+02  0.45594000000E+02  0.51100000000E-03 0. -1.
    9900012    2    1    2    0    0  0.18690518125E+02 -0.35071050459E+02  0.17444456223E+02  0.47787273036E+02  0.20000009083E+02 0.  0.
        -12    1    1    2    0    0 -0.18690518125E+02  0.35071050459E+02 -0.17444456223E+02  0.43400726964E+02  0.00000000000E+00 0.  1.
         11    1    3    3    0    0  0.19646972444E+02 -0.32110959411E+02  0.19831039507E+02  0.42548647084E+02  0.51100000000E-03 0. -1.
        -11    1    3    3    0    0 -0.94354432225E-01  0.35745593690E+00 -0.17039352285E+01  0.17435805200E+01  0.51100000000E-03 0.  1.
         12    1    3    3    0    0 -0.86209988650E+00 -0.33175469845E+01 -0.68264805506E+00  0.34950454325E+01  0.00000000000E+00 0. -1.
</event>
<event>
 7    1  0.2714068E-010  0.4778726E+02  0.7816164E-02  0.1312668E+00
        -11   -1    0    0    0    0  0.00000000000E+00  0.00000000000E+00  0.45593999997E+02  0.45594000000E+02  0.51100000000E-03 0.  1.
         11   -1    0    0    0    0 -0.00000000000E+00 -0.00000000000E+00 -0.45593999997E+02  0.45594000000E+02  0.51100000000E-03 0. -1.
    9900012    2    1    2    0    0  0.79532182024E+01 -0.28701419618E+02 -0.31568954327E+02  0.47787262159E+02  0.19999959488E+02 0.  0.
        -12    1    1    2    0    0 -0.79532182024E+01  0.28701419618E+02  0.31568954327E+02  0.43400737841E+02  0.00000000000E+00 0.  1.
         11    1    3    3    0    0  0.58674696683E+01 -0.83469426509E+01 -0.10969945803E+02  0.14981267073E+02  0.51100000000E-03 0. -1.
        -11    1    3    3    0    0 -0.40522473555E+00 -0.19870995017E+02 -0.10670523470E+02  0.22558384726E+02  0.51100000000E-03 0.  1.
        -12    1    3    3    0    0  0.24909732697E+01 -0.48348194936E+00 -0.99284850539E+01  0.10247610360E+02  0.00000000000E+00 0.  1.
</event>
<event>
 7    1  0.2714068E-010  0.4778727E+02  0.7816164E-02  0.1312668E+00
        -11   -1    0    0    0    0  0.00000000000E+00  0.00000000000E+00  0.45593999997E+02  0.45594000000E+02  0.51100000000E-03 0. -1.
         11   -1    0    0    0    0 -0.00000000000E+00 -0.00000000000E+00 -0.45593999997E+02  0.45594000000E+02  0.51100000000E-03 0.  1.
    9900012    2    1    2    0    0 -0.16970996471E+02 -0.10912507385E+02  0.38425589411E+02  0.47787268897E+02  0.19999990211E+02 0.  0.
        -12    1    1    2    0    0  0.16970996471E+02  0.10912507385E+02 -0.38425589411E+02  0.43400731103E+02  0.00000000000E+00 0.  1.
         11    1    3    3    0    0 -0.10262195976E+02 -0.84776492695E+01  0.17454812636E+02  0.21951165979E+02  0.51100000000E-03 0. -1.
        -11    1    3    3    0    0 -0.19516393834E+01  0.54017549779E+01  0.10070670850E+02  0.11593371587E+02  0.51100000000E-03 0.  1.
        -12    1    3    3    0    0 -0.47571611109E+01 -0.78366130934E+01  0.10900105925E+02  0.14242731332E+02  0.00000000000E+00 0.  1.
</event>
<event>
 7    1  0.2714068E-010  0.4778727E+02  0.7816164E-02  0.1312668E+00
        -11   -1    0    0    0    0  0.00000000000E+00  0.00000000000E+00  0.45593999997E+02  0.45594000000E+02  0.51100000000E-03 0. -1.
         11   -1    0    0    0    0 -0.00000000000E+00 -0.00000000000E+00 -0.45593999997E+02  0.45594000000E+02  0.51100000000E-03 0.  1.
    9900012    2    1    2    0    0 -0.28478737662E+02 -0.29882795999E+02 -0.13401612029E+02  0.47787271890E+02  0.20000003853E+02 0.  0.
        -12    1    1    2    0    0  0.28478737662E+02  0.29882795999E+02  0.13401612029E+02  0.43400728110E+02  0.00000000000E+00 0.  1.
         11    1    3    3    0    0 -0.30850271987E+02 -0.27045940165E+02 -0.94235356687E+01  0.42095429512E+02  0.51100000000E-03 0. -1.
        -11    1    3    3    0    0  0.20782210983E+01 -0.23317301687E+01 -0.22004960400E+01  0.38207527526E+01  0.51100000000E-03 0.  1.
         12    1    3    3    0    0  0.29331322724E+00 -0.50512566604E+00 -0.17775803206E+01  0.18710896247E+01  0.00000000000E+00 0. -1.
</event>
<event>
 7    1  0.2714068E-010  0.4778727E+02  0.7816164E-02  0.1312668E+00
        -11   -1    0    0    0    0  0.00000000000E+00  0.00000000000E+00  0.45593999997E+02  0.45594000000E+02  0.51100000000E-03 0.  1.
         11   -1    0    0    0    0 -0.00000000000E+00 -0.00000000000E+00 -0.45593999997E+02  0.45594000000E+02  0.51100000000E-03 0. -1.
    9900012    2    1    2    0    0 -0.10124075346E+02  0.11724000939E+02 -0.40542248552E+02  0.47787274001E+02  0.20000013480E+02 0.  0.
        -12    1    1    2    0    0  0.10124075346E+02 -0.11724000939E+02  0.40542248552E+02  0.43400725999E+02  0.00000000000E+00 0.  1.
         11    1    3    3    0    0 -0.63291581725E+01  0.10967627270E+02 -0.37476492592E+02  0.39557990196E+02  0.51100000000E-03 0. -1.
        -11    1    3    3    0    0 -0.40965507397E+01 -0.21786646098E+01 -0.14275584297E+01  0.48545062340E+01  0.51100000000E-03 0.  1.
        -12    1    3    3    0    0  0.30163356653E+00  0.29350382788E+01 -0.16381975301E+01  0.33747775711E+01  0.00000000000E+00 0.  1.
</event>
<event>
 7    1  0.2714068E-010  0.4778727E+02  0.7816164E-02  0.1312668E+00
        -11   -1    0    0    0    0  0.00000000000E+00  0.00000000000E+00  0.45593999997E+02  0.45594000000E+02  0.51100000000E-03 0.  1.
         11   -1    0    0    0    0 -0.00000000000E+00 -0.00000000000E+00 -0.45593999997E+02  0.45594000000E+02  0.51100000000E-03 0. -1.
    9900012    2    1    2    0    0  0.52238365316E+01  0.22009170766E+02 -0.37039589468E+02  0.47787271275E+02  0.20000001050E+02 0.  0.
        -12    1    1    2    0    0 -0.52238365316E+01 -0.22009170766E+02  0.37039589468E+02  0.43400728725E+02  0.00000000000E+00 0.  1.
         11    1    3    3    0    0  0.31085767415E+01  0.14003005311E+02 -0.32739643365E+02  0.35743973688E+02  0.51100000000E-03 0. -1.
        -11    1    3    3    0    0  0.41379052295E+01  0.75696703443E+01 -0.48573811135E+01  0.99003192046E+01  0.51100000000E-03 0.  1.
         12    1    3    3    0    0 -0.20226454394E+01  0.43649511074E+00  0.55743501042E+00  0.21429783821E+01  0.00000000000E+00 0. -1.
</event>
<event>
 7    1  0.2714068E-010  0.4778727E+02  0.7816164E-02  0.1312668E+00
        -11   -1    0    0    0    0  0.00000000000E+00  0.00000000000E+00  0.45593999997E+02  0.45594000000E+02  0.51100000000E-03 0.  1.
         11   -1    0    0    0    0 -0.00000000000E+00 -0.00000000000E+00 -0.45593999997E+02  0.45594000000E+02  0.51100000000E-03 0. -1.
    9900012    2    1    2    0    0 -0.50395948345E+01 -0.32222885271E+02 -0.28634100839E+02  0.47787267493E+02  0.19999983806E+02 0.  0.
        -12    1    1    2    0    0  0.50395948345E+01  0.32222885271E+02  0.28634100839E+02  0.43400732507E+02  0.00000000000E+00 0.  1.
         11    1    3    3    0    0 -0.80061920188E+01 -0.22805035011E+02 -0.14006635797E+02  0.27934827350E+02  0.51100000000E-03 0. -1.
        -11    1    3    3    0    0  0.42358691379E+01 -0.23186803844E+01 -0.18324101264E+01  0.51649388391E+01  0.51100000000E-03 0.  1.
         12    1    3    3    0    0 -0.12692719536E+01 -0.70991698756E+01 -0.12795054916E+02  0.14687501303E+02  0.00000000000E+00 0. -1.
</event>
<event>
 7    1  0.2714068E-010  0.4778728E+02  0.7816164E-02  0.1312668E+00
        -11   -1    0    0    0    0  0.00000000000E+00  0.00000000000E+00  0.45593999997E+02  0.45594000000E+02  0.51100000000E-03 0.  1.
         11   -1    0    0    0    0 -0.00000000000E+00 -0.00000000000E+00 -0.45593999997E+02  0.45594000000E+02  0.51100000000E-03 0. -1.
    9900012    2    1    2    0    0  0.11330399249E+02  0.40720543884E+02 -0.98530191307E+01  0.47787278493E+02  0.20000033960E+02 0.  0.
        -12    1    1    2    0    0 -0.11330399249E+02 -0.40720543884E+02  0.98530191307E+01  0.43400721507E+02  0.00000000000E+00 0.  1.
         11    1    3    3    0    0  0.65941980123E+01  0.16219043315E+02  0.53264726115E+01  0.18300604477E+02  0.51100000000E-03 0. -1.
        -11    1    3    3    0    0  0.27327260287E+01  0.78934574263E+01 -0.68317029534E+01  0.10791043842E+02  0.51100000000E-03 0.  1.
         12    1    3    3    0    0  0.20034752079E+01  0.16608043143E+02 -0.83477887889E+01  0.18695630174E+02  0.00000000000E+00 0. -1.
</event>
<event>
 7    1  0.2714068E-010  0.4778727E+02  0.7816164E-02  0.1312668E+00
        -11   -1    0    0    0    0  0.00000000000E+00  0.00000000000E+00  0.45593999997E+02  0.45594000000E+02  0.51100000000E-03 0.  1.
         11   -1    0    0    0    0 -0.00000000000E+00 -0.00000000000E+00 -0.45593999997E+02  0.45594000000E+02  0.51100000000E-03 0. -1.
    9900012    2    1    2    0    0  0.14936413836E+02 -0.37108366750E+01 -0.40580243655E+02  0.47787274866E+02  0.20000017423E+02 0.  0.
        -12    1    1    2    0    0 -0.14936413836E+02  0.37108366750E+01  0.40580243655E+02  0.43400725134E+02  0.00000000000E+00 0.  1.
         11    1    3    3    0    0 -0.66045133255E+00 -0.82626487250E+01 -0.11799325731E+02  0.14419835224E+02  0.51100000000E-03 0. -1.
        -11    1    3    3    0    0  0.12770614494E+02  0.23115162468E+01 -0.19638317788E+02  0.23539227424E+02  0.51100000000E-03 0.  1.
         12    1    3    3    0    0  0.28262506738E+01  0.22402958032E+01 -0.91426001358E+01  0.98282122179E+01  0.00000000000E+00 0. -1.
</event>
<event>
 7    1  0.2714068E-010  0.4778727E+02  0.7816164E-02  0.1312668E+00
        -11   -1    0    0    0    0  0.00000000000E+00  0.00000000000E+00  0.45593999997E+02  0.45594000000E+02  0.51100000000E-03 0.  1.
         11   -1    0    0    0    0 -0.00000000000E+00 -0.00000000000E+00 -0.45593999997E+02  0.45594000000E+02  0.51100000000E-03 0. -1.
    9900012    2    1    2    0    0 -0.58580259490E+00 -0.16869487624E+02 -0.39983753669E+02  0.47787270342E+02  0.19999996798E+02 0.  0.
        -12    1    1    2    0    0  0.58580259490E+00  0.16869487624E+02  0.39983753669E+02  0.43400729658E+02  0.00000000000E+00 0.  1.
         11    1    3    3    0    0  0.11560802319E+00 -0.12059356443E+02 -0.17398125516E+02  0.21169228015E+02  0.51100000000E-03 0. -1.
        -11    1    3    3    0    0  0.31405946240E+00  0.10663635868E+01  0.14650334026E+01  0.18390453439E+01  0.51100000000E-03 0.  1.
        -12    1    3    3    0    0 -0.10154700805E+01 -0.58764947685E+01 -0.24050661555E+02  0.24778996983E+02  0.00000000000E+00 0.  1.
</event>
<event>
 7    1  0.2714068E-010  0.4778727E+02  0.7816164E-02  0.1312668E+00
        -11   -1    0    0    0    0  0.00000000000E+00  0.00000000000E+00  0.45593999997E+02  0.45594000000E+02  0.51100000000E-03 0. -1.
         11   -1    0    0    0    0 -0.00000000000E+00 -0.00000000000E+00 -0.45593999997E+02  0.45594000000E+02  0.51100000000E-03 0.  1.
    9900012    2    1    2    0    0  0.11796911038E+02 -0.41016021398E+02  0.78830395844E+01  0.47787269195E+02  0.19999991566E+02 0.  0.
        -12    1    1    2    0    0 -0.11796911038E+02  0.41016021398E+02 -0.78830395844E+01  0.43400730805E+02  0.00000000000E+00 0.  1.
         11    1    3    3    0    0  0.10329571679E+02 -0.13505604165E+02  0.69608338318E+01  0.18372659111E+02  0.51100000000E-03 0. -1.
        -11    1    3    3    0    0 -0.19878252058E+00 -0.13019254679E+02 -0.46119722320E+01  0.13813428069E+02  0.51100000000E-03 0.  1.
         12    1    3    3    0    0  0.16661218801E+01 -0.14491162554E+02  0.55341779846E+01  0.15601182014E+02  0.00000000000E+00 0. -1.
</event>
<event>
 7    1  0.2714068E-010  0.4778727E+02  0.7816164E-02  0.1312668E+00
        -11   -1    0    0    0    0  0.00000000000E+00  0.00000000000E+00  0.45593999997E+02  0.45594000000E+02  0.51100000000E-03 0.  1.
         11   -1    0    0    0    0 -0.00000000000E+00 -0.00000000000E+00 -0.45593999997E+02  0.45594000000E+02  0.51100000000E-03 0. -1.
    9900012    2    1    2    0    0  0.18701761607E+02 -0.10849114616E+02 -0.37631959034E+02  0.47787268257E+02  0.19999987289E+02 0.  0.
        -12    1    1    2    0    0 -0.18701761607E+02  0.10849114616E+02  0.37631959034E+02  0.43400731743E+02  0.00000000000E+00 0.  1.
         11    1    3    3    0    0  0.88759645686E+00 -0.21270427780E+01 -0.45414064153E+01  0.50927900938E+01  0.51100000000E-03 0. -1.
        -11    1    3    3    0    0  0.10501610585E+02 -0.87670481780E+01 -0.32613263755E+02  0.35366225861E+02  0.51100000000E-03 0.  1.
        -12    1    3    3    0    0  0.73125545649E+01  0.44976340471E-01 -0.47728886327E+00  0.73282523015E+01  0.00000000000E+00 0.  1.
</event>
<event>
 7    1  0.2714068E-010  0.4778727E+02  0.7816164E-02  0.1312668E+00
        -11   -1    0    0    0    0  0.00000000000E+00  0.00000000000E+00  0.45593999997E+02  0.45594000000E+02  0.51100000000E-03 0.  1.
         11   -1    0    0    0    0 -0.00000000000E+00 -0.00000000000E+00 -0.45593999997E+02  0.45594000000E+02  0.51100000000E-03 0. -1.
    9900012    2    1    2    0    0 -0.12789166135E+02 -0.22451567701E+02 -0.34871009178E+02  0.47787274848E+02  0.20000017340E+02 0.  0.
        -12    1    1    2    0    0  0.12789166135E+02  0.22451567701E+02  0.34871009178E+02  0.43400725152E+02  0.00000000000E+00 0.  1.
         11    1    3    3    0    0  0.34645234617E+01 -0.62164324939E+01 -0.12850007452E+02  0.14689099617E+02  0.51100000000E-03 0. -1.
        -11    1    3    3    0    0 -0.47290913331E+01 -0.99610698123E+00 -0.81961333014E+01  0.95148901891E+01  0.51100000000E-03 0.  1.
         12    1    3    3    0    0 -0.11524598264E+02 -0.15239028226E+02 -0.13824868424E+02  0.23583285042E+02  0.00000000000E+00 0. -1.
</event>
<event>
 7    1  0.2714068E-010  0.4778726E+02  0.7816164E-02  0.1312668E+00
        -11   -1    0    0    0    0  0.00000000000E+00  0.00000000000E+00  0.45593999997E+02  0.45594000000E+02  0.51100000000E-03 0.  1.
         11   -1    0    0    0    0 -0.00000000000E+00 -0.00000000000E+00 -0.45593999997E+02  0.45594000000E+02  0.51100000000E-03 0. -1.
    9900012    2    1    2    0    0  0.31178448665E+02  0.73376026343E+01 -0.29286307033E+02  0.47787264370E+02  0.19999969570E+02 0.  0.
        -12    1    1    2    0    0 -0.31178448665E+02 -0.73376026343E+01  0.29286307033E+02  0.43400735630E+02  0.00000000000E+00 0.  1.
         11    1    3    3    0    0  0.33220441020E+01 -0.41564644430E+01 -0.41547014095E+01  0.67508308929E+01  0.51100000000E-03 0. -1.
        -11    1    3    3    0    0  0.11219653637E+02  0.99281855348E+01 -0.16288053350E+02  0.22130299997E+02  0.51100000000E-03 0.  1.
         12    1    3    3    0    0  0.16636750926E+02  0.15658815425E+01 -0.88435522730E+01  0.18906133481E+02  0.00000000000E+00 0. -1.
</event>
<event>
 7    1  0.2714068E-010  0.4778727E+02  0.7816164E-02  0.1312668E+00
        -11   -1    0    0    0    0  0.00000000000E+00  0.00000000000E+00  0.45593999997E+02  0.45594000000E+02  0.51100000000E-03 0.  1.
         11   -1    0    0    0    0 -0.00000000000E+00 -0.00000000000E+00 -0.45593999997E+02  0.45594000000E+02  0.51100000000E-03 0. -1.
    9900012    2    1    2    0    0  0.63695103678E-01  0.18094765635E+02 -0.39448682851E+02  0.47787272136E+02  0.20000004976E+02 0.  0.
        -12    1    1    2    0    0 -0.63695103678E-01 -0.18094765635E+02  0.39448682851E+02  0.43400727864E+02  0.00000000000E+00 0.  1.
         11    1    3    3    0    0  0.20539781113E+00  0.19952082394E+01 -0.16744155694E+02  0.16863860600E+02  0.51100000000E-03 0. -1.
        -11    1    3    3    0    0 -0.30615307046E+01  0.31247267741E+01 -0.14843160434E+02  0.15474375581E+02  0.51100000000E-03 0.  1.
         12    1    3    3    0    0  0.29198279972E+01  0.12974830621E+02 -0.78613667232E+01  0.15449035955E+02  0.00000000000E+00 0. -1.
</event>
<event>
 7    1  0.2714068E-010  0.4778728E+02  0.7816164E-02  0.1312668E+00
        -11   -1    0    0    0    0  0.00000000000E+00  0.00000000000E+00  0.45593999997E+02  0.45594000000E+02  0.51100000000E-03 0.  1.
         11   -1    0    0    0    0 -0.00000000000E+00 -0.00000000000E+00 -0.45593999997E+02  0.45594000000E+02  0.51100000000E-03 0. -1.
    9900012    2    1    2    0    0 -0.40337481434E+02 -0.71692151545E+01 -0.14321750707E+02  0.47787278835E+02  0.20000035518E+02 0.  0.
        -12    1    1    2    0    0  0.40337481434E+02  0.71692151545E+01  0.14321750707E+02  0.43400721165E+02  0.00000000000E+00 0.  1.
         11    1    3    3    0    0 -0.12883247012E+02 -0.72383278601E+01 -0.12608742624E+02  0.19425545928E+02  0.51100000000E-03 0. -1.
        -11    1    3    3    0    0 -0.18336261395E+02 -0.78572490006E+00  0.20369014108E+01  0.18465774102E+02  0.51100000000E-03 0.  1.
         12    1    3    3    0    0 -0.91179730272E+01  0.85483760575E+00 -0.37499094938E+01  0.98959588049E+01  0.00000000000E+00 0. -1.
</event>
<event>
 7    1  0.2714068E-010  0.4778727E+02  0.7816164E-02  0.1312668E+00
        -11   -1    0    0    0    0  0.00000000000E+00  0.00000000000E+00  0.45593999997E+02  0.45594000000E+02  0.51100000000E-03 0. -1.
         11   -1    0    0    0    0 -0.00000000000E+00 -0.00000000000E+00 -0.45593999997E+02  0.45594000000E+02  0.51100000000E-03 0.  1.
    9900012    2    1    2    0    0  0.37642204202E+02  0.72653243494E+01  0.20344601745E+02  0.47787270798E+02  0.19999998878E+02 0.  0.
        -12    1    1    2    0    0 -0.37642204202E+02 -0.72653243494E+01 -0.20344601745E+02  0.43400729202E+02  0.00000000000E+00 0.  1.
         11    1    3    3    0    0  0.15139364360E+02 -0.42928939244E+01  0.61714160136E+01  0.16903125964E+02  0.51100000000E-03 0.  1.
        -11    1    3    3    0    0  0.42476157839E+01  0.73745956618E+01  0.27352185346E+01  0.89391454690E+01  0.51100000000E-03 0. -1.
         12    1    3    3    0    0  0.18255224058E+02  0.41836226120E+01  0.11437967197E+02  0.21944999366E+02  0.00000000000E+00 0. -1.
</event>
<event>
 7    1  0.2714068E-010  0.4778727E+02  0.7816164E-02  0.1312668E+00
        -11   -1    0    0    0    0  0.00000000000E+00  0.00000000000E+00  0.45593999997E+02  0.45594000000E+02  0.51100000000E-03 0.  1.
         11   -1    0    0    0    0 -0.00000000000E+00 -0.00000000000E+00 -0.45593999997E+02  0.45594000000E+02  0.51100000000E-03 0. -1.
    9900012    2    1    2    0    0 -0.15035745241E+02  0.29661164070E+02 -0.27888436634E+02  0.47787272047E+02  0.20000004573E+02 0.  0.
        -12    1    1    2    0    0  0.15035745241E+02 -0.29661164070E+02  0.27888436634E+02  0.43400727953E+02  0.00000000000E+00 0.  1.
         11    1    3    3    0    0 -0.92904295956E+01  0.25498929333E+02 -0.26897154296E+02  0.38209480351E+02  0.51100000000E-03 0. -1.
        -11    1    3    3    0    0 -0.15227567426E+01  0.42257648094E+01  0.14249736771E+01  0.47123695274E+01  0.51100000000E-03 0.  1.
         12    1    3    3    0    0 -0.42225589027E+01 -0.63530072103E-01 -0.24162560147E+01  0.48654221693E+01  0.00000000000E+00 0. -1.
</event>
<event>
 7    1  0.2714068E-010  0.4778726E+02  0.7816164E-02  0.1312668E+00
        -11   -1    0    0    0    0  0.00000000000E+00  0.00000000000E+00  0.45593999997E+02  0.45594000000E+02  0.51100000000E-03 0. -1.
         11   -1    0    0    0    0 -0.00000000000E+00 -0.00000000000E+00 -0.45593999997E+02  0.45594000000E+02  0.51100000000E-03 0.  1.
    9900012    2    1    2    0    0  0.38887658093E+02  0.18808976383E+02 -0.41947998614E+01  0.47787263942E+02  0.19999967616E+02 0.  0.
        -12    1    1    2    0    0 -0.38887658093E+02 -0.18808976383E+02  0.41947998614E+01  0.43400736058E+02  0.00000000000E+00 0.  1.
         11    1    3    3    0    0  0.58007408055E+01  0.14677273189E+01 -0.37560970806E+01  0.70647776267E+01  0.51100000000E-03 0. -1.
        -11    1    3    3    0    0 -0.18600380018E+01  0.54180421127E+00  0.14719832402E+00  0.19429258295E+01  0.51100000000E-03 0.  1.
         12    1    3    3    0    0  0.34946955289E+02  0.16799444853E+02 -0.58590110480E+00  0.38779560485E+02  0.00000000000E+00 0. -1.
</event>
<event>
 7    1  0.2714068E-010  0.4778727E+02  0.7816164E-02  0.1312668E+00
        -11   -1    0    0    0    0  0.00000000000E+00  0.00000000000E+00  0.45593999997E+02  0.45594000000E+02  0.51100000000E-03 0.  1.
         11   -1    0    0    0    0 -0.00000000000E+00 -0.00000000000E+00 -0.45593999997E+02  0.45594000000E+02  0.51100000000E-03 0. -1.
    9900012    2    1    2    0    0 -0.40864670603E+02  0.14546822361E+02  0.14463188294E+01  0.47787272098E+02  0.20000004804E+02 0.  0.
        -12    1    1    2    0    0  0.40864670603E+02 -0.14546822361E+02 -0.14463188294E+01  0.43400727902E+02  0.00000000000E+00 0.  1.
         11    1    3    3    0    0 -0.79732562864E+01  0.14534268297E+01 -0.15145094901E+01  0.82449381208E+01  0.51100000000E-03 0. -1.
        -11    1    3    3    0    0 -0.12224798049E+02  0.60845568953E+01 -0.72368838533E+01  0.15454449461E+02  0.51100000000E-03 0.  1.
        -12    1    3    3    0    0 -0.20666616267E+02  0.70088386355E+01  0.10197712173E+02  0.24087884517E+02  0.00000000000E+00 0.  1.
</event>
<event>
 7    1  0.2714068E-010  0.4778727E+02  0.7816164E-02  0.1312668E+00
        -11   -1    0    0    0    0  0.00000000000E+00  0.00000000000E+00  0.45593999997E+02  0.45594000000E+02  0.51100000000E-03 0. -1.
         11   -1    0    0    0    0 -0.00000000000E+00 -0.00000000000E+00 -0.45593999997E+02  0.45594000000E+02  0.51100000000E-03 0.  1.
    9900012    2    1    2    0    0  0.62570442174E+01  0.14418206067E+02  0.40454766480E+02  0.47787269597E+02  0.19999993401E+02 0.  0.
        -12    1    1    2    0    0 -0.62570442174E+01 -0.14418206067E+02 -0.40454766480E+02  0.43400730403E+02  0.00000000000E+00 0.  1.
         11    1    3    3    0    0  0.44534871889E+01  0.44361513025E+01  0.56430175220E+00  0.63112140867E+01  0.51100000000E-03 0. -1.
        -11    1    3    3    0    0  0.31624176251E+01  0.90910868245E+01  0.35886419306E+02  0.37154862881E+02  0.51100000000E-03 0.  1.
        -12    1    3    3    0    0 -0.13588605966E+01  0.89096794042E+00  0.40040454226E+01  0.43211926291E+01  0.00000000000E+00 0.  1.
</event>
<event>
 7    1  0.2714068E-010  0.4778727E+02  0.7816164E-02  0.1312668E+00
        -11   -1    0    0    0    0  0.00000000000E+00  0.00000000000E+00  0.45593999997E+02  0.45594000000E+02  0.51100000000E-03 0. -1.
         11   -1    0    0    0    0 -0.00000000000E+00 -0.00000000000E+00 -0.45593999997E+02  0.45594000000E+02  0.51100000000E-03 0.  1.
    9900012    2    1    2    0    0  0.42519869066E+02 -0.83499241818E+01 -0.24418560588E+01  0.47787272353E+02  0.20000005967E+02 0.  0.
        -12    1    1    2    0    0 -0.42519869066E+02  0.83499241818E+01  0.24418560588E+01  0.43400727647E+02  0.00000000000E+00 0.  1.
         11    1    3    3    0    0  0.12027372318E+01  0.27904578974E+01  0.25704241278E+01  0.39799890180E+01  0.51100000000E-03 0. -1.
        -11    1    3    3    0    0  0.14760877401E+02 -0.77993831679E+01 -0.30387945178E+01  0.16969035088E+02  0.51100000000E-03 0.  1.
         12    1    3    3    0    0  0.26556254433E+02 -0.33409989112E+01 -0.19734856687E+01  0.26838248247E+02  0.00000000000E+00 0. -1.
</event>
<event>
 7    1  0.2714068E-010  0.4778727E+02  0.7816164E-02  0.1312668E+00
        -11   -1    0    0    0    0  0.00000000000E+00  0.00000000000E+00  0.45593999997E+02  0.45594000000E+02  0.51100000000E-03 0.  1.
         11   -1    0    0    0    0 -0.00000000000E+00 -0.00000000000E+00 -0.45593999997E+02  0.45594000000E+02  0.51100000000E-03 0. -1.
    9900012    2    1    2    0    0  0.68752044622E+01 -0.19616609917E+01 -0.42807791463E+02  0.47787267746E+02  0.19999984963E+02 0.  0.
        -12    1    1    2    0    0 -0.68752044622E+01  0.19616609917E+01  0.42807791463E+02  0.43400732254E+02  0.00000000000E+00 0.  1.
         11    1    3    3    0    0  0.67208470612E+01  0.20224412536E+01 -0.28042614774E+02  0.28907582006E+02  0.51100000000E-03 0. -1.
        -11    1    3    3    0    0  0.32478901049E+01 -0.68078614239E+01 -0.87910072370E+01  0.11583504470E+02  0.51100000000E-03 0.  1.
         12    1    3    3    0    0 -0.30935327039E+01  0.28237591787E+01 -0.59741694518E+01  0.72961812702E+01  0.00000000000E+00 0. -1.
</event>
<event>
 7    1  0.2714068E-010  0.4778727E+02  0.7816164E-02  0.1312668E+00
        -11   -1    0    0    0    0  0.00000000000E+00  0.00000000000E+00  0.45593999997E+02  0.45594000000E+02  0.51100000000E-03 0. -1.
         11   -1    0    0    0    0 -0.00000000000E+00 -0.00000000000E+00 -0.45593999997E+02  0.45594000000E+02  0.51100000000E-03 0.  1.
    9900012    2    1    2    0    0 -0.16906547094E+02 -0.20801375973E+02  0.34133488880E+02  0.47787266825E+02  0.19999980761E+02 0.  0.
        -12    1    1    2    0    0  0.16906547094E+02  0.20801375973E+02 -0.34133488880E+02  0.43400733175E+02  0.00000000000E+00 0.  1.
         11    1    3    3    0    0 -0.87494824756E+01 -0.98003189495E+01  0.11783294461E+02  0.17647824900E+02  0.51100000000E-03 0. -1.
        -11    1    3    3    0    0 -0.57213265424E+01 -0.12551850766E+02  0.23319185836E+02  0.27093670171E+02  0.51100000000E-03 0.  1.
        -12    1    3    3    0    0 -0.24357380760E+01  0.15507937425E+01 -0.96899141642E+00  0.30457717531E+01  0.00000000000E+00 0.  1.
</event>
<event>
 7    1  0.2714068E-010  0.4778728E+02  0.7816164E-02  0.1312668E+00
        -11   -1    0    0    0    0  0.00000000000E+00  0.00000000000E+00  0.45593999997E+02  0.45594000000E+02  0.51100000000E-03 0.  1.
         11   -1    0    0    0    0 -0.00000000000E+00 -0.00000000000E+00 -0.45593999997E+02  0.45594000000E+02  0.51100000000E-03 0. -1.
    9900012    2    1    2    0    0  0.43822596728E+01 -0.41625200661E+02 -0.11478736450E+02  0.47787275117E+02  0.20000018569E+02 0.  0.
        -12    1    1    2    0    0 -0.43822596728E+01  0.41625200661E+02  0.11478736450E+02  0.43400724883E+02  0.00000000000E+00 0.  1.
         11    1    3    3    0    0  0.47164734405E+00 -0.38125870874E+01 -0.54617153820E+01  0.66774700816E+01  0.51100000000E-03 0. -1.
        -11    1    3    3    0    0  0.84674809108E+01 -0.24977787266E+02 -0.39947111316E+00  0.26377029157E+02  0.51100000000E-03 0.  1.
        -12    1    3    3    0    0 -0.45568685821E+01 -0.12834826307E+02 -0.56175499551E+01  0.14732775879E+02  0.00000000000E+00 0.  1.
</event>
<event>
 7    1  0.2714068E-010  0.4778727E+02  0.7816164E-02  0.1312668E+00
        -11   -1    0    0    0    0  0.00000000000E+00  0.00000000000E+00  0.45593999997E+02  0.45594000000E+02  0.51100000000E-03 0.  1.
         11   -1    0    0    0    0 -0.00000000000E+00 -0.00000000000E+00 -0.45593999997E+02  0.45594000000E+02  0.51100000000E-03 0. -1.
    9900012    2    1    2    0    0 -0.36472378875E+02 -0.72918922686E+01 -0.22365536888E+02  0.47787270122E+02  0.19999995796E+02 0.  0.
        -12    1    1    2    0    0  0.36472378875E+02  0.72918922686E+01  0.22365536888E+02  0.43400729878E+02  0.00000000000E+00 0.  1.
         11    1    3    3    0    0 -0.15026249577E+02 -0.95118331793E+01 -0.10624823817E+02  0.20715936575E+02  0.51100000000E-03 0. -1.
        -11    1    3    3    0    0 -0.94841291988E+01  0.19676096150E+01  0.82423401904E+00  0.97210882228E+01  0.51100000000E-03 0.  1.
         12    1    3    3    0    0 -0.11962000099E+02  0.25233129571E+00 -0.12564947090E+02  0.17350245325E+02  0.00000000000E+00 0. -1.
</event>
<event>
 7    1  0.2714068E-010  0.4778727E+02  0.7816164E-02  0.1312668E+00
        -11   -1    0    0    0    0  0.00000000000E+00  0.00000000000E+00  0.45593999997E+02  0.45594000000E+02  0.51100000000E-03 0.  1.
         11   -1    0    0    0    0 -0.00000000000E+00 -0.00000000000E+00 -0.45593999997E+02  0.45594000000E+02  0.51100000000E-03 0. -1.
    9900012    2    1    2    0    0  0.93707290847E+01  0.42314593435E+02  0.22995222781E+01  0.47787272082E+02  0.20000004730E+02 0.  0.
        -12    1    1    2    0    0 -0.93707290847E+01 -0.42314593435E+02 -0.22995222781E+01  0.43400727918E+02  0.00000000000E+00 0.  1.
         11    1    3    3    0    0  0.12989977533E+02  0.19056337779E+02 -0.12711106676E+01  0.23097602656E+02  0.51100000000E-03 0. -1.
        -11    1    3    3    0    0 -0.73432577749E+00  0.19177374542E+02  0.14043882230E+01  0.19242745002E+02  0.51100000000E-03 0.  1.
         12    1    3    3    0    0 -0.28849226708E+01  0.40808811137E+01  0.21662447227E+01  0.54469244239E+01  0.00000000000E+00 0. -1.
</event>
<event>
 7    1  0.2714068E-010  0.4778727E+02  0.7816164E-02  0.1312668E+00
        -11   -1    0    0    0    0  0.00000000000E+00  0.00000000000E+00  0.45593999997E+02  0.45594000000E+02  0.51100000000E-03 0.  1.
         11   -1    0    0    0    0 -0.00000000000E+00 -0.00000000000E+00 -0.45593999997E+02  0.45594000000E+02  0.51100000000E-03 0. -1.
    9900012    2    1    2    0    0  0.15620138448E+02  0.22404596903E+02 -0.33729349307E+02  0.47787266225E+02  0.19999978027E+02 0.  0.
        -12    1    1    2    0    0 -0.15620138448E+02 -0.22404596903E+02  0.33729349307E+02  0.43400733775E+02  0.00000000000E+00 0.  1.
         11    1    3    3    0    0  0.10596003482E+02  0.18258088622E+02 -0.16772439978E+02  0.26961970125E+02  0.51100000000E-03 0. -1.
        -11    1    3    3    0    0  0.69290002061E+00  0.37388040492E+01 -0.53862918505E+00  0.38404280773E+01  0.51100000000E-03 0.  1.
         12    1    3    3    0    0  0.43312349447E+01  0.40770423214E+00 -0.16418280144E+02  0.16984868023E+02  0.00000000000E+00 0. -1.
</event>
<event>
 7    1  0.2714068E-010  0.4778727E+02  0.7816164E-02  0.1312668E+00
        -11   -1    0    0    0    0  0.00000000000E+00  0.00000000000E+00  0.45593999997E+02  0.45594000000E+02  0.51100000000E-03 0.  1.
         11   -1    0    0    0    0 -0.00000000000E+00 -0.00000000000E+00 -0.45593999997E+02  0.45594000000E+02  0.51100000000E-03 0. -1.
    9900012    2    1    2    0    0  0.27097751407E+02 -0.25377636493E+02 -0.22479118268E+02  0.47787270474E+02  0.19999997398E+02 0.  0.
        -12    1    1    2    0    0 -0.27097751407E+02  0.25377636493E+02  0.22479118268E+02  0.43400729526E+02  0.00000000000E+00 0.  1.
         11    1    3    3    0    0  0.16356344464E+02 -0.50423800523E+01 -0.60216454661E+01  0.18144305310E+02  0.51100000000E-03 0. -1.
        -11    1    3    3    0    0  0.11422566797E+02 -0.19722344781E+02 -0.13372521636E+02  0.26424803709E+02  0.51100000000E-03 0.  1.
        -12    1    3    3    0    0 -0.68115985366E+00 -0.61291165965E+00 -0.30849511667E+01  0.32181614548E+01  0.00000000000E+00 0.  1.
</event>
<event>
 7    1  0.2714068E-010  0.4778727E+02  0.7816164E-02  0.1312668E+00
        -11   -1    0    0    0    0  0.00000000000E+00  0.00000000000E+00  0.45593999997E+02  0.45594000000E+02  0.51100000000E-03 0.  1.
         11   -1    0    0    0    0 -0.00000000000E+00 -0.00000000000E+00 -0.45593999997E+02  0.45594000000E+02  0.51100000000E-03 0. -1.
    9900012    2    1    2    0    0  0.29897924595E+02  0.21036984066E+02 -0.23391937893E+02  0.47787270143E+02  0.19999995892E+02 0.  0.
        -12    1    1    2    0    0 -0.29897924595E+02 -0.21036984066E+02  0.23391937893E+02  0.43400729857E+02  0.00000000000E+00 0.  1.
         11    1    3    3    0    0  0.11218279207E+02  0.89053482264E+01  0.88544106494E+00  0.14350575652E+02  0.51100000000E-03 0. -1.
        -11    1    3    3    0    0  0.16661584797E+02  0.12475340247E+02 -0.23017207060E+02  0.31032794643E+02  0.51100000000E-03 0.  1.
         12    1    3    3    0    0  0.20180605920E+01 -0.34370440789E+00 -0.12601718981E+01  0.24038998493E+01  0.00000000000E+00 0. -1.
</event>
<event>
 7    1  0.2714068E-010  0.4778727E+02  0.7816164E-02  0.1312668E+00
        -11   -1    0    0    0    0  0.00000000000E+00  0.00000000000E+00  0.45593999997E+02  0.45594000000E+02  0.51100000000E-03 0.  1.
         11   -1    0    0    0    0 -0.00000000000E+00 -0.00000000000E+00 -0.45593999997E+02  0.45594000000E+02  0.51100000000E-03 0. -1.
    9900012    2    1    2    0    0 -0.20581451023E+02  0.32522119536E+02  0.20058390477E+02  0.47787269432E+02  0.19999992647E+02 0.  0.
        -12    1    1    2    0    0  0.20581451023E+02 -0.32522119536E+02 -0.20058390477E+02  0.43400730568E+02  0.00000000000E+00 0.  1.
         11    1    3    3    0    0 -0.32255304570E+01  0.31131301266E+01  0.44797495333E+00  0.45051423656E+01  0.51100000000E-03 0. -1.
        -11    1    3    3    0    0 -0.19008151489E+02  0.16692273323E+02  0.16103162376E+02  0.29987558261E+02  0.51100000000E-03 0.  1.
        -12    1    3    3    0    0  0.16522309235E+01  0.12716716087E+02  0.35072531472E+01  0.13294568805E+02  0.00000000000E+00 0.  1.
</event>
<event>
 7    1  0.2714068E-010  0.4778727E+02  0.7816164E-02  0.1312668E+00
        -11   -1    0    0    0    0  0.00000000000E+00  0.00000000000E+00  0.45593999997E+02  0.45594000000E+02  0.51100000000E-03 0. -1.
         11   -1    0    0    0    0 -0.00000000000E+00 -0.00000000000E+00 -0.45593999997E+02  0.45594000000E+02  0.51100000000E-03 0.  1.
    9900012    2    1    2    0    0 -0.39669565802E+02  0.17454933775E+02 -0.22965828117E+01  0.47787268939E+02  0.19999990402E+02 0.  0.
        -12    1    1    2    0    0  0.39669565802E+02 -0.17454933775E+02  0.22965828117E+01  0.43400731061E+02  0.00000000000E+00 0.  1.
         11    1    3    3    0    0 -0.21452413821E+02  0.89447163981E+01  0.19296347682E+01  0.23322467725E+02  0.51100000000E-03 0. -1.
        -11    1    3    3    0    0 -0.26506282236E+01  0.73329123785E+01 -0.41942974393E+01  0.88537881837E+01  0.51100000000E-03 0.  1.
        -12    1    3    3    0    0 -0.15566523757E+02  0.11773049980E+01 -0.31920140676E-01  0.15611013031E+02  0.00000000000E+00 0.  1.
</event>
<event>
 7    1  0.2714068E-010  0.4778727E+02  0.7816164E-02  0.1312668E+00
        -11   -1    0    0    0    0  0.00000000000E+00  0.00000000000E+00  0.45593999997E+02  0.45594000000E+02  0.51100000000E-03 0.  1.
         11   -1    0    0    0    0 -0.00000000000E+00 -0.00000000000E+00 -0.45593999997E+02  0.45594000000E+02  0.51100000000E-03 0. -1.
    9900012    2    1    2    0    0 -0.20316787883E+02 -0.37618455024E+02 -0.74634547107E+01  0.47787272074E+02  0.20000004694E+02 0.  0.
        -12    1    1    2    0    0  0.20316787883E+02  0.37618455024E+02  0.74634547107E+01  0.43400727926E+02  0.00000000000E+00 0.  1.
         11    1    3    3    0    0 -0.26340163042E+01 -0.16415236474E+01 -0.62766683986E+01  0.70020859908E+01  0.51100000000E-03 0. -1.
        -11    1    3    3    0    0 -0.48724550254E+01 -0.46697295619E+01  0.12780379895E+01  0.68688116527E+01  0.51100000000E-03 0.  1.
         12    1    3    3    0    0 -0.12810316554E+02 -0.31307201815E+02 -0.24648243015E+01  0.33916374430E+02  0.00000000000E+00 0. -1.
</event>
<event>
 7    1  0.2714068E-010  0.4778726E+02  0.7816164E-02  0.1312668E+00
        -11   -1    0    0    0    0  0.00000000000E+00  0.00000000000E+00  0.45593999997E+02  0.45594000000E+02  0.51100000000E-03 0. -1.
         11   -1    0    0    0    0 -0.00000000000E+00 -0.00000000000E+00 -0.45593999997E+02  0.45594000000E+02  0.51100000000E-03 0.  1.
    9900012    2    1    2    0    0 -0.24344179566E+02  0.27381319184E+02  0.23264739018E+02  0.47787264977E+02  0.19999972334E+02 0.  0.
        -12    1    1    2    0    0  0.24344179566E+02 -0.27381319184E+02 -0.23264739018E+02  0.43400735023E+02  0.00000000000E+00 0.  1.
         11    1    3    3    0    0 -0.87630491360E+01  0.95214757883E+01  0.48198320623E+01  0.13808704237E+02  0.51100000000E-03 0. -1.
        -11    1    3    3    0    0 -0.46576623536E+01 -0.89037943633E+00 -0.99393323613E+00  0.48450487799E+01  0.51100000000E-03 0.  1.
        -12    1    3    3    0    0 -0.10923468076E+02  0.18750222832E+02  0.19438840192E+02  0.29133511959E+02  0.00000000000E+00 0.  1.
</event>
<event>
 7    1  0.2714068E-010  0.4778728E+02  0.7816164E-02  0.1312668E+00
        -11   -1    0    0    0    0  0.00000000000E+00  0.00000000000E+00  0.45593999997E+02  0.45594000000E+02  0.51100000000E-03 0.  1.
         11   -1    0    0    0    0 -0.00000000000E+00 -0.00000000000E+00 -0.45593999997E+02  0.45594000000E+02  0.51100000000E-03 0. -1.
    9900012    2    1    2    0    0 -0.56445705792E+01  0.36637653460E+02 -0.22570867898E+02  0.47787275286E+02  0.20000019337E+02 0.  0.
        -12    1    1    2    0    0  0.56445705792E+01 -0.36637653460E+02  0.22570867898E+02  0.43400724714E+02  0.00000000000E+00 0.  1.
         11    1    3    3    0    0 -0.14964173848E+01  0.27871461778E+02 -0.21589966876E+02  0.35287169292E+02  0.51100000000E-03 0. -1.
        -11    1    3    3    0    0 -0.58807100887E+01  0.33439453739E+01 -0.69578565982E+00  0.68006499510E+01  0.51100000000E-03 0.  1.
        -12    1    3    3    0    0  0.17325568943E+01  0.54222463080E+01 -0.28511536168E+00  0.56994560430E+01  0.00000000000E+00 0.  1.
</event>
<event>
 7    1  0.2714068E-010  0.4778727E+02  0.7816164E-02  0.1312668E+00
        -11   -1    0    0    0    0  0.00000000000E+00  0.00000000000E+00  0.45593999997E+02  0.45594000000E+02  0.51100000000E-03 0.  1.
         11   -1    0    0    0    0 -0.00000000000E+00 -0.00000000000E+00 -0.45593999997E+02  0.45594000000E+02  0.51100000000E-03 0. -1.
    9900012    2    1    2    0    0  0.74629375026E+01  0.38455881447E+02 -0.18683500536E+02  0.47787269058E+02  0.19999990943E+02 0.  0.
        -12    1    1    2    0    0 -0.74629375026E+01 -0.38455881447E+02  0.18683500536E+02  0.43400730942E+02  0.00000000000E+00 0.  1.
         11    1    3    3    0    0  0.50544427844E+01  0.29573519952E+02 -0.87648300930E+01  0.31256402881E+02  0.51100000000E-03 0. -1.
        -11    1    3    3    0    0 -0.14639338356E+00  0.36500188136E+01 -0.10063803333E+02  0.10706269479E+02  0.51100000000E-03 0.  1.
        -12    1    3    3    0    0  0.25548881018E+01  0.52323426809E+01  0.14513288998E+00  0.58245966984E+01  0.00000000000E+00 0.  1.
</event>
<event>
 7    1  0.2714068E-010  0.4778727E+02  0.7816164E-02  0.1312668E+00
        -11   -1    0    0    0    0  0.00000000000E+00  0.00000000000E+00  0.45593999997E+02  0.45594000000E+02  0.51100000000E-03 0.  1.
         11   -1    0    0    0    0 -0.00000000000E+00 -0.00000000000E+00 -0.45593999997E+02  0.45594000000E+02  0.51100000000E-03 0. -1.
    9900012    2    1    2    0    0  0.40770561519E+02  0.81329893106E+01 -0.12459494939E+02  0.47787271714E+02  0.20000003051E+02 0.  0.
        -12    1    1    2    0    0 -0.40770561519E+02 -0.81329893106E+01  0.12459494939E+02  0.43400728286E+02  0.00000000000E+00 0.  1.
         11    1    3    3    0    0  0.21942494527E+01 -0.12115378704E+01 -0.14864482985E+01  0.29141179587E+01  0.51100000000E-03 0. -1.
        -11    1    3    3    0    0  0.17693552762E+02  0.28203233304E+01 -0.14064339304E+02  0.22777657328E+02  0.51100000000E-03 0.  1.
        -12    1    3    3    0    0  0.20882759304E+02  0.65242038506E+01  0.30912926637E+01  0.22095496427E+02  0.00000000000E+00 0.  1.
</event>
<event>
 7    1  0.2714068E-010  0.4778727E+02  0.7816164E-02  0.1312668E+00
        -11   -1    0    0    0    0  0.00000000000E+00  0.00000000000E+00  0.45593999997E+02  0.45594000000E+02  0.51100000000E-03 0.  1.
         11   -1    0    0    0    0 -0.00000000000E+00 -0.00000000000E+00 -0.45593999997E+02  0.45594000000E+02  0.51100000000E-03 0. -1.
    9900012    2    1    2    0    0  0.97013537378E+01 -0.16406475910E+02 -0.38991468189E+02  0.47787270655E+02  0.19999998226E+02 0.  0.
        -12    1    1    2    0    0 -0.97013537378E+01  0.16406475910E+02  0.38991468189E+02  0.43400729345E+02  0.00000000000E+00 0.  1.
         11    1    3    3    0    0  0.10977237651E+02 -0.13043805818E+02 -0.25840457173E+02  0.30957549060E+02  0.51100000000E-03 0. -1.
        -11    1    3    3    0    0 -0.16536171679E+01  0.30764144991E+01 -0.22229584173E+01  0.41400869912E+01  0.51100000000E-03 0.  1.
        -12    1    3    3    0    0  0.37773325502E+00 -0.64390845911E+01 -0.10928052598E+02  0.12689634604E+02  0.00000000000E+00 0.  1.
</event>
<event>
 7    1  0.2714068E-010  0.4778727E+02  0.7816164E-02  0.1312668E+00
        -11   -1    0    0    0    0  0.00000000000E+00  0.00000000000E+00  0.45593999997E+02  0.45594000000E+02  0.51100000000E-03 0.  1.
         11   -1    0    0    0    0 -0.00000000000E+00 -0.00000000000E+00 -0.45593999997E+02  0.45594000000E+02  0.51100000000E-03 0. -1.
    9900012    2    1    2    0    0 -0.26880080741E+01  0.43316620649E+02  0.26088204885E+00  0.47787273378E+02  0.20000010642E+02 0.  0.
        -12    1    1    2    0    0  0.26880080741E+01 -0.43316620649E+02 -0.26088204885E+00  0.43400726622E+02  0.00000000000E+00 0.  1.
         11    1    3    3    0    0  0.43598590870E+01  0.15490730715E+02  0.64390208984E+01  0.17332977232E+02  0.51100000000E-03 0. -1.
        -11    1    3    3    0    0  0.17333486089E+01  0.57636413698E+01 -0.50075037281E+00  0.60394379239E+01  0.51100000000E-03 0.  1.
         12    1    3    3    0    0 -0.87812157700E+01  0.22062248564E+02 -0.56773884768E+01  0.24414858222E+02  0.00000000000E+00 0. -1.
</event>
<event>
 7    1  0.2714068E-010  0.4778728E+02  0.7816164E-02  0.1312668E+00
        -11   -1    0    0    0    0  0.00000000000E+00  0.00000000000E+00  0.45593999997E+02  0.45594000000E+02  0.51100000000E-03 0. -1.
         11   -1    0    0    0    0 -0.00000000000E+00 -0.00000000000E+00 -0.45593999997E+02  0.45594000000E+02  0.51100000000E-03 0.  1.
    9900012    2    1    2    0    0  0.16000761122E+02 -0.33191427378E+02  0.22933110210E+02  0.47787277059E+02  0.20000027425E+02 0.  0.
        -12    1    1    2    0    0 -0.16000761122E+02  0.33191427378E+02 -0.22933110210E+02  0.43400722941E+02  0.00000000000E+00 0.  1.
         11    1    3    3    0    0  0.97880532634E+01 -0.19408049282E+02  0.22931636006E+02  0.31596491795E+02  0.51100000000E-03 0. -1.
        -11    1    3    3    0    0  0.50027545712E+01 -0.14069996487E+02  0.18374831200E+00  0.14934058998E+02  0.51100000000E-03 0.  1.
         12    1    3    3    0    0  0.12099532870E+01  0.28661839078E+00 -0.18227410745E+00  0.12567262665E+01  0.00000000000E+00 0. -1.
</event>
<event>
 7    1  0.2714068E-010  0.4778728E+02  0.7816164E-02  0.1312668E+00
        -11   -1    0    0    0    0  0.00000000000E+00  0.00000000000E+00  0.45593999997E+02  0.45594000000E+02  0.51100000000E-03 0.  1.
         11   -1    0    0    0    0 -0.00000000000E+00 -0.00000000000E+00 -0.45593999997E+02  0.45594000000E+02  0.51100000000E-03 0. -1.
    9900012    2    1    2    0    0  0.84617541306E+01  0.37219887304E+02 -0.20656756708E+02  0.47787275449E+02  0.20000020080E+02 0.  0.
        -12    1    1    2    0    0 -0.84617541306E+01 -0.37219887304E+02  0.20656756708E+02  0.43400724551E+02  0.00000000000E+00 0.  1.
         11    1    3    3    0    0  0.36943611719E+01  0.57776438324E+01 -0.90047425190E+01  0.11318783540E+02  0.51100000000E-03 0. -1.
        -11    1    3    3    0    0  0.18237043875E+01  0.30784185717E+02 -0.12590755741E+02  0.33309444883E+02  0.51100000000E-03 0.  1.
         12    1    3    3    0    0  0.29436885712E+01  0.65805775437E+00  0.93874155256E+00  0.31590470264E+01  0.00000000000E+00 0. -1.
</event>
<event>
 7    1  0.2714068E-010  0.4778727E+02  0.7816164E-02  0.1312668E+00
        -11   -1    0    0    0    0  0.00000000000E+00  0.00000000000E+00  0.45593999997E+02  0.45594000000E+02  0.51100000000E-03 0.  1.
         11   -1    0    0    0    0 -0.00000000000E+00 -0.00000000000E+00 -0.45593999997E+02  0.45594000000E+02  0.51100000000E-03 0. -1.
    9900012    2    1    2    0    0  0.14061366287E+02  0.25383023518E+02 -0.32273879666E+02  0.47787271740E+02  0.20000003173E+02 0.  0.
        -12    1    1    2    0    0 -0.14061366287E+02 -0.25383023518E+02  0.32273879666E+02  0.43400728260E+02  0.00000000000E+00 0.  1.
         11    1    3    3    0    0 -0.27786533496E+01  0.34545069641E+01 -0.10367404154E+01  0.45529511036E+01  0.51100000000E-03 0. -1.
        -11    1    3    3    0    0  0.11295445992E+01 -0.43990751715E+00 -0.56982662269E+01  0.58257727280E+01  0.51100000000E-03 0.  1.
         12    1    3    3    0    0  0.15710475037E+02  0.22368424071E+02 -0.25538873024E+02  0.37408547909E+02  0.00000000000E+00 0. -1.
</event>
<event>
 7    1  0.2714068E-010  0.4778727E+02  0.7816164E-02  0.1312668E+00
        -11   -1    0    0    0    0  0.00000000000E+00  0.00000000000E+00  0.45593999997E+02  0.45594000000E+02  0.51100000000E-03 0. -1.
         11   -1    0    0    0    0 -0.00000000000E+00 -0.00000000000E+00 -0.45593999997E+02  0.45594000000E+02  0.51100000000E-03 0.  1.
    9900012    2    1    2    0    0 -0.33204436618E+02  0.16344448022E+02  0.22670420358E+02  0.47787267846E+02  0.19999985418E+02 0.  0.
        -12    1    1    2    0    0  0.33204436618E+02 -0.16344448022E+02 -0.22670420358E+02  0.43400732154E+02  0.00000000000E+00 0.  1.
         11    1    3    3    0    0 -0.16481898210E+02  0.52065938965E+00  0.16733541263E+02  0.23493306669E+02  0.51100000000E-03 0. -1.
        -11    1    3    3    0    0 -0.14580690577E+02  0.11061450685E+02  0.51557154880E+01  0.19014037746E+02  0.51100000000E-03 0.  1.
         12    1    3    3    0    0 -0.21418478315E+01  0.47623379468E+01  0.78116360773E+00  0.52799234308E+01  0.00000000000E+00 0. -1.
</event>
<event>
 7    1  0.2714068E-010  0.4778729E+02  0.7816164E-02  0.1312668E+00
        -11   -1    0    0    0    0  0.00000000000E+00  0.00000000000E+00  0.45593999997E+02  0.45594000000E+02  0.51100000000E-03 0.  1.
         11   -1    0    0    0    0 -0.00000000000E+00 -0.00000000000E+00 -0.45593999997E+02  0.45594000000E+02  0.51100000000E-03 0. -1.
    9900012    2    1    2    0    0  0.56702342326E+01  0.61039417285E+01 -0.42593571718E+02  0.47787285576E+02  0.20000066253E+02 0.  0.
        -12    1    1    2    0    0 -0.56702342326E+01 -0.61039417285E+01  0.42593571718E+02  0.43400714424E+02  0.00000000000E+00 0.  1.
         11    1    3    3    0    0  0.50306392936E-01 -0.11522379920E+01 -0.68375386813E+01  0.69341270974E+01  0.51100000000E-03 0. -1.
        -11    1    3    3    0    0  0.85050468708E+01  0.75758736616E+01 -0.36170054723E+02  0.37921003981E+02  0.51100000000E-03 0.  1.
        -12    1    3    3    0    0 -0.28851190311E+01 -0.31969394103E+00  0.41402168614E+00  0.29321544973E+01  0.00000000000E+00 0.  1.
</event>
<event>
 7    1  0.2714068E-010  0.4778727E+02  0.7816164E-02  0.1312668E+00
        -11   -1    0    0    0    0  0.00000000000E+00  0.00000000000E+00  0.45593999997E+02  0.45594000000E+02  0.51100000000E-03 0.  1.
         11   -1    0    0    0    0 -0.00000000000E+00 -0.00000000000E+00 -0.45593999997E+02  0.45594000000E+02  0.51100000000E-03 0. -1.
    9900012    2    1    2    0    0  0.91374303677E+01 -0.31380985980E+02 -0.28554581976E+02  0.47787273432E+02  0.20000010886E+02 0.  0.
        -12    1    1    2    0    0 -0.91374303677E+01  0.31380985980E+02  0.28554581976E+02  0.43400726568E+02  0.00000000000E+00 0.  1.
         11    1    3    3    0    0  0.40751061952E+01 -0.22748193857E+02 -0.25261802597E+02  0.34238070696E+02  0.51100000000E-03 0. -1.
        -11    1    3    3    0    0  0.38019631084E+01 -0.34604551341E+01  0.24701602380E+01  0.57036273611E+01  0.51100000000E-03 0.  1.
        -12    1    3    3    0    0  0.12603610641E+01 -0.51723369890E+01 -0.57629396171E+01  0.78455753753E+01  0.00000000000E+00 0.  1.
</event>
<event>
 7    1  0.2714068E-010  0.4778726E+02  0.7816164E-02  0.1312668E+00
        -11   -1    0    0    0    0  0.00000000000E+00  0.00000000000E+00  0.45593999997E+02  0.45594000000E+02  0.51100000000E-03 0. -1.
         11   -1    0    0    0    0 -0.00000000000E+00 -0.00000000000E+00 -0.45593999997E+02  0.45594000000E+02  0.51100000000E-03 0.  1.
    9900012    2    1    2    0    0 -0.13700834932E+02 -0.36104306150E+02  0.19808843218E+02  0.47787261872E+02  0.19999958181E+02 0.  0.
        -12    1    1    2    0    0  0.13700834932E+02  0.36104306150E+02 -0.19808843218E+02  0.43400738128E+02  0.00000000000E+00 0.  1.
         11    1    3    3    0    0  0.28487431463E+00 -0.71900809992E+01  0.53690129722E+01  0.89780130712E+01  0.51100000000E-03 0. -1.
        -11    1    3    3    0    0  0.11274667415E+01 -0.16281147362E+02  0.68640261400E+01  0.17704852323E+02  0.51100000000E-03 0.  1.
        -12    1    3    3    0    0 -0.15113175988E+02 -0.12633077789E+02  0.75758041055E+01  0.21104396478E+02  0.00000000000E+00 0.  1.
</event>
<event>
 7    1  0.2714068E-010  0.4778727E+02  0.7816164E-02  0.1312668E+00
        -11   -1    0    0    0    0  0.00000000000E+00  0.00000000000E+00  0.45593999997E+02  0.45594000000E+02  0.51100000000E-03 0.  1.
         11   -1    0    0    0    0 -0.00000000000E+00 -0.00000000000E+00 -0.45593999997E+02  0.45594000000E+02  0.51100000000E-03 0. -1.
    9900012    2    1    2    0    0 -0.24852207094E+02  0.34739148885E+02 -0.76930287992E+01  0.47787270112E+02  0.19999995750E+02 0.  0.
        -12    1    1    2    0    0  0.24852207094E+02 -0.34739148885E+02  0.76930287992E+01  0.43400729888E+02  0.00000000000E+00 0.  1.
         11    1    3    3    0    0 -0.18727229938E+02  0.11612826731E+02 -0.38308201739E+01  0.22366091954E+02  0.51100000000E-03 0. -1.
        -11    1    3    3    0    0 -0.11437865564E+01  0.16101510775E+02 -0.45812069560E+01  0.16779581472E+02  0.51100000000E-03 0.  1.
         12    1    3    3    0    0 -0.49811905993E+01  0.70248113788E+01  0.71899833076E+00  0.86415966866E+01  0.00000000000E+00 0. -1.
</event>
<event>
 7    1  0.2714068E-010  0.4778727E+02  0.7816164E-02  0.1312668E+00
        -11   -1    0    0    0    0  0.00000000000E+00  0.00000000000E+00  0.45593999997E+02  0.45594000000E+02  0.51100000000E-03 0.  1.
         11   -1    0    0    0    0 -0.00000000000E+00 -0.00000000000E+00 -0.45593999997E+02  0.45594000000E+02  0.51100000000E-03 0. -1.
    9900012    2    1    2    0    0 -0.20461455377E+02  0.25897518130E+02 -0.28182802186E+02  0.47787274885E+02  0.20000017511E+02 0.  0.
        -12    1    1    2    0    0  0.20461455377E+02 -0.25897518130E+02  0.28182802186E+02  0.43400725115E+02  0.00000000000E+00 0.  1.
         11    1    3    3    0    0 -0.55092344090E+01 -0.98541268679E+00 -0.12660059453E+01  0.57380722591E+01  0.51100000000E-03 0. -1.
        -11    1    3    3    0    0 -0.40560427036E+01  0.11346271430E+02 -0.49656711758E+01  0.13032545732E+02  0.51100000000E-03 0.  1.
         12    1    3    3    0    0 -0.10896178265E+02  0.15536659387E+02 -0.21951125065E+02  0.29016656894E+02  0.00000000000E+00 0. -1.
</event>
<event>
 7    1  0.2714068E-010  0.4778728E+02  0.7816164E-02  0.1312668E+00
        -11   -1    0    0    0    0  0.00000000000E+00  0.00000000000E+00  0.45593999997E+02  0.45594000000E+02  0.51100000000E-03 0.  1.
         11   -1    0    0    0    0 -0.00000000000E+00 -0.00000000000E+00 -0.45593999997E+02  0.45594000000E+02  0.51100000000E-03 0. -1.
    9900012    2    1    2    0    0  0.20205732910E+02 -0.12564450987E+02 -0.36297184982E+02  0.47787277556E+02  0.20000029688E+02 0.  0.
        -12    1    1    2    0    0 -0.20205732910E+02  0.12564450987E+02  0.36297184982E+02  0.43400722444E+02  0.00000000000E+00 0.  1.
         11    1    3    3    0    0  0.11284770035E+02 -0.61352714793E+01 -0.32166394902E+02  0.34636174040E+02  0.51100000000E-03 0. -1.
        -11    1    3    3    0    0  0.62935148365E+01 -0.25742296657E+01  0.17596767851E+00  0.68019079862E+01  0.51100000000E-03 0.  1.
        -12    1    3    3    0    0  0.26274480387E+01 -0.38549498419E+01 -0.43067577586E+01  0.63491955294E+01  0.00000000000E+00 0.  1.
</event>
<event>
 7    1  0.2714068E-010  0.4778727E+02  0.7816164E-02  0.1312668E+00
        -11   -1    0    0    0    0  0.00000000000E+00  0.00000000000E+00  0.45593999997E+02  0.45594000000E+02  0.51100000000E-03 0.  1.
         11   -1    0    0    0    0 -0.00000000000E+00 -0.00000000000E+00 -0.45593999997E+02  0.45594000000E+02  0.51100000000E-03 0. -1.
    9900012    2    1    2    0    0  0.11637786764E+02  0.30053499831E+02 -0.29068410359E+02  0.47787269434E+02  0.19999992659E+02 0.  0.
        -12    1    1    2    0    0 -0.11637786764E+02 -0.30053499831E+02  0.29068410359E+02  0.43400730566E+02  0.00000000000E+00 0.  1.
         11    1    3    3    0    0  0.16910485510E+02  0.23722937506E+02 -0.20809078298E+02  0.35801676273E+02  0.51100000000E-03 0.  1.
        -11    1    3    3    0    0 -0.37715158777E+01  0.56227757117E+01 -0.76544574631E+01  0.10219131961E+02  0.51100000000E-03 0. -1.
        -12    1    3    3    0    0 -0.15011828682E+01  0.70778661307E+00 -0.60487459776E+00  0.17664612004E+01  0.00000000000E+00 0.  1.
</event>
<event>
 7    1  0.2714068E-010  0.4778727E+02  0.7816164E-02  0.1312668E+00
        -11   -1    0    0    0    0  0.00000000000E+00  0.00000000000E+00  0.45593999997E+02  0.45594000000E+02  0.51100000000E-03 0. -1.
         11   -1    0    0    0    0 -0.00000000000E+00 -0.00000000000E+00 -0.45593999997E+02  0.45594000000E+02  0.51100000000E-03 0.  1.
    9900012    2    1    2    0    0 -0.36106984176E+02  0.24076544949E+02  0.47856413067E+00  0.47787270207E+02  0.19999996182E+02 0.  0.
        -12    1    1    2    0    0  0.36106984176E+02 -0.24076544949E+02 -0.47856413067E+00  0.43400729793E+02  0.00000000000E+00 0.  1.
         11    1    3    3    0    0 -0.22660099006E+02  0.22537438331E+02  0.54916926763E+01  0.32427995655E+02  0.51100000000E-03 0. -1.
        -11    1    3    3    0    0 -0.35531156318E+01 -0.14616271567E+01 -0.28827517375E+01  0.48032533224E+01  0.51100000000E-03 0.  1.
        -12    1    3    3    0    0 -0.98937695375E+01  0.30007337744E+01 -0.21303768082E+01  0.10556021229E+02  0.00000000000E+00 0.  1.
</event>
<event>
 7    1  0.2714068E-010  0.4778727E+02  0.7816164E-02  0.1312668E+00
        -11   -1    0    0    0    0  0.00000000000E+00  0.00000000000E+00  0.45593999997E+02  0.45594000000E+02  0.51100000000E-03 0.  1.
         11   -1    0    0    0    0 -0.00000000000E+00 -0.00000000000E+00 -0.45593999997E+02  0.45594000000E+02  0.51100000000E-03 0. -1.
    9900012    2    1    2    0    0  0.65820367793E+00  0.50121434098E+01 -0.43105317390E+02  0.47787271885E+02  0.20000003833E+02 0.  0.
        -12    1    1    2    0    0 -0.65820367793E+00 -0.50121434098E+01  0.43105317390E+02  0.43400728115E+02  0.00000000000E+00 0.  1.
         11    1    3    3    0    0  0.49813607427E+01  0.50873190817E+01 -0.49319860250E+01  0.86613657526E+01  0.51100000000E-03 0. -1.
        -11    1    3    3    0    0 -0.26466104164E+01 -0.64320782119E+00 -0.36759939569E+02  0.36860702929E+02  0.51100000000E-03 0.  1.
        -12    1    3    3    0    0 -0.16765466484E+01  0.56803214936E+00 -0.14133917954E+01  0.22652032038E+01  0.00000000000E+00 0.  1.
</event>
<event>
 7    1  0.2714068E-010  0.4778727E+02  0.7816164E-02  0.1312668E+00
        -11   -1    0    0    0    0  0.00000000000E+00  0.00000000000E+00  0.45593999997E+02  0.45594000000E+02  0.51100000000E-03 0. -1.
         11   -1    0    0    0    0 -0.00000000000E+00 -0.00000000000E+00 -0.45593999997E+02  0.45594000000E+02  0.51100000000E-03 0.  1.
    9900012    2    1    2    0    0 -0.14262354582E+02 -0.40680314609E+02 -0.50319385203E+01  0.47787272355E+02  0.20000005973E+02 0.  0.
        -12    1    1    2    0    0  0.14262354582E+02  0.40680314609E+02  0.50319385203E+01  0.43400727645E+02  0.00000000000E+00 0.  1.
         11    1    3    3    0    0  0.25646576902E+01 -0.76614561103E+01  0.27624443749E+01  0.85385290292E+01  0.51100000000E-03 0.  1.
        -11    1    3    3    0    0 -0.76057030927E+01 -0.24736502925E+02 -0.70948068119E+01  0.26834261317E+02  0.51100000000E-03 0. -1.
         12    1    3    3    0    0 -0.92213091795E+01 -0.82823555736E+01 -0.69957608331E+00  0.12414482008E+02  0.00000000000E+00 0. -1.
</event>
<event>
 7    1  0.2714068E-010  0.4778727E+02  0.7816164E-02  0.1312668E+00
        -11   -1    0    0    0    0  0.00000000000E+00  0.00000000000E+00  0.45593999997E+02  0.45594000000E+02  0.51100000000E-03 0.  1.
         11   -1    0    0    0    0 -0.00000000000E+00 -0.00000000000E+00 -0.45593999997E+02  0.45594000000E+02  0.51100000000E-03 0. -1.
    9900012    2    1    2    0    0  0.47652435807E+01  0.29904726149E+02 -0.31090561305E+02  0.47787271957E+02  0.20000004159E+02 0.  0.
        -12    1    1    2    0    0 -0.47652435807E+01 -0.29904726149E+02  0.31090561305E+02  0.43400728043E+02  0.00000000000E+00 0.  1.
         11    1    3    3    0    0  0.24252455203E+01  0.80332868598E+01 -0.15805016107E+02  0.17894525644E+02  0.51100000000E-03 0. -1.
        -11    1    3    3    0    0 -0.38136877365E+00  0.49426995717E+01  0.21818313752E+01  0.54162818989E+01  0.51100000000E-03 0.  1.
        -12    1    3    3    0    0  0.27213668341E+01  0.16928739718E+02 -0.17467376573E+02  0.24476464414E+02  0.00000000000E+00 0.  1.
</event>
<event>
 7    1  0.2714068E-010  0.4778725E+02  0.7816164E-02  0.1312668E+00
        -11   -1    0    0    0    0  0.00000000000E+00  0.00000000000E+00  0.45593999997E+02  0.45594000000E+02  0.51100000000E-03 0.  1.
         11   -1    0    0    0    0 -0.00000000000E+00 -0.00000000000E+00 -0.45593999997E+02  0.45594000000E+02  0.51100000000E-03 0. -1.
    9900012    2    1    2    0    0  0.38681200098E+01 -0.43253886809E+01 -0.43011085865E+02  0.47787252922E+02  0.19999917372E+02 0.  0.
        -12    1    1    2    0    0 -0.38681200098E+01  0.43253886809E+01  0.43011085865E+02  0.43400747078E+02  0.00000000000E+00 0.  1.
         11    1    3    3    0    0 -0.23497135993E+01 -0.72115933988E+01 -0.21478522855E+02  0.22778392780E+02  0.51100000000E-03 0. -1.
        -11    1    3    3    0    0  0.42081395213E+01  0.18122667730E+01 -0.14620342963E+01  0.48093963895E+01  0.51100000000E-03 0.  1.
         12    1    3    3    0    0  0.20096940878E+01  0.10739379449E+01 -0.20070528714E+02  0.20199463752E+02  0.00000000000E+00 0. -1.
</event>
<event>
 7    1  0.2714068E-010  0.4778727E+02  0.7816164E-02  0.1312668E+00
        -11   -1    0    0    0    0  0.00000000000E+00  0.00000000000E+00  0.45593999997E+02  0.45594000000E+02  0.51100000000E-03 0.  1.
         11   -1    0    0    0    0 -0.00000000000E+00 -0.00000000000E+00 -0.45593999997E+02  0.45594000000E+02  0.51100000000E-03 0. -1.
    9900012    2    1    2    0    0  0.20871182970E+02  0.50255003456E+01 -0.37719509063E+02  0.47787270787E+02  0.19999998824E+02 0.  0.
        -12    1    1    2    0    0 -0.20871182970E+02 -0.50255003456E+01  0.37719509063E+02  0.43400729213E+02  0.00000000000E+00 0.  1.
         11    1    3    3    0    0  0.31832418681E+01  0.82445497536E+01 -0.98576675884E+01  0.13239306627E+02  0.51100000000E-03 0. -1.
        -11    1    3    3    0    0  0.93260159041E+01  0.70460543940E-01 -0.64850031336E+01  0.11359348715E+02  0.51100000000E-03 0.  1.
         12    1    3    3    0    0  0.83619251976E+01 -0.32895099519E+01 -0.21376838341E+02  0.23188615444E+02  0.00000000000E+00 0. -1.
</event>
<event>
 7    1  0.2714068E-010  0.4778727E+02  0.7816164E-02  0.1312668E+00
        -11   -1    0    0    0    0  0.00000000000E+00  0.00000000000E+00  0.45593999997E+02  0.45594000000E+02  0.51100000000E-03 0. -1.
         11   -1    0    0    0    0 -0.00000000000E+00 -0.00000000000E+00 -0.45593999997E+02  0.45594000000E+02  0.51100000000E-03 0.  1.
    9900012    2    1    2    0    0 -0.36032676313E+02 -0.24147594076E+02 -0.14708041658E+01  0.47787270435E+02  0.19999997219E+02 0.  0.
        -12    1    1    2    0    0  0.36032676313E+02  0.24147594076E+02  0.14708041658E+01  0.43400729565E+02  0.00000000000E+00 0.  1.
         11    1    3    3    0    0 -0.80639863931E+01 -0.23084169772E+01 -0.72685106123E+01  0.11099005013E+02  0.51100000000E-03 0.  1.
        -11    1    3    3    0    0 -0.21533871267E+02 -0.18641892823E+02  0.19778579991E+01  0.28550651521E+02  0.51100000000E-03 0. -1.
        -12    1    3    3    0    0 -0.64348186532E+01 -0.31972842758E+01  0.38198484473E+01  0.81376139009E+01  0.00000000000E+00 0.  1.
</event>
<event>
 7    1  0.2714068E-010  0.4778728E+02  0.7816164E-02  0.1312668E+00
        -11   -1    0    0    0    0  0.00000000000E+00  0.00000000000E+00  0.45593999997E+02  0.45594000000E+02  0.51100000000E-03 0. -1.
         11   -1    0    0    0    0 -0.00000000000E+00 -0.00000000000E+00 -0.45593999997E+02  0.45594000000E+02  0.51100000000E-03 0.  1.
    9900012    2    1    2    0    0  0.24998080356E+02  0.14968165072E+02  0.32166320565E+02  0.47787283810E+02  0.20000058205E+02 0.  0.
        -12    1    1    2    0    0 -0.24998080356E+02 -0.14968165072E+02 -0.32166320565E+02  0.43400716190E+02  0.00000000000E+00 0.  1.
         11    1    3    3    0    0  0.61530402110E+01  0.21671822721E+01  0.16625229184E+02  0.17859306496E+02  0.51100000000E-03 0. -1.
        -11    1    3    3    0    0  0.18147395779E+02  0.10697971689E+02  0.87965259238E+01  0.22828785347E+02  0.51100000000E-03 0.  1.
        -12    1    3    3    0    0  0.69764436655E+00  0.21030111108E+01  0.67445654566E+01  0.70991919676E+01  0.00000000000E+00 0.  1.
</event>
<event>
 7    1  0.2714068E-010  0.4778727E+02  0.7816164E-02  0.1312668E+00
        -11   -1    0    0    0    0  0.00000000000E+00  0.00000000000E+00  0.45593999997E+02  0.45594000000E+02  0.51100000000E-03 0. -1.
         11   -1    0    0    0    0 -0.00000000000E+00 -0.00000000000E+00 -0.45593999997E+02  0.45594000000E+02  0.51100000000E-03 0.  1.
    9900012    2    1    2    0    0 -0.10187028018E+02 -0.21931073995E+02  0.36039915719E+02  0.47787273377E+02  0.20000010634E+02 0.  0.
        -12    1    1    2    0    0  0.10187028018E+02  0.21931073995E+02 -0.36039915719E+02  0.43400726623E+02  0.00000000000E+00 0.  1.
         11    1    3    3    0    0 -0.40564552598E+01 -0.24217245558E+02  0.30384678291E+02  0.39066078467E+02  0.51100000000E-03 0. -1.
        -11    1    3    3    0    0 -0.36651837905E+01  0.17512737026E+01  0.29366794175E+01  0.50124463151E+01  0.51100000000E-03 0.  1.
         12    1    3    3    0    0 -0.24653889675E+01  0.53489786013E+00  0.27185580103E+01  0.37087485945E+01  0.00000000000E+00 0. -1.
</event>
<event>
 7    1  0.2714068E-010  0.4778727E+02  0.7816164E-02  0.1312668E+00
        -11   -1    0    0    0    0  0.00000000000E+00  0.00000000000E+00  0.45593999997E+02  0.45594000000E+02  0.51100000000E-03 0.  1.
         11   -1    0    0    0    0 -0.00000000000E+00 -0.00000000000E+00 -0.45593999997E+02  0.45594000000E+02  0.51100000000E-03 0. -1.
    9900012    2    1    2    0    0 -0.32978623306E+02  0.11545308539E+02 -0.25743727804E+02  0.47787271139E+02  0.20000000432E+02 0.  0.
        -12    1    1    2    0    0  0.32978623306E+02 -0.11545308539E+02  0.25743727804E+02  0.43400728861E+02  0.00000000000E+00 0.  1.
         11    1    3    3    0    0 -0.11608875257E+02 -0.45041688421E+01 -0.37643418162E+01  0.13008604509E+02  0.51100000000E-03 0. -1.
        -11    1    3    3    0    0 -0.19398904951E+02  0.14399937697E+02 -0.18381494236E+02  0.30357125186E+02  0.51100000000E-03 0.  1.
         12    1    3    3    0    0 -0.19708430979E+01  0.16495396838E+01 -0.35978917517E+01  0.44215414441E+01  0.00000000000E+00 0. -1.
</event>
<event>
 7    1  0.2714068E-010  0.4778727E+02  0.7816164E-02  0.1312668E+00
        -11   -1    0    0    0    0  0.00000000000E+00  0.00000000000E+00  0.45593999997E+02  0.45594000000E+02  0.51100000000E-03 0.  1.
         11   -1    0    0    0    0 -0.00000000000E+00 -0.00000000000E+00 -0.45593999997E+02  0.45594000000E+02  0.51100000000E-03 0. -1.
    9900012    2    1    2    0    0  0.11844499286E+02 -0.38886587130E+02 -0.15204090279E+02  0.47787272089E+02  0.20000004764E+02 0.  0.
        -12    1    1    2    0    0 -0.11844499286E+02  0.38886587130E+02  0.15204090279E+02  0.43400727911E+02  0.00000000000E+00 0.  1.
         11    1    3    3    0    0  0.75997322058E+01 -0.21026283464E+02 -0.15142624121E+02  0.27002955236E+02  0.51100000000E-03 0. -1.
        -11    1    3    3    0    0 -0.11059073964E+01 -0.79752403696E+01 -0.38473995785E+01  0.89235628478E+01  0.51100000000E-03 0.  1.
         12    1    3    3    0    0  0.53506744765E+01 -0.98850632962E+01  0.37859334206E+01  0.11860754006E+02  0.00000000000E+00 0. -1.
</event>
<event>
 7    1  0.2714068E-010  0.4778728E+02  0.7816164E-02  0.1312668E+00
        -11   -1    0    0    0    0  0.00000000000E+00  0.00000000000E+00  0.45593999997E+02  0.45594000000E+02  0.51100000000E-03 0. -1.
         11   -1    0    0    0    0 -0.00000000000E+00 -0.00000000000E+00 -0.45593999997E+02  0.45594000000E+02  0.51100000000E-03 0.  1.
    9900012    2    1    2    0    0 -0.13623474043E+02  0.18658406047E+02  0.36740815461E+02  0.47787277864E+02  0.20000031095E+02 0.  0.
        -12    1    1    2    0    0  0.13623474043E+02 -0.18658406047E+02 -0.36740815461E+02  0.43400722136E+02  0.00000000000E+00 0.  1.
         11    1    3    3    0    0 -0.11964907031E+01  0.16393314146E+02  0.13703336040E+02  0.21399854149E+02  0.51100000000E-03 0. -1.
        -11    1    3    3    0    0 -0.82452118563E+01  0.33051982115E+00  0.14332472465E+02  0.16538214206E+02  0.51100000000E-03 0.  1.
         12    1    3    3    0    0 -0.41817714834E+01  0.19345720795E+01  0.87050069550E+01  0.98492095092E+01  0.00000000000E+00 0. -1.
</event>
<event>
 7    1  0.2714068E-010  0.4778727E+02  0.7816164E-02  0.1312668E+00
        -11   -1    0    0    0    0  0.00000000000E+00  0.00000000000E+00  0.45593999997E+02  0.45594000000E+02  0.51100000000E-03 0.  1.
         11   -1    0    0    0    0 -0.00000000000E+00 -0.00000000000E+00 -0.45593999997E+02  0.45594000000E+02  0.51100000000E-03 0. -1.
    9900012    2    1    2    0    0  0.11058523696E+02 -0.15986237419E+02 -0.38804285251E+02  0.47787270893E+02  0.19999999311E+02 0.  0.
        -12    1    1    2    0    0 -0.11058523696E+02  0.15986237419E+02  0.38804285251E+02  0.43400729107E+02  0.00000000000E+00 0.  1.
         11    1    3    3    0    0  0.44464678350E+01 -0.11286008287E+02 -0.11852021424E+02  0.16959229680E+02  0.51100000000E-03 0. -1.
        -11    1    3    3    0    0  0.11258800673E+01  0.41575390456E+01 -0.10560981846E+02  0.11405572088E+02  0.51100000000E-03 0.  1.
        -12    1    3    3    0    0  0.54861757934E+01 -0.88577681780E+01 -0.16391281982E+02  0.19422469126E+02  0.00000000000E+00 0.  1.
</event>
<event>
 7    1  0.2714068E-010  0.4778727E+02  0.7816164E-02  0.1312668E+00
        -11   -1    0    0    0    0  0.00000000000E+00  0.00000000000E+00  0.45593999997E+02  0.45594000000E+02  0.51100000000E-03 0.  1.
         11   -1    0    0    0    0 -0.00000000000E+00 -0.00000000000E+00 -0.45593999997E+02  0.45594000000E+02  0.51100000000E-03 0. -1.
    9900012    2    1    2    0    0  0.19304871129E+02  0.33347536866E+02 -0.19972152341E+02  0.47787272662E+02  0.20000007374E+02 0.  0.
        -12    1    1    2    0    0 -0.19304871129E+02 -0.33347536866E+02  0.19972152341E+02  0.43400727338E+02  0.00000000000E+00 0.  1.
         11    1    3    3    0    0  0.11272824150E+01  0.62602333970E+01  0.28325562741E+01  0.69630929288E+01  0.51100000000E-03 0.  1.
        -11    1    3    3    0    0  0.18891907831E+02  0.23257552908E+02 -0.20058792390E+02  0.36057913156E+02  0.51100000000E-03 0. -1.
         12    1    3    3    0    0 -0.71431911756E+00  0.38297505614E+01 -0.27459162252E+01  0.47662665767E+01  0.00000000000E+00 0. -1.
</event>
<event>
 7    1  0.2714068E-010  0.4778728E+02  0.7816164E-02  0.1312668E+00
        -11   -1    0    0    0    0  0.00000000000E+00  0.00000000000E+00  0.45593999997E+02  0.45594000000E+02  0.51100000000E-03 0.  1.
         11   -1    0    0    0    0 -0.00000000000E+00 -0.00000000000E+00 -0.45593999997E+02  0.45594000000E+02  0.51100000000E-03 0. -1.
    9900012    2    1    2    0    0 -0.19048086699E+02  0.52695684840E+01 -0.38639679853E+02  0.47787276296E+02  0.20000023945E+02 0.  0.
        -12    1    1    2    0    0  0.19048086699E+02 -0.52695684840E+01  0.38639679853E+02  0.43400723704E+02  0.00000000000E+00 0.  1.
         11    1    3    3    0    0 -0.17479877173E+02 -0.35521115721E+01 -0.19114602707E+02  0.26144438022E+02  0.51100000000E-03 0. -1.
        -11    1    3    3    0    0  0.41891521876E+00  0.27434262652E+01 -0.41666773026E+01  0.50063037901E+01  0.51100000000E-03 0.  1.
         12    1    3    3    0    0 -0.19871247453E+01  0.60782537909E+01 -0.15358399843E+02  0.16636534484E+02  0.00000000000E+00 0. -1.
</event>
<event>
 7    1  0.2714068E-010  0.4778727E+02  0.7816164E-02  0.1312668E+00
        -11   -1    0    0    0    0  0.00000000000E+00  0.00000000000E+00  0.45593999997E+02  0.45594000000E+02  0.51100000000E-03 0.  1.
         11   -1    0    0    0    0 -0.00000000000E+00 -0.00000000000E+00 -0.45593999997E+02  0.45594000000E+02  0.51100000000E-03 0. -1.
    9900012    2    1    2    0    0 -0.66592053156E+01 -0.42834511808E+02 -0.21172554407E+01  0.47787272035E+02  0.20000004517E+02 0.  0.
        -12    1    1    2    0    0  0.66592053156E+01  0.42834511808E+02  0.21172554407E+01  0.43400727965E+02  0.00000000000E+00 0.  1.
         11    1    3    3    0    0  0.15258493570E+01 -0.18421507754E+02  0.39682888170E+01  0.18905752579E+02  0.51100000000E-03 0. -1.
        -11    1    3    3    0    0 -0.43368460195E+01 -0.10316913953E+01 -0.18334097927E+00  0.44616403607E+01  0.51100000000E-03 0.  1.
         12    1    3    3    0    0 -0.38482086530E+01 -0.23381312659E+02 -0.59022032785E+01  0.24419879096E+02  0.00000000000E+00 0. -1.
</event>
<event>
 7    1  0.2714068E-010  0.4778727E+02  0.7816164E-02  0.1312668E+00
        -11   -1    0    0    0    0  0.00000000000E+00  0.00000000000E+00  0.45593999997E+02  0.45594000000E+02  0.51100000000E-03 0. -1.
         11   -1    0    0    0    0 -0.00000000000E+00 -0.00000000000E+00 -0.45593999997E+02  0.45594000000E+02  0.51100000000E-03 0.  1.
    9900012    2    1    2    0    0  0.14556967883E+02 -0.39831790755E+02  0.92274676305E+01  0.47787273882E+02  0.20000012937E+02 0.  0.
        -12    1    1    2    0    0 -0.14556967883E+02  0.39831790755E+02 -0.92274676305E+01  0.43400726118E+02  0.00000000000E+00 0.  1.
         11    1    3    3    0    0  0.15465091375E+02 -0.20256382413E+02  0.73027940431E+01  0.26510769148E+02  0.51100000000E-03 0. -1.
        -11    1    3    3    0    0 -0.23820471607E+01 -0.16168078050E+02 -0.12519243851E+01  0.16390491495E+02  0.51100000000E-03 0.  1.
        -12    1    3    3    0    0  0.14739236692E+01 -0.34073302916E+01  0.31765979725E+01  0.48860132396E+01  0.00000000000E+00 0.  1.
</event>
<event>
 7    1  0.2714068E-010  0.4778728E+02  0.7816164E-02  0.1312668E+00
        -11   -1    0    0    0    0  0.00000000000E+00  0.00000000000E+00  0.45593999997E+02  0.45594000000E+02  0.51100000000E-03 0.  1.
         11   -1    0    0    0    0 -0.00000000000E+00 -0.00000000000E+00 -0.45593999997E+02  0.45594000000E+02  0.51100000000E-03 0. -1.
    9900012    2    1    2    0    0 -0.75177775099E+01 -0.11395523720E+02 -0.41197662763E+02  0.47787281611E+02  0.20000048178E+02 0.  0.
        -12    1    1    2    0    0  0.75177775099E+01  0.11395523720E+02  0.41197662763E+02  0.43400718389E+02  0.00000000000E+00 0.  1.
         11    1    3    3    0    0 -0.10195261882E+01 -0.12471337310E+02 -0.29812129215E+02  0.32331667704E+02  0.51100000000E-03 0. -1.
        -11    1    3    3    0    0 -0.38132381231E+01  0.45498239552E+01 -0.77027095354E+01  0.97248865008E+01  0.51100000000E-03 0.  1.
         12    1    3    3    0    0 -0.26850131986E+01 -0.34740103659E+01 -0.36828240124E+01  0.57307274063E+01  0.00000000000E+00 0. -1.
</event>
<event>
 7    1  0.2714068E-010  0.4778727E+02  0.7816164E-02  0.1312668E+00
        -11   -1    0    0    0    0  0.00000000000E+00  0.00000000000E+00  0.45593999997E+02  0.45594000000E+02  0.51100000000E-03 0.  1.
         11   -1    0    0    0    0 -0.00000000000E+00 -0.00000000000E+00 -0.45593999997E+02  0.45594000000E+02  0.51100000000E-03 0. -1.
    9900012    2    1    2    0    0 -0.15259275687E+02  0.35951125213E+02 -0.18928658741E+02  0.47787273966E+02  0.20000013320E+02 0.  0.
        -12    1    1    2    0    0  0.15259275687E+02 -0.35951125213E+02  0.18928658741E+02  0.43400726034E+02  0.00000000000E+00 0.  1.
         11    1    3    3    0    0 -0.88396192706E+01  0.16113361602E+02 -0.14407704857E+02  0.23352970914E+02  0.51100000000E-03 0. -1.
        -11    1    3    3    0    0 -0.78192447545E+01  0.19693445019E+02 -0.16695362623E+01  0.21254639890E+02  0.51100000000E-03 0.  1.
        -12    1    3    3    0    0  0.13995883385E+01  0.14431859106E+00 -0.28514176214E+01  0.31796631621E+01  0.00000000000E+00 0.  1.
</event>
<event>
 7    1  0.2714068E-010  0.4778727E+02  0.7816164E-02  0.1312668E+00
        -11   -1    0    0    0    0  0.00000000000E+00  0.00000000000E+00  0.45593999997E+02  0.45594000000E+02  0.51100000000E-03 0.  1.
         11   -1    0    0    0    0 -0.00000000000E+00 -0.00000000000E+00 -0.45593999997E+02  0.45594000000E+02  0.51100000000E-03 0. -1.
    9900012    2    1    2    0    0 -0.23866143455E+02  0.33667014903E+00 -0.36247994045E+02  0.47787271636E+02  0.20000002698E+02 0.  0.
        -12    1    1    2    0    0  0.23866143455E+02 -0.33667014903E+00  0.36247994045E+02  0.43400728364E+02  0.00000000000E+00 0.  1.
         11    1    3    3    0    0  0.88674800342E-01  0.19369593061E+01  0.11669014119E+01  0.22630363983E+01  0.51100000000E-03 0. -1.
        -11    1    3    3    0    0 -0.79832792811E+01 -0.30458041009E+01 -0.66387343798E+01  0.10820465107E+02  0.51100000000E-03 0.  1.
         12    1    3    3    0    0 -0.15971538974E+02  0.14455149438E+01 -0.30776161077E+02  0.34703770131E+02  0.00000000000E+00 0. -1.
</event>
<event>
 7    1  0.2714068E-010  0.4778727E+02  0.7816164E-02  0.1312668E+00
        -11   -1    0    0    0    0  0.00000000000E+00  0.00000000000E+00  0.45593999997E+02  0.45594000000E+02  0.51100000000E-03 0. -1.
         11   -1    0    0    0    0 -0.00000000000E+00 -0.00000000000E+00 -0.45593999997E+02  0.45594000000E+02  0.51100000000E-03 0.  1.
    9900012    2    1    2    0    0  0.40206037085E+02 -0.16271698989E+02 -0.15263744338E+01  0.47787269304E+02  0.19999992063E+02 0.  0.
        -12    1    1    2    0    0 -0.40206037085E+02  0.16271698989E+02  0.15263744338E+01  0.43400730696E+02  0.00000000000E+00 0.  1.
         11    1    3    3    0    0  0.17424684629E+02 -0.62454201817E+01 -0.80575386058E+01  0.20187838822E+02  0.51100000000E-03 0. -1.
        -11    1    3    3    0    0  0.20031497730E+02 -0.11387141119E+02  0.35358410984E+01  0.23311586319E+02  0.51100000000E-03 0.  1.
         12    1    3    3    0    0  0.27498547262E+01  0.13608623119E+01  0.29953230736E+01  0.42878441626E+01  0.00000000000E+00 0. -1.
</event>
<event>
 7    1  0.2714068E-010  0.4778727E+02  0.7816164E-02  0.1312668E+00
        -11   -1    0    0    0    0  0.00000000000E+00  0.00000000000E+00  0.45593999997E+02  0.45594000000E+02  0.51100000000E-03 0.  1.
         11   -1    0    0    0    0 -0.00000000000E+00 -0.00000000000E+00 -0.45593999997E+02  0.45594000000E+02  0.51100000000E-03 0. -1.
    9900012    2    1    2    0    0 -0.22284524003E+01 -0.29558824921E+02 -0.31700686077E+02  0.47787266958E+02  0.19999981369E+02 0.  0.
        -12    1    1    2    0    0  0.22284524003E+01  0.29558824921E+02  0.31700686077E+02  0.43400733042E+02  0.00000000000E+00 0.  1.
         11    1    3    3    0    0 -0.12756684504E+00 -0.30063884161E+01 -0.94697357186E+01  0.99363242423E+01  0.51100000000E-03 0. -1.
        -11    1    3    3    0    0 -0.38348156475E+01 -0.16505248837E+02 -0.21846802774E+02  0.27647998878E+02  0.51100000000E-03 0.  1.
        -12    1    3    3    0    0  0.17339300922E+01 -0.10047187668E+02 -0.38414758413E+00  0.10202943838E+02  0.00000000000E+00 0.  1.
</event>
<event>
 7    1  0.2714068E-010  0.4778727E+02  0.7816164E-02  0.1312668E+00
        -11   -1    0    0    0    0  0.00000000000E+00  0.00000000000E+00  0.45593999997E+02  0.45594000000E+02  0.51100000000E-03 0.  1.
         11   -1    0    0    0    0 -0.00000000000E+00 -0.00000000000E+00 -0.45593999997E+02  0.45594000000E+02  0.51100000000E-03 0. -1.
    9900012    2    1    2    0    0  0.28513730729E+02 -0.21715628983E+02 -0.24474926703E+02  0.47787269369E+02  0.19999992361E+02 0.  0.
        -12    1    1    2    0    0 -0.28513730729E+02  0.21715628983E+02  0.24474926703E+02  0.43400730631E+02  0.00000000000E+00 0.  1.
         11    1    3    3    0    0  0.16029883135E+02 -0.67658441711E+01 -0.17443163961E+02  0.24637324731E+02  0.51100000000E-03 0. -1.
        -11    1    3    3    0    0  0.10707539132E+02 -0.90188487143E+01 -0.29842131929E+00  0.14002859777E+02  0.51100000000E-03 0.  1.
        -12    1    3    3    0    0  0.17763084619E+01 -0.59309360974E+01 -0.67333414222E+01  0.91470848608E+01  0.00000000000E+00 0.  1.
</event>
<event>
 7    1  0.2714068E-010  0.4778727E+02  0.7816164E-02  0.1312668E+00
        -11   -1    0    0    0    0  0.00000000000E+00  0.00000000000E+00  0.45593999997E+02  0.45594000000E+02  0.51100000000E-03 0.  1.
         11   -1    0    0    0    0 -0.00000000000E+00 -0.00000000000E+00 -0.45593999997E+02  0.45594000000E+02  0.51100000000E-03 0. -1.
    9900012    2    1    2    0    0  0.20935940606E+02 -0.33965582912E+02 -0.17077733394E+02  0.47787269483E+02  0.19999992879E+02 0.  0.
        -12    1    1    2    0    0 -0.20935940606E+02  0.33965582912E+02  0.17077733394E+02  0.43400730517E+02  0.00000000000E+00 0.  1.
         11    1    3    3    0    0  0.10123975937E+02 -0.13027862878E+02 -0.67276338572E+01  0.17818000941E+02  0.51100000000E-03 0. -1.
        -11    1    3    3    0    0 -0.20799772986E+01 -0.10921443793E+02 -0.74628668598E+01  0.13390243542E+02  0.51100000000E-03 0.  1.
        -12    1    3    3    0    0  0.12891941968E+02 -0.10016276240E+02 -0.28872326768E+01  0.16579025000E+02  0.00000000000E+00 0.  1.
</event>
<event>
 7    1  0.2714068E-010  0.4778727E+02  0.7816164E-02  0.1312668E+00
        -11   -1    0    0    0    0  0.00000000000E+00  0.00000000000E+00  0.45593999997E+02  0.45594000000E+02  0.51100000000E-03 0.  1.
         11   -1    0    0    0    0 -0.00000000000E+00 -0.00000000000E+00 -0.45593999997E+02  0.45594000000E+02  0.51100000000E-03 0. -1.
    9900012    2    1    2    0    0  0.38760576518E+02 -0.11030777904E+02 -0.16110969850E+02  0.47787266105E+02  0.19999977478E+02 0.  0.
        -12    1    1    2    0    0 -0.38760576518E+02  0.11030777904E+02  0.16110969850E+02  0.43400733895E+02  0.00000000000E+00 0.  1.
         11    1    3    3    0    0  0.16996885434E+02  0.33822670922E+01 -0.12257612804E+02  0.21226938476E+02  0.51100000000E-03 0. -1.
        -11    1    3    3    0    0  0.10332826979E+02 -0.82771591465E+01 -0.10023103583E+01  0.13277172260E+02  0.51100000000E-03 0.  1.
         12    1    3    3    0    0  0.11430864104E+02 -0.61358858498E+01 -0.28510466882E+01  0.13283155369E+02  0.00000000000E+00 0. -1.
</event>
<event>
 7    1  0.2714068E-010  0.4778727E+02  0.7816164E-02  0.1312668E+00
        -11   -1    0    0    0    0  0.00000000000E+00  0.00000000000E+00  0.45593999997E+02  0.45594000000E+02  0.51100000000E-03 0.  1.
         11   -1    0    0    0    0 -0.00000000000E+00 -0.00000000000E+00 -0.45593999997E+02  0.45594000000E+02  0.51100000000E-03 0. -1.
    9900012    2    1    2    0    0  0.12337131052E+02  0.31279423483E+02 -0.27441136961E+02  0.47787272659E+02  0.20000007360E+02 0.  0.
        -12    1    1    2    0    0 -0.12337131052E+02 -0.31279423483E+02  0.27441136961E+02  0.43400727341E+02  0.00000000000E+00 0.  1.
         11    1    3    3    0    0  0.11178923380E+02  0.23680138150E+02 -0.21266014004E+02  0.33733671941E+02  0.51100000000E-03 0. -1.
        -11    1    3    3    0    0  0.40336929068E+00  0.56218531322E+01 -0.89419172286E+01  0.10570043681E+02  0.51100000000E-03 0.  1.
         12    1    3    3    0    0  0.75483838146E+00  0.19774322011E+01  0.27667942715E+01  0.34835570374E+01  0.00000000000E+00 0. -1.
</event>
<event>
 7    1  0.2714068E-010  0.4778726E+02  0.7816164E-02  0.1312668E+00
        -11   -1    0    0    0    0  0.00000000000E+00  0.00000000000E+00  0.45593999997E+02  0.45594000000E+02  0.51100000000E-03 0.  1.
         11   -1    0    0    0    0 -0.00000000000E+00 -0.00000000000E+00 -0.45593999997E+02  0.45594000000E+02  0.51100000000E-03 0. -1.
    9900012    2    1    2    0    0  0.97241796227E+01 -0.42297331955E+02 -0.10191446617E-03  0.47787263141E+02  0.19999963966E+02 0.  0.
        -12    1    1    2    0    0 -0.97241796227E+01  0.42297331955E+02  0.10191446617E-03  0.43400736859E+02  0.00000000000E+00 0.  1.
         11    1    3    3    0    0  0.32093684018E+01 -0.15118205909E+02  0.23757438101E+01  0.15636635008E+02  0.51100000000E-03 0. -1.
        -11    1    3    3    0    0  0.85248170855E+01 -0.10026687195E+02  0.39783013023E+01  0.13748957923E+02  0.51100000000E-03 0.  1.
        -12    1    3    3    0    0 -0.20100058646E+01 -0.17152438851E+02 -0.63541470268E+01  0.18401670211E+02  0.00000000000E+00 0.  1.
</event>
<event>
 7    1  0.2714068E-010  0.4778727E+02  0.7816164E-02  0.1312668E+00
        -11   -1    0    0    0    0  0.00000000000E+00  0.00000000000E+00  0.45593999997E+02  0.45594000000E+02  0.51100000000E-03 0.  1.
         11   -1    0    0    0    0 -0.00000000000E+00 -0.00000000000E+00 -0.45593999997E+02  0.45594000000E+02  0.51100000000E-03 0. -1.
    9900012    2    1    2    0    0 -0.17774037287E+02  0.36838880399E+02 -0.14512195707E+02  0.47787270343E+02  0.19999996802E+02 0.  0.
        -12    1    1    2    0    0  0.17774037287E+02 -0.36838880399E+02  0.14512195707E+02  0.43400729657E+02  0.00000000000E+00 0.  1.
         11    1    3    3    0    0 -0.11191784667E+02  0.96856763338E+01 -0.29145099311E+01  0.15085182746E+02  0.51100000000E-03 0. -1.
        -11    1    3    3    0    0  0.12968059689E+01  0.10447099132E+02 -0.93774735227E+01  0.14098247974E+02  0.51100000000E-03 0.  1.
        -12    1    3    3    0    0 -0.78790585889E+01  0.16706104933E+02 -0.22202122531E+01  0.18603839623E+02  0.00000000000E+00 0.  1.
</event>
<event>
 7    1  0.2714068E-010  0.4778727E+02  0.7816164E-02  0.1312668E+00
        -11   -1    0    0    0    0  0.00000000000E+00  0.00000000000E+00  0.45593999997E+02  0.45594000000E+02  0.51100000000E-03 0.  1.
         11   -1    0    0    0    0 -0.00000000000E+00 -0.00000000000E+00 -0.45593999997E+02  0.45594000000E+02  0.51100000000E-03 0. -1.
    9900012    2    1    2    0    0  0.58651706078E+01  0.21521134967E+02 -0.37229878400E+02  0.47787270488E+02  0.19999997462E+02 0.  0.
        -12    1    1    2    0    0 -0.58651706078E+01 -0.21521134967E+02  0.37229878400E+02  0.43400729512E+02  0.00000000000E+00 0.  1.
         11    1    3    3    0    0  0.74264809968E+01  0.60199295554E+01 -0.15771621778E+02  0.18442782480E+02  0.51100000000E-03 0. -1.
        -11    1    3    3    0    0 -0.43244279107E+01  0.10864449840E+02 -0.63615831147E+01  0.13311900205E+02  0.51100000000E-03 0.  1.
        -12    1    3    3    0    0  0.27631175217E+01  0.46367555715E+01 -0.15096673507E+02  0.16032587803E+02  0.00000000000E+00 0.  1.
</event>
<event>
 7    1  0.2714068E-010  0.4778727E+02  0.7816164E-02  0.1312668E+00
        -11   -1    0    0    0    0  0.00000000000E+00  0.00000000000E+00  0.45593999997E+02  0.45594000000E+02  0.51100000000E-03 0.  1.
         11   -1    0    0    0    0 -0.00000000000E+00 -0.00000000000E+00 -0.45593999997E+02  0.45594000000E+02  0.51100000000E-03 0. -1.
    9900012    2    1    2    0    0 -0.29552671052E+02 -0.29760017540E+02 -0.11162624003E+02  0.47787272070E+02  0.20000004674E+02 0.  0.
        -12    1    1    2    0    0  0.29552671052E+02  0.29760017540E+02  0.11162624003E+02  0.43400727930E+02  0.00000000000E+00 0.  1.
         11    1    3    3    0    0 -0.12301877165E+02 -0.62784867216E+01  0.14754135312E+01  0.13890011614E+02  0.51100000000E-03 0. -1.
        -11    1    3    3    0    0 -0.15949263658E+02 -0.24238201040E+02 -0.13668059386E+02  0.32073123461E+02  0.51100000000E-03 0.  1.
         12    1    3    3    0    0 -0.13015302289E+01  0.75667022166E+00  0.10300218517E+01  0.18241369949E+01  0.00000000000E+00 0. -1.
</event>
<event>
 7    1  0.2714068E-010  0.4778727E+02  0.7816164E-02  0.1312668E+00
        -11   -1    0    0    0    0  0.00000000000E+00  0.00000000000E+00  0.45593999997E+02  0.45594000000E+02  0.51100000000E-03 0. -1.
         11   -1    0    0    0    0 -0.00000000000E+00 -0.00000000000E+00 -0.45593999997E+02  0.45594000000E+02  0.51100000000E-03 0.  1.
    9900012    2    1    2    0    0  0.36435146181E+02 -0.21418571964E+02  0.98665183913E+01  0.47787270889E+02  0.19999999293E+02 0.  0.
        -12    1    1    2    0    0 -0.36435146181E+02  0.21418571964E+02 -0.98665183913E+01  0.43400729111E+02  0.00000000000E+00 0.  1.
         11    1    3    3    0    0  0.22794966429E+02 -0.11809233383E+02  0.12708168417E+02  0.28645523775E+02  0.51100000000E-03 0. -1.
        -11    1    3    3    0    0  0.47806846051E+01  0.11960715603E+01 -0.28167538926E+00  0.49360787835E+01  0.51100000000E-03 0.  1.
         12    1    3    3    0    0  0.88594951470E+01 -0.10805410141E+02 -0.25599746368E+01  0.14205668331E+02  0.00000000000E+00 0. -1.
</event>
<event>
 7    1  0.2714068E-010  0.4778727E+02  0.7816164E-02  0.1312668E+00
        -11   -1    0    0    0    0  0.00000000000E+00  0.00000000000E+00  0.45593999997E+02  0.45594000000E+02  0.51100000000E-03 0.  1.
         11   -1    0    0    0    0 -0.00000000000E+00 -0.00000000000E+00 -0.45593999997E+02  0.45594000000E+02  0.51100000000E-03 0. -1.
    9900012    2    1    2    0    0 -0.23840212654E+02 -0.25454425987E+02 -0.25832917646E+02  0.47787272174E+02  0.20000005150E+02 0.  0.
        -12    1    1    2    0    0  0.23840212654E+02  0.25454425987E+02  0.25832917646E+02  0.43400727826E+02  0.00000000000E+00 0.  1.
         11    1    3    3    0    0 -0.19066173496E+02 -0.81891238585E+01 -0.15580436201E+02  0.25948616800E+02  0.51100000000E-03 0. -1.
        -11    1    3    3    0    0 -0.30720313140E+01 -0.15425382585E+02 -0.11034563968E+02  0.19213053025E+02  0.51100000000E-03 0.  1.
        -12    1    3    3    0    0 -0.17020078435E+01 -0.18399195431E+01  0.78208252288E+00  0.26256023494E+01  0.00000000000E+00 0.  1.
</event>
<event>
 7    1  0.2714068E-010  0.4778727E+02  0.7816164E-02  0.1312668E+00
        -11   -1    0    0    0    0  0.00000000000E+00  0.00000000000E+00  0.45593999997E+02  0.45594000000E+02  0.51100000000E-03 0. -1.
         11   -1    0    0    0    0 -0.00000000000E+00 -0.00000000000E+00 -0.45593999997E+02  0.45594000000E+02  0.51100000000E-03 0.  1.
    9900012    2    1    2    0    0  0.67538495248E+00 -0.42214553364E+02  0.10054784685E+02  0.47787270102E+02  0.19999995704E+02 0.  0.
        -12    1    1    2    0    0 -0.67538495248E+00  0.42214553364E+02 -0.10054784685E+02  0.43400729898E+02  0.00000000000E+00 0.  1.
         11    1    3    3    0    0  0.75890120933E+01 -0.35412671966E+02  0.89074022170E+01  0.37296008565E+02  0.51100000000E-03 0. -1.
        -11    1    3    3    0    0 -0.33528913486E+01 -0.41031999248E+01 -0.12163077194E+01  0.54366841685E+01  0.51100000000E-03 0.  1.
         12    1    3    3    0    0 -0.35607357922E+01 -0.26986814733E+01  0.23636901875E+01  0.50545773689E+01  0.00000000000E+00 0. -1.
</event>
<event>
 7    1  0.2714068E-010  0.4778727E+02  0.7816164E-02  0.1312668E+00
        -11   -1    0    0    0    0  0.00000000000E+00  0.00000000000E+00  0.45593999997E+02  0.45594000000E+02  0.51100000000E-03 0.  1.
         11   -1    0    0    0    0 -0.00000000000E+00 -0.00000000000E+00 -0.45593999997E+02  0.45594000000E+02  0.51100000000E-03 0. -1.
    9900012    2    1    2    0    0  0.19755308301E+02 -0.29320867038E+02 -0.25172164324E+02  0.47787270666E+02  0.19999998276E+02 0.  0.
        -12    1    1    2    0    0 -0.19755308301E+02  0.29320867038E+02  0.25172164324E+02  0.43400729334E+02  0.00000000000E+00 0.  1.
         11    1    3    3    0    0  0.10031270616E+02 -0.26695497735E+02 -0.16572984947E+02  0.32983932752E+02  0.51100000000E-03 0. -1.
        -11    1    3    3    0    0  0.22552862004E+01  0.35480493072E-01 -0.60788364872E+01  0.64838127680E+01  0.51100000000E-03 0.  1.
        -12    1    3    3    0    0  0.74687514845E+01 -0.26608497966E+01 -0.25203428892E+01  0.83195251461E+01  0.00000000000E+00 0.  1.
</event>
<event>
 7    1  0.2714068E-010  0.4778727E+02  0.7816164E-02  0.1312668E+00
        -11   -1    0    0    0    0  0.00000000000E+00  0.00000000000E+00  0.45593999997E+02  0.45594000000E+02  0.51100000000E-03 0.  1.
         11   -1    0    0    0    0 -0.00000000000E+00 -0.00000000000E+00 -0.45593999997E+02  0.45594000000E+02  0.51100000000E-03 0. -1.
    9900012    2    1    2    0    0  0.59450174553E+01  0.23197107593E+02 -0.36196327288E+02  0.47787272559E+02  0.20000006906E+02 0.  0.
        -12    1    1    2    0    0 -0.59450174553E+01 -0.23197107593E+02  0.36196327288E+02  0.43400727441E+02  0.00000000000E+00 0.  1.
         11    1    3    3    0    0  0.21006433865E+01  0.39752827857E+01 -0.67517086833E+01  0.81117905711E+01  0.51100000000E-03 0. -1.
        -11    1    3    3    0    0 -0.42036470482E+01  0.16300338077E+02 -0.24688362020E+02  0.29881212984E+02  0.51100000000E-03 0.  1.
        -12    1    3    3    0    0  0.80480211169E+01  0.29214867308E+01 -0.47562565850E+01  0.97942690038E+01  0.00000000000E+00 0.  1.
</event>
<event>
 7    1  0.2714068E-010  0.4778727E+02  0.7816164E-02  0.1312668E+00
        -11   -1    0    0    0    0  0.00000000000E+00  0.00000000000E+00  0.45593999997E+02  0.45594000000E+02  0.51100000000E-03 0.  1.
         11   -1    0    0    0    0 -0.00000000000E+00 -0.00000000000E+00 -0.45593999997E+02  0.45594000000E+02  0.51100000000E-03 0. -1.
    9900012    2    1    2    0    0  0.99402291654E+01  0.34224305661E+02  0.24769184002E+02  0.47787265790E+02  0.19999976043E+02 0.  0.
        -12    1    1    2    0    0 -0.99402291654E+01 -0.34224305661E+02 -0.24769184002E+02  0.43400734210E+02  0.00000000000E+00 0.  1.
         11    1    3    3    0    0 -0.20095668859E+01  0.43160973070E+01 -0.22824007568E+01  0.52798114084E+01  0.51100000000E-03 0. -1.
        -11    1    3    3    0    0  0.71674464000E+01  0.16131975478E+02  0.18641984507E+02  0.25673653954E+02  0.51100000000E-03 0.  1.
        -12    1    3    3    0    0  0.47823496513E+01  0.13776232876E+02  0.84096002520E+01  0.16833800428E+02  0.00000000000E+00 0.  1.
</event>
<event>
 7    1  0.2714068E-010  0.4778727E+02  0.7816164E-02  0.1312668E+00
        -11   -1    0    0    0    0  0.00000000000E+00  0.00000000000E+00  0.45593999997E+02  0.45594000000E+02  0.51100000000E-03 0.  1.
         11   -1    0    0    0    0 -0.00000000000E+00 -0.00000000000E+00 -0.45593999997E+02  0.45594000000E+02  0.51100000000E-03 0. -1.
    9900012    2    1    2    0    0  0.13942450289E+02 -0.27603614735E+02 -0.30451136154E+02  0.47787272361E+02  0.20000006003E+02 0.  0.
        -12    1    1    2    0    0 -0.13942450289E+02  0.27603614735E+02  0.30451136154E+02  0.43400727639E+02  0.00000000000E+00 0.  1.
         11    1    3    3    0    0  0.60181804590E+01 -0.23282573270E+02 -0.24389651390E+02  0.34251303761E+02  0.51100000000E-03 0. -1.
        -11    1    3    3    0    0  0.97433622911E+00 -0.74621641648E+00  0.19754025242E+01  0.23255935632E+01  0.51100000000E-03 0.  1.
        -12    1    3    3    0    0  0.69499336012E+01 -0.35748250476E+01 -0.80368872885E+01  0.11210375037E+02  0.00000000000E+00 0.  1.
</event>
<event>
 7    1  0.2714068E-010  0.4778727E+02  0.7816164E-02  0.1312668E+00
        -11   -1    0    0    0    0  0.00000000000E+00  0.00000000000E+00  0.45593999997E+02  0.45594000000E+02  0.51100000000E-03 0. -1.
         11   -1    0    0    0    0 -0.00000000000E+00 -0.00000000000E+00 -0.45593999997E+02  0.45594000000E+02  0.51100000000E-03 0.  1.
    9900012    2    1    2    0    0  0.50089989033E+01 -0.25034031649E+02  0.35097449436E+02  0.47787265357E+02  0.19999974068E+02 0.  0.
        -12    1    1    2    0    0 -0.50089989033E+01  0.25034031649E+02 -0.35097449436E+02  0.43400734643E+02  0.00000000000E+00 0.  1.
         11    1    3    3    0    0  0.87174719112E+00 -0.99118464141E+01  0.50840485013E+01  0.11173727754E+02  0.51100000000E-03 0. -1.
        -11    1    3    3    0    0  0.12503824396E+01 -0.14428644660E+02  0.13380355245E+02  0.19717584784E+02  0.51100000000E-03 0.  1.
         12    1    3    3    0    0  0.28868692725E+01 -0.69354057516E+00  0.16633045690E+02  0.16895952819E+02  0.00000000000E+00 0. -1.
</event>
<event>
 7    1  0.2714068E-010  0.4778727E+02  0.7816164E-02  0.1312668E+00
        -11   -1    0    0    0    0  0.00000000000E+00  0.00000000000E+00  0.45593999997E+02  0.45594000000E+02  0.51100000000E-03 0. -1.
         11   -1    0    0    0    0 -0.00000000000E+00 -0.00000000000E+00 -0.45593999997E+02  0.45594000000E+02  0.51100000000E-03 0.  1.
    9900012    2    1    2    0    0  0.43201968739E+02  0.10265512542E+01 -0.40198686172E+01  0.47787271272E+02  0.20000001038E+02 0.  0.
        -12    1    1    2    0    0 -0.43201968739E+02 -0.10265512542E+01  0.40198686172E+01  0.43400728728E+02  0.00000000000E+00 0.  1.
         11    1    3    3    0    0  0.22788378017E+02 -0.69454167772E+00  0.60182505308E+01  0.23579904591E+02  0.51100000000E-03 0. -1.
        -11    1    3    3    0    0  0.16302892507E+02  0.44724826350E+01 -0.64388162619E+01  0.18089935327E+02  0.51100000000E-03 0.  1.
         12    1    3    3    0    0  0.41106982153E+01 -0.27513897030E+01 -0.35993028860E+01  0.61174313548E+01  0.00000000000E+00 0. -1.
</event>
<event>
 7    1  0.2714068E-010  0.4778727E+02  0.7816164E-02  0.1312668E+00
        -11   -1    0    0    0    0  0.00000000000E+00  0.00000000000E+00  0.45593999997E+02  0.45594000000E+02  0.51100000000E-03 0.  1.
         11   -1    0    0    0    0 -0.00000000000E+00 -0.00000000000E+00 -0.45593999997E+02  0.45594000000E+02  0.51100000000E-03 0. -1.
    9900012    2    1    2    0    0 -0.29382621394E+02  0.20538962555E+01 -0.31875795616E+02  0.47787271021E+02  0.19999999891E+02 0.  0.
        -12    1    1    2    0    0  0.29382621394E+02 -0.20538962555E+01  0.31875795616E+02  0.43400728979E+02  0.00000000000E+00 0.  1.
         11    1    3    3    0    0 -0.20631143759E+02 -0.61056147017E+01 -0.26421850150E+02  0.34073989923E+02  0.51100000000E-03 0. -1.
        -11    1    3    3    0    0 -0.89556986756E+01  0.83228672692E+01 -0.55602626080E+01  0.13430978329E+02  0.51100000000E-03 0.  1.
         12    1    3    3    0    0  0.20422104072E+00 -0.16335631201E+00  0.10631714209E+00  0.28230276805E+00  0.00000000000E+00 0. -1.
</event>
<event>
 7    1  0.2714068E-010  0.4778727E+02  0.7816164E-02  0.1312668E+00
        -11   -1    0    0    0    0  0.00000000000E+00  0.00000000000E+00  0.45593999997E+02  0.45594000000E+02  0.51100000000E-03 0.  1.
         11   -1    0    0    0    0 -0.00000000000E+00 -0.00000000000E+00 -0.45593999997E+02  0.45594000000E+02  0.51100000000E-03 0. -1.
    9900012    2    1    2    0    0 -0.11485472259E+02  0.14232032610E+01 -0.41829196114E+02  0.47787271572E+02  0.20000002405E+02 0.  0.
        -12    1    1    2    0    0  0.11485472259E+02 -0.14232032610E+01  0.41829196114E+02  0.43400728428E+02  0.00000000000E+00 0.  1.
         11    1    3    3    0    0 -0.46266908629E+01 -0.91303031014E+00 -0.12160133345E+02  0.13042573976E+02  0.51100000000E-03 0. -1.
        -11    1    3    3    0    0 -0.78540634166E+01  0.56631642899E+01 -0.29734604962E+02  0.31271464220E+02  0.51100000000E-03 0.  1.
        -12    1    3    3    0    0  0.99528202019E+00 -0.33269307187E+01  0.65542193213E-01  0.34732333762E+01  0.00000000000E+00 0.  1.
</event>
<event>
 7    1  0.2714068E-010  0.4778727E+02  0.7816164E-02  0.1312668E+00
        -11   -1    0    0    0    0  0.00000000000E+00  0.00000000000E+00  0.45593999997E+02  0.45594000000E+02  0.51100000000E-03 0.  1.
         11   -1    0    0    0    0 -0.00000000000E+00 -0.00000000000E+00 -0.45593999997E+02  0.45594000000E+02  0.51100000000E-03 0. -1.
    9900012    2    1    2    0    0  0.39229842037E+02  0.15109122906E+02 -0.10786902080E+02  0.47787270078E+02  0.19999995595E+02 0.  0.
        -12    1    1    2    0    0 -0.39229842037E+02 -0.15109122906E+02  0.10786902080E+02  0.43400729922E+02  0.00000000000E+00 0.  1.
         11    1    3    3    0    0  0.14206869304E+02  0.50787822271E+01  0.23920695085E+01  0.15275835857E+02  0.51100000000E-03 0. -1.
        -11    1    3    3    0    0  0.50640040044E+01 -0.22651874756E+01 -0.55797295486E+01  0.78682013798E+01  0.51100000000E-03 0.  1.
        -12    1    3    3    0    0  0.19958968729E+02  0.12295528154E+02 -0.75992420404E+01  0.24643232842E+02  0.00000000000E+00 0.  1.
</event>
<event>
 7    1  0.2714068E-010  0.4778727E+02  0.7816164E-02  0.1312668E+00
        -11   -1    0    0    0    0  0.00000000000E+00  0.00000000000E+00  0.45593999997E+02  0.45594000000E+02  0.51100000000E-03 0.  1.
         11   -1    0    0    0    0 -0.00000000000E+00 -0.00000000000E+00 -0.45593999997E+02  0.45594000000E+02  0.51100000000E-03 0. -1.
    9900012    2    1    2    0    0  0.10314704044E+02 -0.39527075708E+02 -0.14657436984E+02  0.47787270830E+02  0.19999999021E+02 0.  0.
        -12    1    1    2    0    0 -0.10314704044E+02  0.39527075708E+02  0.14657436984E+02  0.43400729170E+02  0.00000000000E+00 0.  1.
         11    1    3    3    0    0  0.40015302196E+01 -0.32394628401E+02 -0.14731290894E+02  0.35811103376E+02  0.51100000000E-03 0. -1.
        -11    1    3    3    0    0  0.44583519259E+00 -0.23200056242E+01 -0.29742885016E+01  0.37983664209E+01  0.51100000000E-03 0.  1.
         12    1    3    3    0    0  0.58673386319E+01 -0.48124416836E+01  0.30481424117E+01  0.81778010334E+01  0.00000000000E+00 0. -1.
</event>
<event>
 7    1  0.2714068E-010  0.4778729E+02  0.7816164E-02  0.1312668E+00
        -11   -1    0    0    0    0  0.00000000000E+00  0.00000000000E+00  0.45593999997E+02  0.45594000000E+02  0.51100000000E-03 0. -1.
         11   -1    0    0    0    0 -0.00000000000E+00 -0.00000000000E+00 -0.45593999997E+02  0.45594000000E+02  0.51100000000E-03 0.  1.
    9900012    2    1    2    0    0  0.15801704186E+02 -0.39850152639E+02  0.67744553090E+01  0.47787288425E+02  0.20000079243E+02 0.  0.
        -12    1    1    2    0    0 -0.15801704186E+02  0.39850152639E+02 -0.67744553090E+01  0.43400711575E+02  0.00000000000E+00 0.  1.
         11    1    3    3    0    0  0.22929835452E+01 -0.12032198307E+02 -0.22721278595E+01  0.12457693803E+02  0.51100000000E-03 0. -1.
        -11    1    3    3    0    0  0.10159239839E+02 -0.28368562181E+02  0.10091898386E+02  0.31777852155E+02  0.51100000000E-03 0.  1.
        -12    1    3    3    0    0  0.33494808012E+01  0.55060784856E+00 -0.10453152173E+01  0.35517424658E+01  0.00000000000E+00 0.  1.
</event>
<event>
 7    1  0.2714068E-010  0.4778728E+02  0.7816164E-02  0.1312668E+00
        -11   -1    0    0    0    0  0.00000000000E+00  0.00000000000E+00  0.45593999997E+02  0.45594000000E+02  0.51100000000E-03 0.  1.
         11   -1    0    0    0    0 -0.00000000000E+00 -0.00000000000E+00 -0.45593999997E+02  0.45594000000E+02  0.51100000000E-03 0. -1.
    9900012    2    1    2    0    0 -0.16642758487E+01 -0.18233784767E+02 -0.39349478389E+02  0.47787283755E+02  0.20000057954E+02 0.  0.
        -12    1    1    2    0    0  0.16642758487E+01  0.18233784767E+02  0.39349478389E+02  0.43400716245E+02  0.00000000000E+00 0.  1.
         11    1    3    3    0    0 -0.62555549790E+01 -0.94491226575E+01 -0.22203722555E+02  0.24928361010E+02  0.51100000000E-03 0. -1.
        -11    1    3    3    0    0  0.19583307333E+01  0.17296227409E+01 -0.45839443314E-01  0.26131887805E+01  0.51100000000E-03 0.  1.
         12    1    3    3    0    0  0.26329483970E+01 -0.10514284851E+02 -0.17099916392E+02  0.20245733965E+02  0.00000000000E+00 0. -1.
</event>
<event>
 7    1  0.2714068E-010  0.4778727E+02  0.7816164E-02  0.1312668E+00
        -11   -1    0    0    0    0  0.00000000000E+00  0.00000000000E+00  0.45593999997E+02  0.45594000000E+02  0.51100000000E-03 0.  1.
         11   -1    0    0    0    0 -0.00000000000E+00 -0.00000000000E+00 -0.45593999997E+02  0.45594000000E+02  0.51100000000E-03 0. -1.
    9900012    2    1    2    0    0  0.40336324765E+02 -0.44062199082E+01 -0.15400957515E+02  0.47787270032E+02  0.19999995383E+02 0.  0.
        -12    1    1    2    0    0 -0.40336324765E+02  0.44062199082E+01  0.15400957515E+02  0.43400729968E+02  0.00000000000E+00 0.  1.
         11    1    3    3    0    0  0.35276622002E+02  0.19704478667E+01 -0.80606548107E+01  0.36239438198E+02  0.51100000000E-03 0. -1.
        -11    1    3    3    0    0  0.23309484008E+01 -0.45984611821E+01 -0.62745058744E+01  0.81208737165E+01  0.51100000000E-03 0.  1.
         12    1    3    3    0    0  0.27287543613E+01 -0.17782065929E+01 -0.10657968302E+01  0.34269581168E+01  0.00000000000E+00 0. -1.
</event>
<event>
 7    1  0.2714068E-010  0.4778727E+02  0.7816164E-02  0.1312668E+00
        -11   -1    0    0    0    0  0.00000000000E+00  0.00000000000E+00  0.45593999997E+02  0.45594000000E+02  0.51100000000E-03 0.  1.
         11   -1    0    0    0    0 -0.00000000000E+00 -0.00000000000E+00 -0.45593999997E+02  0.45594000000E+02  0.51100000000E-03 0. -1.
    9900012    2    1    2    0    0 -0.27483606439E+02 -0.33495520296E+02  0.25149636626E+01  0.47787267921E+02  0.19999985758E+02 0.  0.
        -12    1    1    2    0    0  0.27483606439E+02  0.33495520296E+02 -0.25149636626E+01  0.43400732079E+02  0.00000000000E+00 0.  1.
         11    1    3    3    0    0 -0.14706691162E+02 -0.11641386076E+02  0.41548051010E+01  0.19211221731E+02  0.51100000000E-03 0. -1.
        -11    1    3    3    0    0 -0.79332713630E+01 -0.22210373553E+02 -0.51278493124E+00  0.23590261477E+02  0.51100000000E-03 0.  1.
        -12    1    3    3    0    0 -0.48436439146E+01  0.35623933392E+00 -0.11270565071E+01  0.49857847131E+01  0.00000000000E+00 0.  1.
</event>
<event>
 7    1  0.2714068E-010  0.4778727E+02  0.7816164E-02  0.1312668E+00
        -11   -1    0    0    0    0  0.00000000000E+00  0.00000000000E+00  0.45593999997E+02  0.45594000000E+02  0.51100000000E-03 0.  1.
         11   -1    0    0    0    0 -0.00000000000E+00 -0.00000000000E+00 -0.45593999997E+02  0.45594000000E+02  0.51100000000E-03 0. -1.
    9900012    2    1    2    0    0 -0.37731343513E+02 -0.74963260072E+01 -0.20094141019E+02  0.47787266248E+02  0.19999978131E+02 0.  0.
        -12    1    1    2    0    0  0.37731343513E+02  0.74963260072E+01  0.20094141019E+02  0.43400733752E+02  0.00000000000E+00 0.  1.
         11    1    3    3    0    0 -0.14582496498E+02 -0.11839662538E+02 -0.52804975163E+01  0.19511803284E+02  0.51100000000E-03 0. -1.
        -11    1    3    3    0    0  0.50911456894E-01  0.31010188373E+00  0.17735500196E+00  0.36084652219E+00  0.51100000000E-03 0.  1.
         12    1    3    3    0    0 -0.23199758473E+02  0.40332346474E+01 -0.14990998504E+02  0.27914616441E+02  0.00000000000E+00 0. -1.
</event>
<event>
 7    1  0.2714068E-010  0.4778727E+02  0.7816164E-02  0.1312668E+00
        -11   -1    0    0    0    0  0.00000000000E+00  0.00000000000E+00  0.45593999997E+02  0.45594000000E+02  0.51100000000E-03 0.  1.
         11   -1    0    0    0    0 -0.00000000000E+00 -0.00000000000E+00 -0.45593999997E+02  0.45594000000E+02  0.51100000000E-03 0. -1.
    9900012    2    1    2    0    0  0.41468623918E+01  0.13775278543E+02 -0.40947142861E+02  0.47787271030E+02  0.19999999936E+02 0.  0.
        -12    1    1    2    0    0 -0.41468623918E+01 -0.13775278543E+02  0.40947142861E+02  0.43400728970E+02  0.00000000000E+00 0.  1.
         11    1    3    3    0    0  0.34126660612E+01  0.11778967706E+02 -0.27114163579E+02  0.29758498563E+02  0.51100000000E-03 0. -1.
        -11    1    3    3    0    0 -0.81484695604E+00 -0.41250650421E+01 -0.94473671189E+01  0.10340835697E+02  0.51100000000E-03 0.  1.
        -12    1    3    3    0    0  0.15490432866E+01  0.61213758788E+01 -0.43856121632E+01  0.76879367713E+01  0.00000000000E+00 0.  1.
</event>
<event>
 7    1  0.2714068E-010  0.4778727E+02  0.7816164E-02  0.1312668E+00
        -11   -1    0    0    0    0  0.00000000000E+00  0.00000000000E+00  0.45593999997E+02  0.45594000000E+02  0.51100000000E-03 0. -1.
         11   -1    0    0    0    0 -0.00000000000E+00 -0.00000000000E+00 -0.45593999997E+02  0.45594000000E+02  0.51100000000E-03 0.  1.
    9900012    2    1    2    0    0 -0.76230231792E+01 -0.31396421149E+02  0.28978916795E+02  0.47787270030E+02  0.19999995374E+02 0.  0.
        -12    1    1    2    0    0  0.76230231792E+01  0.31396421149E+02 -0.28978916795E+02  0.43400729970E+02  0.00000000000E+00 0.  1.
         11    1    3    3    0    0 -0.58926914770E+01 -0.66606441549E+01  0.18138999188E+02  0.20201764408E+02  0.51100000000E-03 0. -1.
        -11    1    3    3    0    0  0.25427032618E+00 -0.20100038767E+02  0.10074948918E+02  0.22485124145E+02  0.51100000000E-03 0.  1.
        -12    1    3    3    0    0 -0.19846020283E+01 -0.46357382264E+01  0.76496868916E+00  0.51003814769E+01  0.00000000000E+00 0.  1.
</event>
<event>
 7    1  0.2714068E-010  0.4778727E+02  0.7816164E-02  0.1312668E+00
        -11   -1    0    0    0    0  0.00000000000E+00  0.00000000000E+00  0.45593999997E+02  0.45594000000E+02  0.51100000000E-03 0.  1.
         11   -1    0    0    0    0 -0.00000000000E+00 -0.00000000000E+00 -0.45593999997E+02  0.45594000000E+02  0.51100000000E-03 0. -1.
    9900012    2    1    2    0    0 -0.10125544012E+02  0.35829620576E+02 -0.22301008686E+02  0.47787270276E+02  0.19999996496E+02 0.  0.
        -12    1    1    2    0    0  0.10125544012E+02 -0.35829620576E+02  0.22301008686E+02  0.43400729724E+02  0.00000000000E+00 0.  1.
         11    1    3    3    0    0 -0.15488631960E+00  0.16961779254E+02 -0.91297737461E+01  0.19263403494E+02  0.51100000000E-03 0. -1.
        -11    1    3    3    0    0 -0.81445279025E+01  0.24545324674E+01 -0.65307679617E+01  0.10724224672E+02  0.51100000000E-03 0.  1.
        -12    1    3    3    0    0 -0.18261297898E+01  0.16413308854E+02 -0.66404669786E+01  0.17799642110E+02  0.00000000000E+00 0.  1.
</event>
<event>
 7    1  0.2714068E-010  0.4778725E+02  0.7816164E-02  0.1312668E+00
        -11   -1    0    0    0    0  0.00000000000E+00  0.00000000000E+00  0.45593999997E+02  0.45594000000E+02  0.51100000000E-03 0.  1.
         11   -1    0    0    0    0 -0.00000000000E+00 -0.00000000000E+00 -0.45593999997E+02  0.45594000000E+02  0.51100000000E-03 0. -1.
    9900012    2    1    2    0    0  0.12850379070E+02  0.26449448238E+02 -0.31920522341E+02  0.47787247692E+02  0.19999893528E+02 0.  0.
        -12    1    1    2    0    0 -0.12850379070E+02 -0.26449448238E+02  0.31920522341E+02  0.43400752308E+02  0.00000000000E+00 0.  1.
         11    1    3    3    0    0  0.97461741464E+01  0.23046193113E+02 -0.23594187902E+02  0.34391868669E+02  0.51100000000E-03 0. -1.
        -11    1    3    3    0    0 -0.23653261376E+01 -0.17653407322E+01 -0.26890426474E+01  0.39927617333E+01  0.51100000000E-03 0.  1.
        -12    1    3    3    0    0  0.54695310613E+01  0.51685958575E+01 -0.56372917915E+01  0.94026172905E+01  0.00000000000E+00 0.  1.
</event>
<event>
 7    1  0.2714068E-010  0.4778727E+02  0.7816164E-02  0.1312668E+00
        -11   -1    0    0    0    0  0.00000000000E+00  0.00000000000E+00  0.45593999997E+02  0.45594000000E+02  0.51100000000E-03 0.  1.
         11   -1    0    0    0    0 -0.00000000000E+00 -0.00000000000E+00 -0.45593999997E+02  0.45594000000E+02  0.51100000000E-03 0. -1.
    9900012    2    1    2    0    0  0.14483817771E+02  0.28992642337E+02  0.28866395857E+02  0.47787273086E+02  0.20000009308E+02 0.  0.
        -12    1    1    2    0    0 -0.14483817771E+02 -0.28992642337E+02 -0.28866395857E+02  0.43400726914E+02  0.00000000000E+00 0.  1.
         11    1    3    3    0    0  0.50372849244E+01  0.23009124243E+02  0.13078994814E+02  0.26941680412E+02  0.51100000000E-03 0. -1.
        -11    1    3    3    0    0  0.65842233303E+01  0.49888496456E+01  0.15784395431E+02  0.17815379790E+02  0.51100000000E-03 0.  1.
        -12    1    3    3    0    0  0.28623095164E+01  0.99466844824E+00  0.30056115827E-02  0.30302128841E+01  0.00000000000E+00 0.  1.
</event>
<event>
 7    1  0.2714068E-010  0.4778727E+02  0.7816164E-02  0.1312668E+00
        -11   -1    0    0    0    0  0.00000000000E+00  0.00000000000E+00  0.45593999997E+02  0.45594000000E+02  0.51100000000E-03 0. -1.
         11   -1    0    0    0    0 -0.00000000000E+00 -0.00000000000E+00 -0.45593999997E+02  0.45594000000E+02  0.51100000000E-03 0.  1.
    9900012    2    1    2    0    0 -0.24661560833E+02  0.14391735938E+02  0.32684991874E+02  0.47787270284E+02  0.19999996534E+02 0.  0.
        -12    1    1    2    0    0  0.24661560833E+02 -0.14391735938E+02 -0.32684991874E+02  0.43400729716E+02  0.00000000000E+00 0.  1.
         11    1    3    3    0    0 -0.74940540095E+01  0.25040925212E+01  0.53396566465E+01  0.95364174728E+01  0.51100000000E-03 0. -1.
        -11    1    3    3    0    0 -0.18208349416E+02  0.38318815172E+01  0.19643479281E+02  0.27057227925E+02  0.51100000000E-03 0.  1.
        -12    1    3    3    0    0  0.10408425927E+01  0.80557618995E+01  0.77018559464E+01  0.11193624887E+02  0.00000000000E+00 0.  1.
</event>
<event>
 7    1  0.2714068E-010  0.4778727E+02  0.7816164E-02  0.1312668E+00
        -11   -1    0    0    0    0  0.00000000000E+00  0.00000000000E+00  0.45593999997E+02  0.45594000000E+02  0.51100000000E-03 0. -1.
         11   -1    0    0    0    0 -0.00000000000E+00 -0.00000000000E+00 -0.45593999997E+02  0.45594000000E+02  0.51100000000E-03 0.  1.
    9900012    2    1    2    0    0  0.39123534002E+02 -0.18768569301E+02 -0.84429178880E+00  0.47787274948E+02  0.20000017799E+02 0.  0.
        -12    1    1    2    0    0 -0.39123534002E+02  0.18768569301E+02  0.84429178880E+00  0.43400725052E+02  0.00000000000E+00 0.  1.
         11    1    3    3    0    0  0.21294590174E+02 -0.12254315901E+02  0.71233566426E+00  0.24579162948E+02  0.51100000000E-03 0. -1.
        -11    1    3    3    0    0  0.72675622680E+01  0.32600510226E+01  0.23358376426E+01  0.83006946542E+01  0.51100000000E-03 0.  1.
        -12    1    3    3    0    0  0.10561381560E+02 -0.97743044225E+01 -0.38924650957E+01  0.14907417346E+02  0.00000000000E+00 0.  1.
</event>
<event>
 7    1  0.2714068E-010  0.4778727E+02  0.7816164E-02  0.1312668E+00
        -11   -1    0    0    0    0  0.00000000000E+00  0.00000000000E+00  0.45593999997E+02  0.45594000000E+02  0.51100000000E-03 0.  1.
         11   -1    0    0    0    0 -0.00000000000E+00 -0.00000000000E+00 -0.45593999997E+02  0.45594000000E+02  0.51100000000E-03 0. -1.
    9900012    2    1    2    0    0 -0.13307880468E+02  0.31698922772E+02 -0.26489659053E+02  0.47787269313E+02  0.19999992105E+02 0.  0.
        -12    1    1    2    0    0  0.13307880468E+02 -0.31698922772E+02  0.26489659053E+02  0.43400730687E+02  0.00000000000E+00 0.  1.
         11    1    3    3    0    0  0.34442143025E+01  0.54366204427E+01 -0.88801702118E+01  0.10967081528E+02  0.51100000000E-03 0. -1.
        -11    1    3    3    0    0 -0.76160778647E+00 -0.32265298437E+00  0.43096620655E+00  0.93267545323E+00  0.51100000000E-03 0.  1.
         12    1    3    3    0    0 -0.15990486984E+02  0.26584955314E+02 -0.18040455047E+02  0.35887512331E+02  0.00000000000E+00 0. -1.
</event>
<event>
 7    1  0.2714068E-010  0.4778727E+02  0.7816164E-02  0.1312668E+00
        -11   -1    0    0    0    0  0.00000000000E+00  0.00000000000E+00  0.45593999997E+02  0.45594000000E+02  0.51100000000E-03 0.  1.
         11   -1    0    0    0    0 -0.00000000000E+00 -0.00000000000E+00 -0.45593999997E+02  0.45594000000E+02  0.51100000000E-03 0. -1.
    9900012    2    1    2    0    0  0.52297172497E+01  0.40839565597E+02  0.13726010526E+02  0.47787269296E+02  0.19999992028E+02 0.  0.
        -12    1    1    2    0    0 -0.52297172497E+01 -0.40839565597E+02 -0.13726010526E+02  0.43400730704E+02  0.00000000000E+00 0.  1.
         11    1    3    3    0    0  0.12530330876E+02  0.30138075735E+02  0.10876631285E+02  0.34403690344E+02  0.51100000000E-03 0. -1.
        -11    1    3    3    0    0 -0.41436777166E+01  0.75207140732E+01  0.21018412203E+01  0.88401890232E+01  0.51100000000E-03 0.  1.
         12    1    3    3    0    0 -0.31569359097E+01  0.31807757887E+01  0.74753802012E+00  0.45433899291E+01  0.00000000000E+00 0. -1.
</event>
<event>
 7    1  0.2714068E-010  0.4778727E+02  0.7816164E-02  0.1312668E+00
        -11   -1    0    0    0    0  0.00000000000E+00  0.00000000000E+00  0.45593999997E+02  0.45594000000E+02  0.51100000000E-03 0.  1.
         11   -1    0    0    0    0 -0.00000000000E+00 -0.00000000000E+00 -0.45593999997E+02  0.45594000000E+02  0.51100000000E-03 0. -1.
    9900012    2    1    2    0    0  0.34443150423E+02 -0.82252045171E+01  0.25092600686E+02  0.47787271785E+02  0.20000003376E+02 0.  0.
        -12    1    1    2    0    0 -0.34443150423E+02  0.82252045171E+01 -0.25092600686E+02  0.43400728215E+02  0.00000000000E+00 0.  1.
         11    1    3    3    0    0  0.10000833875E+02  0.28310601399E+01  0.94646785774E+00  0.10436828128E+02  0.51100000000E-03 0.  1.
        -11    1    3    3    0    0  0.10237245223E+02 -0.97620837061E+01  0.10569899497E+02  0.17658489281E+02  0.51100000000E-03 0. -1.
         12    1    3    3    0    0  0.14205071325E+02 -0.12941809508E+01  0.13576233331E+02  0.19691954376E+02  0.00000000000E+00 0. -1.
</event>
<event>
 7    1  0.2714068E-010  0.4778727E+02  0.7816164E-02  0.1312668E+00
        -11   -1    0    0    0    0  0.00000000000E+00  0.00000000000E+00  0.45593999997E+02  0.45594000000E+02  0.51100000000E-03 0.  1.
         11   -1    0    0    0    0 -0.00000000000E+00 -0.00000000000E+00 -0.45593999997E+02  0.45594000000E+02  0.51100000000E-03 0. -1.
    9900012    2    1    2    0    0  0.26701698696E+01  0.19932083594E+02 -0.38460437985E+02  0.47787273583E+02  0.20000011575E+02 0.  0.
        -12    1    1    2    0    0 -0.26701698696E+01 -0.19932083594E+02  0.38460437985E+02  0.43400726417E+02  0.00000000000E+00 0.  1.
         11    1    3    3    0    0  0.37495723198E+01 -0.20671684116E+01 -0.42156330090E+01  0.60086637243E+01  0.51100000000E-03 0. -1.
        -11    1    3    3    0    0  0.16920674568E+00 -0.88762064637E+00 -0.22162576706E+01  0.23933866504E+01  0.51100000000E-03 0.  1.
         12    1    3    3    0    0 -0.12486091958E+01  0.22886872652E+02 -0.32028547305E+02  0.39385223209E+02  0.00000000000E+00 0. -1.
</event>
<event>
 7    1  0.2714068E-010  0.4778727E+02  0.7816164E-02  0.1312668E+00
        -11   -1    0    0    0    0  0.00000000000E+00  0.00000000000E+00  0.45593999997E+02  0.45594000000E+02  0.51100000000E-03 0. -1.
         11   -1    0    0    0    0 -0.00000000000E+00 -0.00000000000E+00 -0.45593999997E+02  0.45594000000E+02  0.51100000000E-03 0.  1.
    9900012    2    1    2    0    0  0.97283391700E+01 -0.42291345384E+02 -0.65202848820E+00  0.47787267074E+02  0.19999981897E+02 0.  0.
        -12    1    1    2    0    0 -0.97283391700E+01  0.42291345384E+02  0.65202848820E+00  0.43400732926E+02  0.00000000000E+00 0.  1.
         11    1    3    3    0    0  0.49049807684E+01 -0.77326894523E+01 -0.42801571526E+00  0.91671435146E+01  0.51100000000E-03 0. -1.
        -11    1    3    3    0    0  0.20586617941E+01 -0.11695677235E+02  0.78281593262E+01  0.14223467688E+02  0.51100000000E-03 0.  1.
        -12    1    3    3    0    0  0.27646966076E+01 -0.22862978696E+02 -0.80521720991E+01  0.24396655871E+02  0.00000000000E+00 0.  1.
</event>
<event>
 7    1  0.2714068E-010  0.4778727E+02  0.7816164E-02  0.1312668E+00
        -11   -1    0    0    0    0  0.00000000000E+00  0.00000000000E+00  0.45593999997E+02  0.45594000000E+02  0.51100000000E-03 0.  1.
         11   -1    0    0    0    0 -0.00000000000E+00 -0.00000000000E+00 -0.45593999997E+02  0.45594000000E+02  0.51100000000E-03 0. -1.
    9900012    2    1    2    0    0  0.33709581750E+02 -0.26809835851E+02 -0.53403990652E+01  0.47787273482E+02  0.20000011113E+02 0.  0.
        -12    1    1    2    0    0 -0.33709581750E+02  0.26809835851E+02  0.53403990652E+01  0.43400726518E+02  0.00000000000E+00 0.  1.
         11    1    3    3    0    0  0.21430785871E+02 -0.15839277489E+02  0.55247748173E+01  0.27215518210E+02  0.51100000000E-03 0.  1.
        -11    1    3    3    0    0  0.51977783751E+01 -0.84285671025E+01 -0.68812787846E+01  0.12058592016E+02  0.51100000000E-03 0. -1.
        -12    1    3    3    0    0  0.70810175046E+01 -0.25419912593E+01 -0.39838950978E+01  0.85131632554E+01  0.00000000000E+00 0.  1.
</event>
<event>
 7    1  0.2714068E-010  0.4778727E+02  0.7816164E-02  0.1312668E+00
        -11   -1    0    0    0    0  0.00000000000E+00  0.00000000000E+00  0.45593999997E+02  0.45594000000E+02  0.51100000000E-03 0. -1.
         11   -1    0    0    0    0 -0.00000000000E+00 -0.00000000000E+00 -0.45593999997E+02  0.45594000000E+02  0.51100000000E-03 0.  1.
    9900012    2    1    2    0    0 -0.18120981846E+02 -0.37986119500E+02  0.10597551293E+02  0.47787270154E+02  0.19999995941E+02 0.  0.
        -12    1    1    2    0    0  0.18120981846E+02  0.37986119500E+02 -0.10597551293E+02  0.43400729846E+02  0.00000000000E+00 0.  1.
         11    1    3    3    0    0 -0.28517873870E+01 -0.95685411614E+01  0.51650138766E+01  0.11241309526E+02  0.51100000000E-03 0. -1.
        -11    1    3    3    0    0 -0.38644871116E+01 -0.10900052892E+01  0.56522351587E+01  0.69332629199E+01  0.51100000000E-03 0.  1.
        -12    1    3    3    0    0 -0.11404707347E+02 -0.27327573050E+02 -0.21969774258E+00  0.29612697708E+02  0.00000000000E+00 0.  1.
</event>
<event>
 7    1  0.2714068E-010  0.4778727E+02  0.7816164E-02  0.1312668E+00
        -11   -1    0    0    0    0  0.00000000000E+00  0.00000000000E+00  0.45593999997E+02  0.45594000000E+02  0.51100000000E-03 0.  1.
         11   -1    0    0    0    0 -0.00000000000E+00 -0.00000000000E+00 -0.45593999997E+02  0.45594000000E+02  0.51100000000E-03 0. -1.
    9900012    2    1    2    0    0 -0.39866718874E+02 -0.43648991176E+01 -0.16589636076E+02  0.47787266790E+02  0.19999980600E+02 0.  0.
        -12    1    1    2    0    0  0.39866718874E+02  0.43648991176E+01  0.16589636076E+02  0.43400733210E+02  0.00000000000E+00 0.  1.
         11    1    3    3    0    0 -0.94642639775E+01 -0.67011639679E+01 -0.89376836612E+01  0.14641040969E+02  0.51100000000E-03 0. -1.
        -11    1    3    3    0    0 -0.63948074410E+01  0.42822965743E+01 -0.43333280053E+01  0.88322906440E+01  0.51100000000E-03 0.  1.
         12    1    3    3    0    0 -0.24007647455E+02 -0.19460317239E+01 -0.33186244095E+01  0.24313935177E+02  0.00000000000E+00 0. -1.
</event>
<event>
 7    1  0.2714068E-010  0.4778725E+02  0.7816164E-02  0.1312668E+00
        -11   -1    0    0    0    0  0.00000000000E+00  0.00000000000E+00  0.45593999997E+02  0.45594000000E+02  0.51100000000E-03 0.  1.
         11   -1    0    0    0    0 -0.00000000000E+00 -0.00000000000E+00 -0.45593999997E+02  0.45594000000E+02  0.51100000000E-03 0. -1.
    9900012    2    1    2    0    0  0.45080867148E+00 -0.42720089474E+02 -0.76430414559E+01  0.47787247059E+02  0.19999890640E+02 0.  0.
        -12    1    1    2    0    0 -0.45080867148E+00  0.42720089474E+02  0.76430414559E+01  0.43400752941E+02  0.00000000000E+00 0.  1.
         11    1    3    3    0    0 -0.36128957731E+01 -0.29225189038E+02  0.12413211074E+01  0.29473811571E+02  0.51100000000E-03 0. -1.
        -11    1    3    3    0    0 -0.19493268201E+01 -0.17315466371E+01 -0.26060008460E+01  0.36863761988E+01  0.51100000000E-03 0.  1.
         12    1    3    3    0    0  0.60130312647E+01 -0.11763353799E+02 -0.62783617174E+01  0.14627059289E+02  0.00000000000E+00 0. -1.
</event>
<event>
 7    1  0.2714068E-010  0.4778727E+02  0.7816164E-02  0.1312668E+00
        -11   -1    0    0    0    0  0.00000000000E+00  0.00000000000E+00  0.45593999997E+02  0.45594000000E+02  0.51100000000E-03 0.  1.
         11   -1    0    0    0    0 -0.00000000000E+00 -0.00000000000E+00 -0.45593999997E+02  0.45594000000E+02  0.51100000000E-03 0. -1.
    9900012    2    1    2    0    0  0.37866238106E+02  0.12003209622E+02 -0.17484128699E+02  0.47787265146E+02  0.19999973107E+02 0.  0.
        -12    1    1    2    0    0 -0.37866238106E+02 -0.12003209622E+02  0.17484128699E+02  0.43400734854E+02  0.00000000000E+00 0.  1.
         11    1    3    3    0    0  0.21815850292E+02  0.28236388550E+01 -0.14159454205E+02  0.26160932781E+02  0.51100000000E-03 0. -1.
        -11    1    3    3    0    0  0.12714190141E+02  0.11618221477E+02 -0.29863497158E+01  0.17480045369E+02  0.51100000000E-03 0.  1.
        -12    1    3    3    0    0  0.33361976725E+01 -0.24386507098E+01 -0.33832477838E+00  0.41462869956E+01  0.00000000000E+00 0.  1.
</event>
<event>
 7    1  0.2714068E-010  0.4778727E+02  0.7816164E-02  0.1312668E+00
        -11   -1    0    0    0    0  0.00000000000E+00  0.00000000000E+00  0.45593999997E+02  0.45594000000E+02  0.51100000000E-03 0.  1.
         11   -1    0    0    0    0 -0.00000000000E+00 -0.00000000000E+00 -0.45593999997E+02  0.45594000000E+02  0.51100000000E-03 0. -1.
    9900012    2    1    2    0    0  0.38065614962E+02 -0.20483447963E+02  0.38807702524E+01  0.47787273501E+02  0.20000011199E+02 0.  0.
        -12    1    1    2    0    0 -0.38065614962E+02  0.20483447963E+02 -0.38807702524E+01  0.43400726499E+02  0.00000000000E+00 0.  1.
         11    1    3    3    0    0  0.74053050051E+01 -0.10642285340E+02 -0.55075553390E+01  0.14086516445E+02  0.51100000000E-03 0. -1.
        -11    1    3    3    0    0  0.27402945708E+02 -0.97478825093E+01  0.80554639999E+01  0.30180012382E+02  0.51100000000E-03 0.  1.
         12    1    3    3    0    0  0.32573642497E+01 -0.93280113586E-01  0.13328615914E+01  0.35207446736E+01  0.00000000000E+00 0. -1.
</event>
<event>
 7    1  0.2714068E-010  0.4778727E+02  0.7816164E-02  0.1312668E+00
        -11   -1    0    0    0    0  0.00000000000E+00  0.00000000000E+00  0.45593999997E+02  0.45594000000E+02  0.51100000000E-03 0.  1.
         11   -1    0    0    0    0 -0.00000000000E+00 -0.00000000000E+00 -0.45593999997E+02  0.45594000000E+02  0.51100000000E-03 0. -1.
    9900012    2    1    2    0    0  0.31308301425E+02 -0.28777596258E+02  0.86754529826E+01  0.47787271101E+02  0.20000000260E+02 0.  0.
        -12    1    1    2    0    0 -0.31308301425E+02  0.28777596258E+02 -0.86754529826E+01  0.43400728899E+02  0.00000000000E+00 0.  1.
         11    1    3    3    0    0  0.16267776229E+02 -0.13266070080E+02  0.43831254602E+01  0.21443902346E+02  0.51100000000E-03 0. -1.
        -11    1    3    3    0    0 -0.21069528140E+01 -0.56257325189E+01  0.23672004220E+01  0.64569152568E+01  0.51100000000E-03 0.  1.
        -12    1    3    3    0    0  0.17147478010E+02 -0.98857936592E+01  0.19251271004E+01  0.19886453498E+02  0.00000000000E+00 0.  1.
</event>
<event>
 7    1  0.2714068E-010  0.4778727E+02  0.7816164E-02  0.1312668E+00
        -11   -1    0    0    0    0  0.00000000000E+00  0.00000000000E+00  0.45593999997E+02  0.45594000000E+02  0.51100000000E-03 0.  1.
         11   -1    0    0    0    0 -0.00000000000E+00 -0.00000000000E+00 -0.45593999997E+02  0.45594000000E+02  0.51100000000E-03 0. -1.
    9900012    2    1    2    0    0  0.16504656458E+02  0.27900738716E+02 -0.28857721503E+02  0.47787274245E+02  0.20000014591E+02 0.  0.
        -12    1    1    2    0    0 -0.16504656458E+02 -0.27900738716E+02  0.28857721503E+02  0.43400725755E+02  0.00000000000E+00 0.  1.
         11    1    3    3    0    0 -0.24233055633E+01  0.24539255981E+01 -0.27987847901E+01  0.44415489704E+01  0.51100000000E-03 0. -1.
        -11    1    3    3    0    0  0.14215785502E+02  0.75058899025E+01 -0.11511595919E+02  0.19772298337E+02  0.51100000000E-03 0.  1.
        -12    1    3    3    0    0  0.47121765197E+01  0.17940923216E+02 -0.14547340794E+02  0.23573426937E+02  0.00000000000E+00 0.  1.
</event>
<event>
 7    1  0.2714068E-010  0.4778727E+02  0.7816164E-02  0.1312668E+00
        -11   -1    0    0    0    0  0.00000000000E+00  0.00000000000E+00  0.45593999997E+02  0.45594000000E+02  0.51100000000E-03 0.  1.
         11   -1    0    0    0    0 -0.00000000000E+00 -0.00000000000E+00 -0.45593999997E+02  0.45594000000E+02  0.51100000000E-03 0. -1.
    9900012    2    1    2    0    0  0.72462998316E+01 -0.34101565120E+02 -0.25849523170E+02  0.47787268981E+02  0.19999990591E+02 0.  0.
        -12    1    1    2    0    0 -0.72462998316E+01  0.34101565120E+02  0.25849523170E+02  0.43400731019E+02  0.00000000000E+00 0.  1.
         11    1    3    3    0    0  0.58428761186E+00 -0.21930233989E+02 -0.13062340117E+02  0.25532357596E+02  0.51100000000E-03 0. -1.
        -11    1    3    3    0    0  0.92162683497E+01 -0.54792401544E+01 -0.96867052734E+01  0.14449703605E+02  0.51100000000E-03 0.  1.
        -12    1    3    3    0    0 -0.25542561300E+01 -0.66920909771E+01 -0.31004777799E+01  0.78052077799E+01  0.00000000000E+00 0.  1.
</event>
<event>
 7    1  0.2714068E-010  0.4778727E+02  0.7816164E-02  0.1312668E+00
        -11   -1    0    0    0    0  0.00000000000E+00  0.00000000000E+00  0.45593999997E+02  0.45594000000E+02  0.51100000000E-03 0. -1.
         11   -1    0    0    0    0 -0.00000000000E+00 -0.00000000000E+00 -0.45593999997E+02  0.45594000000E+02  0.51100000000E-03 0.  1.
    9900012    2    1    2    0    0 -0.20974111980E+02  0.18144328086E+02  0.33384022998E+02  0.47787274123E+02  0.20000014038E+02 0.  0.
        -12    1    1    2    0    0  0.20974111980E+02 -0.18144328086E+02 -0.33384022998E+02  0.43400725877E+02  0.00000000000E+00 0.  1.
         11    1    3    3    0    0 -0.12740460234E+02  0.94422067652E+01  0.26951969267E+02  0.31271124751E+02  0.51100000000E-03 0. -1.
        -11    1    3    3    0    0 -0.23261111576E+01 -0.53314914146E+00 -0.16454248019E+01  0.28987004268E+01  0.51100000000E-03 0.  1.
        -12    1    3    3    0    0 -0.59075405884E+01  0.92352704626E+01  0.80774785333E+01  0.13617448945E+02  0.00000000000E+00 0.  1.
</event>
<event>
 7    1  0.2714068E-010  0.4778727E+02  0.7816164E-02  0.1312668E+00
        -11   -1    0    0    0    0  0.00000000000E+00  0.00000000000E+00  0.45593999997E+02  0.45594000000E+02  0.51100000000E-03 0.  1.
         11   -1    0    0    0    0 -0.00000000000E+00 -0.00000000000E+00 -0.45593999997E+02  0.45594000000E+02  0.51100000000E-03 0. -1.
    9900012    2    1    2    0    0  0.35214901606E+02  0.11741371261E+02  0.22487201744E+02  0.47787270323E+02  0.19999996710E+02 0.  0.
        -12    1    1    2    0    0 -0.35214901606E+02 -0.11741371261E+02 -0.22487201744E+02  0.43400729677E+02  0.00000000000E+00 0.  1.
         11    1    3    3    0    0  0.18283813198E+02  0.21181022226E+01  0.90474468658E+01  0.20509521622E+02  0.51100000000E-03 0. -1.
        -11    1    3    3    0    0  0.57734616529E+01  0.10900127445E+02  0.86668434090E+01  0.15075138895E+02  0.51100000000E-03 0.  1.
        -12    1    3    3    0    0  0.11157626755E+02 -0.12768584059E+01  0.47729114696E+01  0.12202609806E+02  0.00000000000E+00 0.  1.
</event>
<event>
 7    1  0.2714068E-010  0.4778727E+02  0.7816164E-02  0.1312668E+00
        -11   -1    0    0    0    0  0.00000000000E+00  0.00000000000E+00  0.45593999997E+02  0.45594000000E+02  0.51100000000E-03 0.  1.
         11   -1    0    0    0    0 -0.00000000000E+00 -0.00000000000E+00 -0.45593999997E+02  0.45594000000E+02  0.51100000000E-03 0. -1.
    9900012    2    1    2    0    0  0.32515246130E+01 -0.11822649522E+02 -0.41632632041E+02  0.47787268386E+02  0.19999987878E+02 0.  0.
        -12    1    1    2    0    0 -0.32515246130E+01  0.11822649522E+02  0.41632632041E+02  0.43400731614E+02  0.00000000000E+00 0.  1.
         11    1    3    3    0    0  0.11629461295E+01 -0.28109907703E+01 -0.39672710176E+01  0.49993351957E+01  0.51100000000E-03 0. -1.
        -11    1    3    3    0    0 -0.46232312143E+01 -0.17882201616E+01 -0.29703916219E+02  0.30114691385E+02  0.51100000000E-03 0.  1.
        -12    1    3    3    0    0  0.67118096978E+01 -0.72234385899E+01 -0.79614448045E+01  0.12673241805E+02  0.00000000000E+00 0.  1.
</event>
<event>
 7    1  0.2714068E-010  0.4778727E+02  0.7816164E-02  0.1312668E+00
        -11   -1    0    0    0    0  0.00000000000E+00  0.00000000000E+00  0.45593999997E+02  0.45594000000E+02  0.51100000000E-03 0.  1.
         11   -1    0    0    0    0 -0.00000000000E+00 -0.00000000000E+00 -0.45593999997E+02  0.45594000000E+02  0.51100000000E-03 0. -1.
    9900012    2    1    2    0    0 -0.28785568524E+02  0.28655279360E+02 -0.15293436721E+02  0.47787271928E+02  0.20000004029E+02 0.  0.
        -12    1    1    2    0    0  0.28785568524E+02 -0.28655279360E+02  0.15293436721E+02  0.43400728072E+02  0.00000000000E+00 0.  1.
         11    1    3    3    0    0 -0.16575673920E+00  0.81020163183E+01 -0.38893191012E+01  0.89887122020E+01  0.51100000000E-03 0. -1.
        -11    1    3    3    0    0 -0.14546415908E+02  0.62836898997E+01 -0.21987694870E+00  0.15847123419E+02  0.51100000000E-03 0.  1.
        -12    1    3    3    0    0 -0.14073395876E+02  0.14269573142E+02 -0.11184240671E+02  0.22951436307E+02  0.00000000000E+00 0.  1.
</event>
<event>
 7    1  0.2714068E-010  0.4778727E+02  0.7816164E-02  0.1312668E+00
        -11   -1    0    0    0    0  0.00000000000E+00  0.00000000000E+00  0.45593999997E+02  0.45594000000E+02  0.51100000000E-03 0.  1.
         11   -1    0    0    0    0 -0.00000000000E+00 -0.00000000000E+00 -0.45593999997E+02  0.45594000000E+02  0.51100000000E-03 0. -1.
    9900012    2    1    2    0    0  0.94132900754E+01 -0.38648833079E+02 -0.17357455954E+02  0.47787267223E+02  0.19999982576E+02 0.  0.
        -12    1    1    2    0    0 -0.94132900754E+01  0.38648833079E+02  0.17357455954E+02  0.43400732777E+02  0.00000000000E+00 0.  1.
         11    1    3    3    0    0  0.48842708140E+01 -0.86733806738E+01 -0.59810314447E+01  0.11612767590E+02  0.51100000000E-03 0. -1.
        -11    1    3    3    0    0 -0.10138225511E+01  0.12726239399E+01 -0.29014094548E+01  0.33264973986E+01  0.51100000000E-03 0.  1.
        -12    1    3    3    0    0  0.55428418124E+01 -0.31248076345E+02 -0.84750150546E+01  0.32848002234E+02  0.00000000000E+00 0.  1.
</event>
<event>
 7    1  0.2882764E-010  0.4778727E+02  0.7816164E-02  0.1312668E+00
        -11   -1    0    0    0    0  0.00000000000E+00  0.00000000000E+00  0.45593999997E+02  0.45594000000E+02  0.51100000000E-03 0. -1.
         11   -1    0    0    0    0 -0.00000000000E+00 -0.00000000000E+00 -0.45593999997E+02  0.45594000000E+02  0.51100000000E-03 0.  1.
    9900012    2    1    2    0    0  0.22505906812E+02 -0.15126418577E+02  0.33886562312E+02  0.47787268604E+02  0.19999988871E+02 0.  0.
        -12    1    1    2    0    0 -0.22505906812E+02  0.15126418577E+02 -0.33886562312E+02  0.43400731396E+02  0.00000000000E+00 0.  1.
         11    1    3    3    0    0  0.44233282959E+01 -0.48434184880E+01  0.93807621000E+01  0.11446538066E+02  0.51100000000E-03 0. -1.
        -11    1    3    3    0    0  0.43933163705E+01 -0.12045471596E+02  0.14081538602E+02  0.19044273269E+02  0.51100000000E-03 0.  1.
        -12    1    3    3    0    0  0.13689262146E+02  0.17624715067E+01  0.10424261610E+02  0.17296457268E+02  0.00000000000E+00 0.  1.
</event>
<event>
 7    1  0.2714068E-010  0.4778727E+02  0.7816164E-02  0.1312668E+00
        -11   -1    0    0    0    0  0.00000000000E+00  0.00000000000E+00  0.45593999997E+02  0.45594000000E+02  0.51100000000E-03 0. -1.
         11   -1    0    0    0    0 -0.00000000000E+00 -0.00000000000E+00 -0.45593999997E+02  0.45594000000E+02  0.51100000000E-03 0.  1.
    9900012    2    1    2    0    0 -0.92221772043E+01  0.17988679281E+02  0.38405498094E+02  0.47787269378E+02  0.19999992401E+02 0.  0.
        -12    1    1    2    0    0  0.92221772043E+01 -0.17988679281E+02 -0.38405498094E+02  0.43400730622E+02  0.00000000000E+00 0.  1.
         11    1    3    3    0    0  0.43321866835E+01  0.54391742972E+01  0.15112133138E+02  0.16635174383E+02  0.51100000000E-03 0. -1.
        -11    1    3    3    0    0 -0.69288102198E+01  0.51735574604E+01  0.41454755710E+01  0.95895294894E+01  0.51100000000E-03 0.  1.
        -12    1    3    3    0    0 -0.66255536681E+01  0.73759475233E+01  0.19147889385E+02  0.21562565506E+02  0.00000000000E+00 0.  1.
</event>
<event>
 7    1  0.2714068E-010  0.4778727E+02  0.7816164E-02  0.1312668E+00
        -11   -1    0    0    0    0  0.00000000000E+00  0.00000000000E+00  0.45593999997E+02  0.45594000000E+02  0.51100000000E-03 0.  1.
         11   -1    0    0    0    0 -0.00000000000E+00 -0.00000000000E+00 -0.45593999997E+02  0.45594000000E+02  0.51100000000E-03 0. -1.
    9900012    2    1    2    0    0 -0.29517700008E+02  0.19959695881E+02 -0.24777792657E+02  0.47787273250E+02  0.20000010058E+02 0.  0.
        -12    1    1    2    0    0  0.29517700008E+02 -0.19959695881E+02  0.24777792657E+02  0.43400726750E+02  0.00000000000E+00 0.  1.
         11    1    3    3    0    0 -0.91233182317E+01  0.72523592164E+01 -0.56297969306E+01  0.12943193713E+02  0.51100000000E-03 0. -1.
        -11    1    3    3    0    0 -0.13239085149E+02  0.99231791867E+01 -0.27966771473E+01  0.16779876760E+02  0.51100000000E-03 0.  1.
        -12    1    3    3    0    0 -0.71552966278E+01  0.27841574779E+01 -0.16351318579E+02  0.18064202777E+02  0.00000000000E+00 0.  1.
</event>
<event>
 7    1  0.2714068E-010  0.4778728E+02  0.7816164E-02  0.1312668E+00
        -11   -1    0    0    0    0  0.00000000000E+00  0.00000000000E+00  0.45593999997E+02  0.45594000000E+02  0.51100000000E-03 0. -1.
         11   -1    0    0    0    0 -0.00000000000E+00 -0.00000000000E+00 -0.45593999997E+02  0.45594000000E+02  0.51100000000E-03 0.  1.
    9900012    2    1    2    0    0 -0.11622543567E+02 -0.14954002417E+02  0.39050188024E+02  0.47787275444E+02  0.20000020060E+02 0.  0.
        -12    1    1    2    0    0  0.11622543567E+02  0.14954002417E+02 -0.39050188024E+02  0.43400724556E+02  0.00000000000E+00 0.  1.
         11    1    3    3    0    0 -0.65795166735E+01 -0.10914670187E+01  0.24110384861E+02  0.25015834952E+02  0.51100000000E-03 0. -1.
        -11    1    3    3    0    0  0.32412764994E+00 -0.43214435086E+01  0.10508481311E+00  0.43348559158E+01  0.51100000000E-03 0.  1.
         12    1    3    3    0    0 -0.53671545431E+01 -0.95410918895E+01  0.14834718350E+02  0.18436584577E+02  0.00000000000E+00 0. -1.
</event>
<event>
 7    1  0.3573928E-010  0.4778726E+02  0.7816164E-02  0.1312668E+00
        -11   -1    0    0    0    0  0.00000000000E+00  0.00000000000E+00  0.45593999997E+02  0.45594000000E+02  0.51100000000E-03 0. -1.
         11   -1    0    0    0    0 -0.00000000000E+00 -0.00000000000E+00 -0.45593999997E+02  0.45594000000E+02  0.51100000000E-03 0.  1.
    9900012    2    1    2    0    0  0.12289684871E+02  0.80583852677E+01  0.40836869513E+02  0.47787264534E+02  0.19999970317E+02 0.  0.
        -12    1    1    2    0    0 -0.12289684871E+02 -0.80583852677E+01 -0.40836869513E+02  0.43400735466E+02  0.00000000000E+00 0.  1.
         11    1    3    3    0    0  0.18293366067E+00  0.63790125093E+01  0.25819110848E+02  0.26596085249E+02  0.51100000000E-03 0. -1.
        -11    1    3    3    0    0  0.98369519133E+01 -0.12738131500E+01  0.14291395752E+02  0.17396327649E+02  0.51100000000E-03 0.  1.
        -12    1    3    3    0    0  0.22697992971E+01  0.29531859084E+01  0.72636291307E+00  0.37948516361E+01  0.00000000000E+00 0.  1.
</event>
<event>
 7    1  0.2714068E-010  0.4778727E+02  0.7816164E-02  0.1312668E+00
        -11   -1    0    0    0    0  0.00000000000E+00  0.00000000000E+00  0.45593999997E+02  0.45594000000E+02  0.51100000000E-03 0.  1.
         11   -1    0    0    0    0 -0.00000000000E+00 -0.00000000000E+00 -0.45593999997E+02  0.45594000000E+02  0.51100000000E-03 0. -1.
    9900012    2    1    2    0    0  0.39547270202E+02 -0.10269748032E+02 -0.14634508884E+02  0.47787272410E+02  0.20000006227E+02 0.  0.
        -12    1    1    2    0    0 -0.39547270202E+02  0.10269748032E+02  0.14634508884E+02  0.43400727590E+02  0.00000000000E+00 0.  1.
         11    1    3    3    0    0  0.89217229410E+01 -0.71832208311E+01 -0.10227494910E+02  0.15355697774E+02  0.51100000000E-03 0. -1.
        -11    1    3    3    0    0  0.13518505213E+02  0.13371358304E+01  0.18002886479E+01  0.13703246144E+02  0.51100000000E-03 0.  1.
         12    1    3    3    0    0  0.17107042048E+02 -0.44236630314E+01 -0.62073026218E+01  0.18728328492E+02  0.00000000000E+00 0. -1.
</event>
<event>
 7    1  0.2714068E-010  0.4778727E+02  0.7816164E-02  0.1312668E+00
        -11   -1    0    0    0    0  0.00000000000E+00  0.00000000000E+00  0.45593999997E+02  0.45594000000E+02  0.51100000000E-03 0.  1.
         11   -1    0    0    0    0 -0.00000000000E+00 -0.00000000000E+00 -0.45593999997E+02  0.45594000000E+02  0.51100000000E-03 0. -1.
    9900012    2    1    2    0    0 -0.82562536276E+01 -0.27881321467E+02 -0.32219396130E+02  0.47787270770E+02  0.19999998748E+02 0.  0.
        -12    1    1    2    0    0  0.82562536276E+01  0.27881321467E+02  0.32219396130E+02  0.43400729230E+02  0.00000000000E+00 0.  1.
         11    1    3    3    0    0 -0.50219405401E+00 -0.75630940686E+01 -0.16606419245E+02  0.18254472087E+02  0.51100000000E-03 0. -1.
        -11    1    3    3    0    0 -0.81268052327E+01 -0.53836256746E+01 -0.37060014505E+01  0.10428942214E+02  0.51100000000E-03 0.  1.
        -12    1    3    3    0    0  0.37274565918E+00 -0.14934601724E+02 -0.11906975435E+02  0.19103856469E+02  0.00000000000E+00 0.  1.
</event>
<event>
 7    1  0.2714068E-010  0.4778727E+02  0.7816164E-02  0.1312668E+00
        -11   -1    0    0    0    0  0.00000000000E+00  0.00000000000E+00  0.45593999997E+02  0.45594000000E+02  0.51100000000E-03 0. -1.
         11   -1    0    0    0    0 -0.00000000000E+00 -0.00000000000E+00 -0.45593999997E+02  0.45594000000E+02  0.51100000000E-03 0.  1.
    9900012    2    1    2    0    0  0.37896789631E+02  0.15560904870E+02  0.14328804065E+02  0.47787273616E+02  0.20000011726E+02 0.  0.
        -12    1    1    2    0    0 -0.37896789631E+02 -0.15560904870E+02 -0.14328804065E+02  0.43400726384E+02  0.00000000000E+00 0.  1.
         11    1    3    3    0    0  0.30414894273E+02  0.39258862481E+01  0.78050501730E+01  0.31644860324E+02  0.51100000000E-03 0. -1.
        -11    1    3    3    0    0  0.42771773954E+01  0.40295505369E+01  0.44667757857E+00  0.58933051102E+01  0.51100000000E-03 0.  1.
         12    1    3    3    0    0  0.32047179628E+01  0.76054680849E+01  0.60770763138E+01  0.10249108182E+02  0.00000000000E+00 0. -1.
</event>
<event>
 7    1  0.2714068E-010  0.4778727E+02  0.7816164E-02  0.1312668E+00
        -11   -1    0    0    0    0  0.00000000000E+00  0.00000000000E+00  0.45593999997E+02  0.45594000000E+02  0.51100000000E-03 0.  1.
         11   -1    0    0    0    0 -0.00000000000E+00 -0.00000000000E+00 -0.45593999997E+02  0.45594000000E+02  0.51100000000E-03 0. -1.
    9900012    2    1    2    0    0  0.25221257118E+01  0.38936491037E+02 -0.19005574444E+02  0.47787270602E+02  0.19999997981E+02 0.  0.
        -12    1    1    2    0    0 -0.25221257118E+01 -0.38936491037E+02  0.19005574444E+02  0.43400729398E+02  0.00000000000E+00 0.  1.
         11    1    3    3    0    0 -0.30020179810E+01  0.23786889320E+02 -0.17344795375E+02  0.29591724221E+02  0.51100000000E-03 0. -1.
        -11    1    3    3    0    0  0.20989191659E+01  0.10464197603E+02  0.26130539695E+01  0.10987854406E+02  0.51100000000E-03 0.  1.
         12    1    3    3    0    0  0.34252245269E+01  0.46854041140E+01 -0.42738330377E+01  0.72076919749E+01  0.00000000000E+00 0. -1.
</event>
<event>
 7    1  0.2714068E-010  0.4778726E+02  0.7816164E-02  0.1312668E+00
        -11   -1    0    0    0    0  0.00000000000E+00  0.00000000000E+00  0.45593999997E+02  0.45594000000E+02  0.51100000000E-03 0.  1.
         11   -1    0    0    0    0 -0.00000000000E+00 -0.00000000000E+00 -0.45593999997E+02  0.45594000000E+02  0.51100000000E-03 0. -1.
    9900012    2    1    2    0    0  0.12970688353E+02  0.36566613245E+02 -0.19449109958E+02  0.47787264537E+02  0.19999970329E+02 0.  0.
        -12    1    1    2    0    0 -0.12970688353E+02 -0.36566613245E+02  0.19449109958E+02  0.43400735463E+02  0.00000000000E+00 0.  1.
         11    1    3    3    0    0  0.49038540778E+01  0.13651189655E+02 -0.16293415832E+01  0.14596489923E+02  0.51100000000E-03 0. -1.
        -11    1    3    3    0    0  0.40022323695E+01 -0.67546728262E+00 -0.23835558835E+01  0.47069585615E+01  0.51100000000E-03 0.  1.
        -12    1    3    3    0    0  0.40646019053E+01  0.23590890873E+02 -0.15436212491E+02  0.28483816053E+02  0.00000000000E+00 0.  1.
</event>
<event>
 7    1  0.2714068E-010  0.4778727E+02  0.7816164E-02  0.1312668E+00
        -11   -1    0    0    0    0  0.00000000000E+00  0.00000000000E+00  0.45593999997E+02  0.45594000000E+02  0.51100000000E-03 0.  1.
         11   -1    0    0    0    0 -0.00000000000E+00 -0.00000000000E+00 -0.45593999997E+02  0.45594000000E+02  0.51100000000E-03 0. -1.
    9900012    2    1    2    0    0  0.10433137696E+02  0.42114946511E+02  0.10508325680E+01  0.47787270387E+02  0.19999997005E+02 0.  0.
        -12    1    1    2    0    0 -0.10433137696E+02 -0.42114946511E+02 -0.10508325680E+01  0.43400729613E+02  0.00000000000E+00 0.  1.
         11    1    3    3    0    0  0.39648529709E+01  0.30361226425E+02  0.10826897357E+01  0.30638151811E+02  0.51100000000E-03 0. -1.
        -11    1    3    3    0    0  0.31040170991E+01 -0.10781862053E+01  0.18177230145E+01  0.37551997102E+01  0.51100000000E-03 0.  1.
        -12    1    3    3    0    0  0.33642676259E+01  0.12831906292E+02 -0.18495801822E+01  0.13393918866E+02  0.00000000000E+00 0.  1.
</event>
<event>
 7    1  0.2714068E-010  0.4778728E+02  0.7816164E-02  0.1312668E+00
        -11   -1    0    0    0    0  0.00000000000E+00  0.00000000000E+00  0.45593999997E+02  0.45594000000E+02  0.51100000000E-03 0. -1.
         11   -1    0    0    0    0 -0.00000000000E+00 -0.00000000000E+00 -0.45593999997E+02  0.45594000000E+02  0.51100000000E-03 0.  1.
    9900012    2    1    2    0    0  0.10369372785E+02  0.19014363863E+02  0.37610543509E+02  0.47787275259E+02  0.20000019216E+02 0.  0.
        -12    1    1    2    0    0 -0.10369372785E+02 -0.19014363863E+02 -0.37610543509E+02  0.43400724741E+02  0.00000000000E+00 0.  1.
         11    1    3    3    0    0  0.36920814068E+01  0.11511425490E+02  0.29226288743E+02  0.31627841151E+02  0.51100000000E-03 0. -1.
        -11    1    3    3    0    0  0.13771675685E+01  0.48181571959E+01 -0.94452479269E+00  0.50993486468E+01  0.51100000000E-03 0.  1.
        -12    1    3    3    0    0  0.53001238093E+01  0.26847811766E+01  0.93287795582E+01  0.11060085461E+02  0.00000000000E+00 0.  1.
</event>
<event>
 7    1  0.2714068E-010  0.4778726E+02  0.7816164E-02  0.1312668E+00
        -11   -1    0    0    0    0  0.00000000000E+00  0.00000000000E+00  0.45593999997E+02  0.45594000000E+02  0.51100000000E-03 0.  1.
         11   -1    0    0    0    0 -0.00000000000E+00 -0.00000000000E+00 -0.45593999997E+02  0.45594000000E+02  0.51100000000E-03 0. -1.
    9900012    2    1    2    0    0  0.17805478325E+02 -0.27049184941E+02 -0.28895169576E+02  0.47787259348E+02  0.19999946669E+02 0.  0.
        -12    1    1    2    0    0 -0.17805478325E+02  0.27049184941E+02  0.28895169576E+02  0.43400740652E+02  0.00000000000E+00 0.  1.
         11    1    3    3    0    0  0.66811264090E+01 -0.21657561510E+02 -0.25971683668E+02  0.34470505848E+02  0.51100000000E-03 0. -1.
        -11    1    3    3    0    0  0.22884409798E+01 -0.11875115854E+01  0.10122703217E+01  0.27698081790E+01  0.51100000000E-03 0.  1.
         12    1    3    3    0    0  0.88359109363E+01 -0.42041118456E+01 -0.39357562301E+01  0.10546945320E+02  0.00000000000E+00 0. -1.
</event>
<event>
 7    1  0.2714068E-010  0.4778728E+02  0.7816164E-02  0.1312668E+00
        -11   -1    0    0    0    0  0.00000000000E+00  0.00000000000E+00  0.45593999997E+02  0.45594000000E+02  0.51100000000E-03 0.  1.
         11   -1    0    0    0    0 -0.00000000000E+00 -0.00000000000E+00 -0.45593999997E+02  0.45594000000E+02  0.51100000000E-03 0. -1.
    9900012    2    1    2    0    0  0.25745892400E+02  0.34511044550E+02 -0.54551993810E+01  0.47787281438E+02  0.20000047388E+02 0.  0.
        -12    1    1    2    0    0 -0.25745892400E+02 -0.34511044550E+02  0.54551993810E+01  0.43400718562E+02  0.00000000000E+00 0.  1.
         11    1    3    3    0    0  0.16747570171E+02  0.29733773136E+02 -0.88407880047E+01  0.35252487917E+02  0.51100000000E-03 0. -1.
        -11    1    3    3    0    0  0.49195954491E+01  0.55576945393E+01  0.38408688864E+01  0.83571922341E+01  0.51100000000E-03 0.  1.
         12    1    3    3    0    0  0.40787267799E+01 -0.78042312456E+00 -0.45528026266E+00  0.41776012873E+01  0.00000000000E+00 0. -1.
</event>
<event>
 7    1  0.2714068E-010  0.4778726E+02  0.7816164E-02  0.1312668E+00
        -11   -1    0    0    0    0  0.00000000000E+00  0.00000000000E+00  0.45593999997E+02  0.45594000000E+02  0.51100000000E-03 0.  1.
         11   -1    0    0    0    0 -0.00000000000E+00 -0.00000000000E+00 -0.45593999997E+02  0.45594000000E+02  0.51100000000E-03 0. -1.
    9900012    2    1    2    0    0 -0.14411415044E+02 -0.40698612270E+02 -0.44224359210E+01  0.47787264249E+02  0.19999969015E+02 0.  0.
        -12    1    1    2    0    0  0.14411415044E+02  0.40698612270E+02  0.44224359210E+01  0.43400735751E+02  0.00000000000E+00 0.  1.
         11    1    3    3    0    0 -0.11975113096E+02 -0.28205110581E+02  0.15848893514E+01  0.30682950821E+02  0.51100000000E-03 0. -1.
        -11    1    3    3    0    0  0.10089320402E+01 -0.93665015177E+01 -0.76857380389E+01  0.12158119263E+02  0.51100000000E-03 0.  1.
        -12    1    3    3    0    0 -0.34452339882E+01 -0.31270001715E+01  0.16784127664E+01  0.49461941652E+01  0.00000000000E+00 0.  1.
</event>
<event>
 7    1  0.2714068E-010  0.4778728E+02  0.7816164E-02  0.1312668E+00
        -11   -1    0    0    0    0  0.00000000000E+00  0.00000000000E+00  0.45593999997E+02  0.45594000000E+02  0.51100000000E-03 0.  1.
         11   -1    0    0    0    0 -0.00000000000E+00 -0.00000000000E+00 -0.45593999997E+02  0.45594000000E+02  0.51100000000E-03 0. -1.
    9900012    2    1    2    0    0  0.38750760791E+02  0.32979997858E+01 -0.19264583847E+02  0.47787280476E+02  0.20000043002E+02 0.  0.
        -12    1    1    2    0    0 -0.38750760791E+02 -0.32979997858E+01  0.19264583847E+02  0.43400719524E+02  0.00000000000E+00 0.  1.
         11    1    3    3    0    0  0.30452050759E+02  0.29403065757E+01 -0.10773077430E+02  0.32435042713E+02  0.51100000000E-03 0. -1.
        -11    1    3    3    0    0  0.56801379637E+01 -0.35221535248E-01 -0.10560937570E+02  0.11991605833E+02  0.51100000000E-03 0.  1.
        -12    1    3    3    0    0  0.26185720677E+01  0.39291474532E+00  0.20694311535E+01  0.33606319302E+01  0.00000000000E+00 0.  1.
</event>
<event>
 7    1  0.2714068E-010  0.4778727E+02  0.7816164E-02  0.1312668E+00
        -11   -1    0    0    0    0  0.00000000000E+00  0.00000000000E+00  0.45593999997E+02  0.45594000000E+02  0.51100000000E-03 0. -1.
         11   -1    0    0    0    0 -0.00000000000E+00 -0.00000000000E+00 -0.45593999997E+02  0.45594000000E+02  0.51100000000E-03 0.  1.
    9900012    2    1    2    0    0 -0.82243102945E+01  0.34698892170E+02  0.24738045869E+02  0.47787270616E+02  0.19999998049E+02 0.  0.
        -12    1    1    2    0    0  0.82243102945E+01 -0.34698892170E+02 -0.24738045869E+02  0.43400729384E+02  0.00000000000E+00 0.  1.
         11    1    3    3    0    0 -0.46281634954E+01  0.12567515706E+02  0.58248023332E-01  0.13392749586E+02  0.51100000000E-03 0. -1.
        -11    1    3    3    0    0 -0.53043465004E+01  0.88765506301E+01  0.13261275327E+02  0.16816380896E+02  0.51100000000E-03 0.  1.
         12    1    3    3    0    0  0.17081997013E+01  0.13254825833E+02  0.11418522519E+02  0.17578140135E+02  0.00000000000E+00 0. -1.
</event>
<event>
 7    1  0.2714068E-010  0.4778727E+02  0.7816164E-02  0.1312668E+00
        -11   -1    0    0    0    0  0.00000000000E+00  0.00000000000E+00  0.45593999997E+02  0.45594000000E+02  0.51100000000E-03 0.  1.
         11   -1    0    0    0    0 -0.00000000000E+00 -0.00000000000E+00 -0.45593999997E+02  0.45594000000E+02  0.51100000000E-03 0. -1.
    9900012    2    1    2    0    0 -0.72822904536E+01  0.39637037334E+02 -0.16108901188E+02  0.47787272122E+02  0.20000004914E+02 0.  0.
        -12    1    1    2    0    0  0.72822904536E+01 -0.39637037334E+02  0.16108901188E+02  0.43400727878E+02  0.00000000000E+00 0.  1.
         11    1    3    3    0    0 -0.92619331181E+01  0.16877522811E+02 -0.84085608306E+01  0.21008047906E+02  0.51100000000E-03 0. -1.
        -11    1    3    3    0    0 -0.33467953915E+01  0.17482445492E+02 -0.33555065298E+01  0.18113430490E+02  0.51100000000E-03 0.  1.
         12    1    3    3    0    0  0.53264380560E+01  0.52770690303E+01 -0.43448338274E+01  0.86657937261E+01  0.00000000000E+00 0. -1.
</event>
<event>
 7    1  0.2714068E-010  0.4778727E+02  0.7816164E-02  0.1312668E+00
        -11   -1    0    0    0    0  0.00000000000E+00  0.00000000000E+00  0.45593999997E+02  0.45594000000E+02  0.51100000000E-03 0.  1.
         11   -1    0    0    0    0 -0.00000000000E+00 -0.00000000000E+00 -0.45593999997E+02  0.45594000000E+02  0.51100000000E-03 0. -1.
    9900012    2    1    2    0    0 -0.15339291700E+02  0.18604905375E+02 -0.36085827237E+02  0.47787270729E+02  0.19999998561E+02 0.  0.
        -12    1    1    2    0    0  0.15339291700E+02 -0.18604905375E+02  0.36085827237E+02  0.43400729271E+02  0.00000000000E+00 0.  1.
         11    1    3    3    0    0 -0.39709896881E+01  0.54008564267E+01 -0.79833241999E+01  0.10424561132E+02  0.51100000000E-03 0. -1.
        -11    1    3    3    0    0 -0.12280070245E+02  0.11656622449E+02 -0.11055389687E+02  0.20221241642E+02  0.51100000000E-03 0.  1.
        -12    1    3    3    0    0  0.91176823281E+00  0.15474264987E+01 -0.17047113350E+02  0.17141467955E+02  0.00000000000E+00 0.  1.
</event>
<event>
 7    1  0.2714068E-010  0.4778727E+02  0.7816164E-02  0.1312668E+00
        -11   -1    0    0    0    0  0.00000000000E+00  0.00000000000E+00  0.45593999997E+02  0.45594000000E+02  0.51100000000E-03 0. -1.
         11   -1    0    0    0    0 -0.00000000000E+00 -0.00000000000E+00 -0.45593999997E+02  0.45594000000E+02  0.51100000000E-03 0.  1.
    9900012    2    1    2    0    0  0.23614050351E+02 -0.23462726908E+02  0.27847807442E+02  0.47787270660E+02  0.19999998248E+02 0.  0.
        -12    1    1    2    0    0 -0.23614050351E+02  0.23462726908E+02 -0.27847807442E+02  0.43400729340E+02  0.00000000000E+00 0.  1.
         11    1    3    3    0    0  0.97845510501E+01 -0.36519829476E+01  0.57824803634E+01  0.11937817980E+02  0.51100000000E-03 0. -1.
        -11    1    3    3    0    0  0.79004489595E+01 -0.17642260881E+02  0.22325113369E+02  0.29530952405E+02  0.51100000000E-03 0.  1.
        -12    1    3    3    0    0  0.59290503412E+01 -0.21684830794E+01 -0.25978629060E+00  0.63185002755E+01  0.00000000000E+00 0.  1.
</event>
<event>
 7    1  0.2714068E-010  0.4778728E+02  0.7816164E-02  0.1312668E+00
        -11   -1    0    0    0    0  0.00000000000E+00  0.00000000000E+00  0.45593999997E+02  0.45594000000E+02  0.51100000000E-03 0. -1.
         11   -1    0    0    0    0 -0.00000000000E+00 -0.00000000000E+00 -0.45593999997E+02  0.45594000000E+02  0.51100000000E-03 0.  1.
    9900012    2    1    2    0    0  0.30210606383E+02 -0.21696802184E+02  0.22364936146E+02  0.47787281897E+02  0.20000049481E+02 0.  0.
        -12    1    1    2    0    0 -0.30210606383E+02  0.21696802184E+02 -0.22364936146E+02  0.43400718103E+02  0.00000000000E+00 0.  1.
         11    1    3    3    0    0  0.17610431389E+02 -0.28586784759E+01  0.15249407556E+02  0.23470061086E+02  0.51100000000E-03 0. -1.
        -11    1    3    3    0    0  0.48544859582E+01 -0.11772700905E+02  0.32425946679E+01  0.13140659837E+02  0.51100000000E-03 0.  1.
        -12    1    3    3    0    0  0.77456890360E+01 -0.70654228032E+01  0.38729339224E+01  0.11176560974E+02  0.00000000000E+00 0.  1.
</event>
<event>
 7    1  0.2714068E-010  0.4778727E+02  0.7816164E-02  0.1312668E+00
        -11   -1    0    0    0    0  0.00000000000E+00  0.00000000000E+00  0.45593999997E+02  0.45594000000E+02  0.51100000000E-03 0. -1.
         11   -1    0    0    0    0 -0.00000000000E+00 -0.00000000000E+00 -0.45593999997E+02  0.45594000000E+02  0.51100000000E-03 0.  1.
    9900012    2    1    2    0    0  0.26330730773E+01 -0.41961920478E+02  0.10765099315E+02  0.47787271811E+02  0.20000003496E+02 0.  0.
        -12    1    1    2    0    0 -0.26330730773E+01  0.41961920478E+02 -0.10765099315E+02  0.43400728189E+02  0.00000000000E+00 0.  1.
         11    1    3    3    0    0 -0.37701174089E+00 -0.14884014226E+02  0.18262832573E+01  0.15000377599E+02  0.51100000000E-03 0. -1.
        -11    1    3    3    0    0 -0.32005394293E+01 -0.24501450115E+02  0.81396368068E+01  0.26015729818E+02  0.51100000000E-03 0.  1.
        -12    1    3    3    0    0  0.62106242475E+01 -0.25764561379E+01  0.79917925058E+00  0.67711643938E+01  0.00000000000E+00 0.  1.
</event>
<event>
 7    1  0.2714068E-010  0.4778727E+02  0.7816164E-02  0.1312668E+00
        -11   -1    0    0    0    0  0.00000000000E+00  0.00000000000E+00  0.45593999997E+02  0.45594000000E+02  0.51100000000E-03 0. -1.
         11   -1    0    0    0    0 -0.00000000000E+00 -0.00000000000E+00 -0.45593999997E+02  0.45594000000E+02  0.51100000000E-03 0.  1.
    9900012    2    1    2    0    0  0.32099050204E+02 -0.22851958454E+02  0.18195120513E+02  0.47787269135E+02  0.19999991293E+02 0.  0.
        -12    1    1    2    0    0 -0.32099050204E+02  0.22851958454E+02 -0.18195120513E+02  0.43400730865E+02  0.00000000000E+00 0.  1.
         11    1    3    3    0    0  0.30833993212E+01 -0.57301469391E+01  0.10019210940E+02  0.11946820641E+02  0.51100000000E-03 0. -1.
        -11    1    3    3    0    0  0.25417226763E+01 -0.43066343385E+01 -0.85365657638E+00  0.50730842000E+01  0.51100000000E-03 0.  1.
         12    1    3    3    0    0  0.26473928206E+02 -0.12815177176E+02  0.90295661493E+01  0.30767364294E+02  0.00000000000E+00 0. -1.
</event>
<event>
 7    1  0.2714068E-010  0.4778727E+02  0.7816164E-02  0.1312668E+00
        -11   -1    0    0    0    0  0.00000000000E+00  0.00000000000E+00  0.45593999997E+02  0.45594000000E+02  0.51100000000E-03 0. -1.
         11   -1    0    0    0    0 -0.00000000000E+00 -0.00000000000E+00 -0.45593999997E+02  0.45594000000E+02  0.51100000000E-03 0.  1.
    9900012    2    1    2    0    0 -0.16239413512E+02  0.14286255622E+02  0.37627216263E+02  0.47787273570E+02  0.20000011516E+02 0.  0.
        -12    1    1    2    0    0  0.16239413512E+02 -0.14286255622E+02 -0.37627216263E+02  0.43400726430E+02  0.00000000000E+00 0.  1.
         11    1    3    3    0    0 -0.46652270919E+01  0.11801212221E+02  0.20288281622E+02  0.23930050671E+02  0.51100000000E-03 0. -1.
        -11    1    3    3    0    0 -0.12479375533E+02  0.36799674444E+01  0.10116657553E+02  0.16481011328E+02  0.51100000000E-03 0.  1.
         12    1    3    3    0    0  0.90518911340E+00 -0.11949240432E+01  0.72222770881E+01  0.73762115708E+01  0.00000000000E+00 0. -1.
</event>
<event>
 7    1  0.2714068E-010  0.4778727E+02  0.7816164E-02  0.1312668E+00
        -11   -1    0    0    0    0  0.00000000000E+00  0.00000000000E+00  0.45593999997E+02  0.45594000000E+02  0.51100000000E-03 0. -1.
         11   -1    0    0    0    0 -0.00000000000E+00 -0.00000000000E+00 -0.45593999997E+02  0.45594000000E+02  0.51100000000E-03 0.  1.
    9900012    2    1    2    0    0 -0.21802459317E+02 -0.22553383045E+02  0.29993678435E+02  0.47787273449E+02  0.20000010963E+02 0.  0.
        -12    1    1    2    0    0  0.21802459317E+02  0.22553383045E+02 -0.29993678435E+02  0.43400726551E+02  0.00000000000E+00 0.  1.
         11    1    3    3    0    0 -0.19117780356E+02 -0.13639786268E+02  0.28788904243E+02  0.37152850536E+02  0.51100000000E-03 0. -1.
        -11    1    3    3    0    0  0.46004621482E+00 -0.66060248133E+01  0.12220893287E+01  0.67338480040E+01  0.51100000000E-03 0.  1.
         12    1    3    3    0    0 -0.31447251760E+01 -0.23075719646E+01 -0.17315136444E-01  0.39005749087E+01  0.00000000000E+00 0. -1.
</event>
<event>
 7    1  0.2714068E-010  0.4778727E+02  0.7816164E-02  0.1312668E+00
        -11   -1    0    0    0    0  0.00000000000E+00  0.00000000000E+00  0.45593999997E+02  0.45594000000E+02  0.51100000000E-03 0.  1.
         11   -1    0    0    0    0 -0.00000000000E+00 -0.00000000000E+00 -0.45593999997E+02  0.45594000000E+02  0.51100000000E-03 0. -1.
    9900012    2    1    2    0    0 -0.11027146769E+01 -0.34189718678E+01 -0.43251799139E+02  0.47787268704E+02  0.19999989327E+02 0.  0.
        -12    1    1    2    0    0  0.11027146769E+01  0.34189718678E+01  0.43251799139E+02  0.43400731296E+02  0.00000000000E+00 0.  1.
         11    1    3    3    0    0 -0.55977466859E+01  0.42659539470E+01 -0.20951293318E+02  0.22101805877E+02  0.51100000000E-03 0. -1.
        -11    1    3    3    0    0  0.26610803622E+01 -0.28913571910E+01 -0.14117827874E+01  0.41754551847E+01  0.51100000000E-03 0.  1.
        -12    1    3    3    0    0  0.18339516468E+01 -0.47935686238E+01 -0.20888723033E+02  0.21510007642E+02  0.00000000000E+00 0.  1.
</event>
<event>
 7    1  0.2714068E-010  0.4778728E+02  0.7816164E-02  0.1312668E+00
        -11   -1    0    0    0    0  0.00000000000E+00  0.00000000000E+00  0.45593999997E+02  0.45594000000E+02  0.51100000000E-03 0.  1.
         11   -1    0    0    0    0 -0.00000000000E+00 -0.00000000000E+00 -0.45593999997E+02  0.45594000000E+02  0.51100000000E-03 0. -1.
    9900012    2    1    2    0    0 -0.41428308372E+02  0.53305829133E+01 -0.11785714216E+02  0.47787275255E+02  0.20000019199E+02 0.  0.
        -12    1    1    2    0    0  0.41428308372E+02 -0.53305829133E+01  0.11785714216E+02  0.43400724745E+02  0.00000000000E+00 0.  1.
         11    1    3    3    0    0 -0.53195407408E+01 -0.21483935397E+01  0.36677835607E+01  0.68092396788E+01  0.51100000000E-03 0. -1.
        -11    1    3    3    0    0 -0.16078253565E+02 -0.11724334280E+01 -0.70873185551E+01  0.17610080137E+02  0.51100000000E-03 0.  1.
         12    1    3    3    0    0 -0.20030514066E+02  0.86514098810E+01 -0.83661792213E+01  0.23367955440E+02  0.00000000000E+00 0. -1.
</event>
<event>
 7    1  0.2714068E-010  0.4778727E+02  0.7816164E-02  0.1312668E+00
        -11   -1    0    0    0    0  0.00000000000E+00  0.00000000000E+00  0.45593999997E+02  0.45594000000E+02  0.51100000000E-03 0. -1.
         11   -1    0    0    0    0 -0.00000000000E+00 -0.00000000000E+00 -0.45593999997E+02  0.45594000000E+02  0.51100000000E-03 0.  1.
    9900012    2    1    2    0    0  0.11396891731E+02 -0.13134258424E+01  0.41857008376E+02  0.47787269837E+02  0.19999994493E+02 0.  0.
        -12    1    1    2    0    0 -0.11396891731E+02  0.13134258424E+01 -0.41857008376E+02  0.43400730163E+02  0.00000000000E+00 0.  1.
         11    1    3    3    0    0  0.61359630226E+01 -0.19080161046E+01  0.19528790382E+01  0.67159738288E+01  0.51100000000E-03 0. -1.
        -11    1    3    3    0    0  0.20666000059E+01 -0.36876590565E+01  0.14105290857E+02  0.14725111047E+02  0.51100000000E-03 0.  1.
         12    1    3    3    0    0  0.31943287020E+01  0.42822493188E+01  0.25798838480E+02  0.26346184961E+02  0.00000000000E+00 0. -1.
</event>
<event>
 7    1  0.2714068E-010  0.4778727E+02  0.7816164E-02  0.1312668E+00
        -11   -1    0    0    0    0  0.00000000000E+00  0.00000000000E+00  0.45593999997E+02  0.45594000000E+02  0.51100000000E-03 0.  1.
         11   -1    0    0    0    0 -0.00000000000E+00 -0.00000000000E+00 -0.45593999997E+02  0.45594000000E+02  0.51100000000E-03 0. -1.
    9900012    2    1    2    0    0 -0.13329551276E+02 -0.26419158590E+02 -0.31748615058E+02  0.47787269178E+02  0.19999991489E+02 0.  0.
        -12    1    1    2    0    0  0.13329551276E+02  0.26419158590E+02  0.31748615058E+02  0.43400730822E+02  0.00000000000E+00 0.  1.
         11    1    3    3    0    0 -0.53130987143E+01 -0.75871483308E+01 -0.20497393269E+02  0.22493042676E+02  0.51100000000E-03 0. -1.
        -11    1    3    3    0    0 -0.78366851503E+01 -0.18259784860E+02 -0.12798025109E+02  0.23635203072E+02  0.51100000000E-03 0.  1.
         12    1    3    3    0    0 -0.17976741097E+00 -0.57222539864E+00  0.15468033200E+01  0.16590234295E+01  0.00000000000E+00 0. -1.
</event>
<event>
 7    1  0.2714068E-010  0.4778727E+02  0.7816164E-02  0.1312668E+00
        -11   -1    0    0    0    0  0.00000000000E+00  0.00000000000E+00  0.45593999997E+02  0.45594000000E+02  0.51100000000E-03 0. -1.
         11   -1    0    0    0    0 -0.00000000000E+00 -0.00000000000E+00 -0.45593999997E+02  0.45594000000E+02  0.51100000000E-03 0.  1.
    9900012    2    1    2    0    0 -0.24417164821E+02  0.33836005646E+02  0.11939432952E+02  0.47787271029E+02  0.19999999931E+02 0.  0.
        -12    1    1    2    0    0  0.24417164821E+02 -0.33836005646E+02 -0.11939432952E+02  0.43400728971E+02  0.00000000000E+00 0.  1.
         11    1    3    3    0    0 -0.11729458496E+01  0.64110601782E+01  0.29506409370E+01  0.71542838059E+01  0.51100000000E-03 0. -1.
        -11    1    3    3    0    0 -0.27742117462E+01 -0.46720629631E+00  0.50909029384E+01  0.58165131759E+01  0.51100000000E-03 0.  1.
        -12    1    3    3    0    0 -0.20470007225E+02  0.27892151764E+02  0.38978890764E+01  0.34816474047E+02  0.00000000000E+00 0.  1.
</event>
<event>
 7    1  0.2714068E-010  0.4778727E+02  0.7816164E-02  0.1312668E+00
        -11   -1    0    0    0    0  0.00000000000E+00  0.00000000000E+00  0.45593999997E+02  0.45594000000E+02  0.51100000000E-03 0.  1.
         11   -1    0    0    0    0 -0.00000000000E+00 -0.00000000000E+00 -0.45593999997E+02  0.45594000000E+02  0.51100000000E-03 0. -1.
    9900012    2    1    2    0    0 -0.17814070763E+02 -0.12214186476E+02 -0.37644335285E+02  0.47787269044E+02  0.19999990881E+02 0.  0.
        -12    1    1    2    0    0  0.17814070763E+02  0.12214186476E+02  0.37644335285E+02  0.43400730956E+02  0.00000000000E+00 0.  1.
         11    1    3    3    0    0 -0.72974957691E+01 -0.80124290438E+00 -0.29390122458E+01  0.79077953902E+01  0.51100000000E-03 0.  1.
        -11    1    3    3    0    0 -0.99690066548E+00 -0.32759654265E+01 -0.21146890696E+02  0.21422342234E+02  0.51100000000E-03 0. -1.
        -12    1    3    3    0    0 -0.95196743287E+01 -0.81369781447E+01 -0.13558432343E+02  0.18457131420E+02  0.00000000000E+00 0.  1.
</event>
<event>
 7    1  0.2714068E-010  0.4778726E+02  0.7816164E-02  0.1312668E+00
        -11   -1    0    0    0    0  0.00000000000E+00  0.00000000000E+00  0.45593999997E+02  0.45594000000E+02  0.51100000000E-03 0.  1.
         11   -1    0    0    0    0 -0.00000000000E+00 -0.00000000000E+00 -0.45593999997E+02  0.45594000000E+02  0.51100000000E-03 0. -1.
    9900012    2    1    2    0    0 -0.33932240081E+02 -0.26806364157E+02 -0.36940319619E+01  0.47787263274E+02  0.19999964572E+02 0.  0.
        -12    1    1    2    0    0  0.33932240081E+02  0.26806364157E+02  0.36940319619E+01  0.43400736726E+02  0.00000000000E+00 0.  1.
         11    1    3    3    0    0 -0.22015119054E+02 -0.59571991839E+01 -0.73958888410E+00  0.22818866779E+02  0.51100000000E-03 0. -1.
        -11    1    3    3    0    0 -0.43186797050E+01 -0.83555044202E+01  0.18314912592E+01  0.95822653378E+01  0.51100000000E-03 0.  1.
         12    1    3    3    0    0 -0.75984413219E+01 -0.12493660553E+02 -0.47859343370E+01  0.15386131158E+02  0.00000000000E+00 0. -1.
</event>
<event>
 7    1  0.2714068E-010  0.4778728E+02  0.7816164E-02  0.1312668E+00
        -11   -1    0    0    0    0  0.00000000000E+00  0.00000000000E+00  0.45593999997E+02  0.45594000000E+02  0.51100000000E-03 0.  1.
         11   -1    0    0    0    0 -0.00000000000E+00 -0.00000000000E+00 -0.45593999997E+02  0.45594000000E+02  0.51100000000E-03 0. -1.
    9900012    2    1    2    0    0 -0.28451118451E+02 -0.12964552802E+02 -0.30101113451E+02  0.47787276487E+02  0.20000024815E+02 0.  0.
        -12    1    1    2    0    0  0.28451118451E+02  0.12964552802E+02  0.30101113451E+02  0.43400723513E+02  0.00000000000E+00 0.  1.
         11    1    3    3    0    0 -0.58333504883E+01  0.43043941836E+00  0.10313061561E+01  0.59394316783E+01  0.51100000000E-03 0. -1.
        -11    1    3    3    0    0 -0.10483205489E+01  0.14563282879E+00  0.55465727892E+00  0.11949183454E+01  0.51100000000E-03 0.  1.
         12    1    3    3    0    0 -0.21569447414E+02 -0.13540625049E+02 -0.31687076886E+02  0.40652926463E+02  0.00000000000E+00 0. -1.
</event>
<event>
 7    1  0.2714068E-010  0.4778727E+02  0.7816164E-02  0.1312668E+00
        -11   -1    0    0    0    0  0.00000000000E+00  0.00000000000E+00  0.45593999997E+02  0.45594000000E+02  0.51100000000E-03 0.  1.
         11   -1    0    0    0    0 -0.00000000000E+00 -0.00000000000E+00 -0.45593999997E+02  0.45594000000E+02  0.51100000000E-03 0. -1.
    9900012    2    1    2    0    0 -0.47184779307E+01  0.39224289042E+02 -0.17967035007E+02  0.47787271530E+02  0.20000002213E+02 0.  0.
        -12    1    1    2    0    0  0.47184779307E+01 -0.39224289042E+02  0.17967035007E+02  0.43400728470E+02  0.00000000000E+00 0.  1.
         11    1    3    3    0    0  0.61592480845E+01  0.18784463913E+02 -0.48516995936E+01  0.20355132293E+02  0.51100000000E-03 0. -1.
        -11    1    3    3    0    0 -0.60198799853E+01  0.83596108419E+01 -0.92632935768E+01  0.13853904021E+02  0.51100000000E-03 0.  1.
        -12    1    3    3    0    0 -0.48578460299E+01  0.12080214287E+02 -0.38520418362E+01  0.13578235216E+02  0.00000000000E+00 0.  1.
</event>
<event>
 7    1  0.2714068E-010  0.4778727E+02  0.7816164E-02  0.1312668E+00
        -11   -1    0    0    0    0  0.00000000000E+00  0.00000000000E+00  0.45593999997E+02  0.45594000000E+02  0.51100000000E-03 0.  1.
         11   -1    0    0    0    0 -0.00000000000E+00 -0.00000000000E+00 -0.45593999997E+02  0.45594000000E+02  0.51100000000E-03 0. -1.
    9900012    2    1    2    0    0 -0.90124317601E+01 -0.41277347846E+02 -0.99287415031E+01  0.47787270982E+02  0.19999999716E+02 0.  0.
        -12    1    1    2    0    0  0.90124317601E+01  0.41277347846E+02  0.99287415031E+01  0.43400729018E+02  0.00000000000E+00 0.  1.
         11    1    3    3    0    0 -0.11542259747E+02 -0.29709181314E+02 -0.13876947937E+01  0.31902741442E+02  0.51100000000E-03 0. -1.
        -11    1    3    3    0    0  0.32612456670E+01 -0.41438411879E+01 -0.60357730480E+01  0.80148424588E+01  0.51100000000E-03 0.  1.
         12    1    3    3    0    0 -0.73141768033E+00 -0.74243253447E+01 -0.25052736614E+01  0.78696870818E+01  0.00000000000E+00 0. -1.
</event>
<event>
 7    1  0.2714068E-010  0.4778726E+02  0.7816164E-02  0.1312668E+00
        -11   -1    0    0    0    0  0.00000000000E+00  0.00000000000E+00  0.45593999997E+02  0.45594000000E+02  0.51100000000E-03 0.  1.
         11   -1    0    0    0    0 -0.00000000000E+00 -0.00000000000E+00 -0.45593999997E+02  0.45594000000E+02  0.51100000000E-03 0. -1.
    9900012    2    1    2    0    0  0.25334913545E+02  0.20457723466E+02 -0.28692304863E+02  0.47787255167E+02  0.19999927607E+02 0.  0.
        -12    1    1    2    0    0 -0.25334913545E+02 -0.20457723466E+02  0.28692304863E+02  0.43400744833E+02  0.00000000000E+00 0.  1.
         11    1    3    3    0    0  0.22512853246E+02  0.14616984839E+02 -0.20520222940E+02  0.33787044216E+02  0.51100000000E-03 0. -1.
        -11    1    3    3    0    0 -0.72552203097E+00 -0.26303299094E+00  0.16979974859E+01  0.18651445775E+01  0.51100000000E-03 0.  1.
        -12    1    3    3    0    0  0.35475823293E+01  0.61037716177E+01 -0.98700794087E+01  0.12135066373E+02  0.00000000000E+00 0.  1.
</event>
<event>
 7    1  0.2714068E-010  0.4778727E+02  0.7816164E-02  0.1312668E+00
        -11   -1    0    0    0    0  0.00000000000E+00  0.00000000000E+00  0.45593999997E+02  0.45594000000E+02  0.51100000000E-03 0.  1.
         11   -1    0    0    0    0 -0.00000000000E+00 -0.00000000000E+00 -0.45593999997E+02  0.45594000000E+02  0.51100000000E-03 0. -1.
    9900012    2    1    2    0    0 -0.24697805440E+02 -0.18867205782E+02 -0.30293072819E+02  0.47787270646E+02  0.19999998185E+02 0.  0.
        -12    1    1    2    0    0  0.24697805440E+02  0.18867205782E+02  0.30293072819E+02  0.43400729354E+02  0.00000000000E+00 0.  1.
         11    1    3    3    0    0 -0.22280121886E+02 -0.11901201110E+02 -0.16749110542E+02  0.30308004278E+02  0.51100000000E-03 0. -1.
        -11    1    3    3    0    0 -0.12292557929E+01 -0.49223932666E+01 -0.14155621249E+02  0.15037374720E+02  0.51100000000E-03 0.  1.
        -12    1    3    3    0    0 -0.11884277614E+01 -0.20436114057E+01  0.61165897211E+00  0.24418916478E+01  0.00000000000E+00 0.  1.
</event>
<event>
 7    1  0.2714068E-010  0.4778728E+02  0.7816164E-02  0.1312668E+00
        -11   -1    0    0    0    0  0.00000000000E+00  0.00000000000E+00  0.45593999997E+02  0.45594000000E+02  0.51100000000E-03 0.  1.
         11   -1    0    0    0    0 -0.00000000000E+00 -0.00000000000E+00 -0.45593999997E+02  0.45594000000E+02  0.51100000000E-03 0. -1.
    9900012    2    1    2    0    0  0.12420994848E+02 -0.29070192602E+01 -0.41483621814E+02  0.47787277048E+02  0.20000027371E+02 0.  0.
        -12    1    1    2    0    0 -0.12420994848E+02  0.29070192602E+01  0.41483621814E+02  0.43400722952E+02  0.00000000000E+00 0.  1.
         11    1    3    3    0    0  0.10687293763E+01  0.27189068174E+01 -0.24716823695E+02  0.24888873229E+02  0.51100000000E-03 0. -1.
        -11    1    3    3    0    0  0.95973724569E+01 -0.59024041734E+01 -0.76705760290E+01  0.13630321712E+02  0.51100000000E-03 0.  1.
        -12    1    3    3    0    0  0.17548930147E+01  0.27647809582E+00 -0.90962220897E+01  0.92680821067E+01  0.00000000000E+00 0.  1.
</event>
<event>
 7    1  0.2714068E-010  0.4778727E+02  0.7816164E-02  0.1312668E+00
        -11   -1    0    0    0    0  0.00000000000E+00  0.00000000000E+00  0.45593999997E+02  0.45594000000E+02  0.51100000000E-03 0.  1.
         11   -1    0    0    0    0 -0.00000000000E+00 -0.00000000000E+00 -0.45593999997E+02  0.45594000000E+02  0.51100000000E-03 0. -1.
    9900012    2    1    2    0    0 -0.27083357149E+02 -0.15000892945E+02 -0.30415263902E+02  0.47787270722E+02  0.19999998529E+02 0.  0.
        -12    1    1    2    0    0  0.27083357149E+02  0.15000892945E+02  0.30415263902E+02  0.43400729278E+02  0.00000000000E+00 0.  1.
         11    1    3    3    0    0 -0.86518969144E+01  0.37595427258E+01 -0.87209164371E+01  0.12846939927E+02  0.51100000000E-03 0.  1.
        -11    1    3    3    0    0 -0.15810426106E+02 -0.14163526920E+02 -0.20512278021E+02  0.29518276005E+02  0.51100000000E-03 0. -1.
        -12    1    3    3    0    0 -0.26210341291E+01 -0.45969087511E+01 -0.11820694444E+01  0.54220547898E+01  0.00000000000E+00 0.  1.
</event>
<event>
 7    1  0.2714068E-010  0.4778727E+02  0.7816164E-02  0.1312668E+00
        -11   -1    0    0    0    0  0.00000000000E+00  0.00000000000E+00  0.45593999997E+02  0.45594000000E+02  0.51100000000E-03 0.  1.
         11   -1    0    0    0    0 -0.00000000000E+00 -0.00000000000E+00 -0.45593999997E+02  0.45594000000E+02  0.51100000000E-03 0. -1.
    9900012    2    1    2    0    0 -0.24603384419E+02 -0.27756480971E+02 -0.22536077225E+02  0.47787268009E+02  0.19999986159E+02 0.  0.
        -12    1    1    2    0    0  0.24603384419E+02  0.27756480971E+02  0.22536077225E+02  0.43400731991E+02  0.00000000000E+00 0.  1.
         11    1    3    3    0    0 -0.15085156587E+01 -0.14443054052E+01  0.16644488277E+01  0.26705856581E+01  0.51100000000E-03 0. -1.
        -11    1    3    3    0    0 -0.14630483231E+02 -0.78355058547E+01 -0.54595764846E+01  0.17471495849E+02  0.51100000000E-03 0.  1.
        -12    1    3    3    0    0 -0.84643855291E+01 -0.18476669711E+02 -0.18740949568E+02  0.27645186501E+02  0.00000000000E+00 0.  1.
</event>
<event>
 7    1  0.2714068E-010  0.4778727E+02  0.7816164E-02  0.1312668E+00
        -11   -1    0    0    0    0  0.00000000000E+00  0.00000000000E+00  0.45593999997E+02  0.45594000000E+02  0.51100000000E-03 0.  1.
         11   -1    0    0    0    0 -0.00000000000E+00 -0.00000000000E+00 -0.45593999997E+02  0.45594000000E+02  0.51100000000E-03 0. -1.
    9900012    2    1    2    0    0  0.75484063086E+01 -0.19443027694E+02 -0.38060661728E+02  0.47787265733E+02  0.19999975784E+02 0.  0.
        -12    1    1    2    0    0 -0.75484063086E+01  0.19443027694E+02  0.38060661728E+02  0.43400734267E+02  0.00000000000E+00 0.  1.
         11    1    3    3    0    0  0.82292738765E+01 -0.56738602206E+01 -0.28872846253E+02  0.30554130479E+02  0.51100000000E-03 0. -1.
        -11    1    3    3    0    0  0.61715723908E+00 -0.99102840764E+01 -0.41653482533E+01  0.10767763921E+02  0.51100000000E-03 0.  1.
         12    1    3    3    0    0 -0.12980248070E+01 -0.38588833970E+01 -0.50224672221E+01  0.64653713326E+01  0.00000000000E+00 0. -1.
</event>
<event>
 7    1  0.2714068E-010  0.4778727E+02  0.7816164E-02  0.1312668E+00
        -11   -1    0    0    0    0  0.00000000000E+00  0.00000000000E+00  0.45593999997E+02  0.45594000000E+02  0.51100000000E-03 0. -1.
         11   -1    0    0    0    0 -0.00000000000E+00 -0.00000000000E+00 -0.45593999997E+02  0.45594000000E+02  0.51100000000E-03 0.  1.
    9900012    2    1    2    0    0 -0.12865666757E+02  0.66648447995E+01  0.40910605747E+02  0.47787271897E+02  0.20000003888E+02 0.  0.
        -12    1    1    2    0    0  0.12865666757E+02 -0.66648447995E+01 -0.40910605747E+02  0.43400728103E+02  0.00000000000E+00 0.  1.
         11    1    3    3    0    0  0.15647040559E+01  0.26055868210E+01  0.15296860428E+02  0.15595875118E+02  0.51100000000E-03 0. -1.
        -11    1    3    3    0    0 -0.76355497317E+01  0.26815497792E+01  0.31535126559E+01  0.86854459446E+01  0.51100000000E-03 0.  1.
        -12    1    3    3    0    0 -0.67948210809E+01  0.13777081993E+01  0.22460232662E+02  0.23505950835E+02  0.00000000000E+00 0.  1.
</event>
<event>
 7    1  0.2714068E-010  0.4778728E+02  0.7816164E-02  0.1312668E+00
        -11   -1    0    0    0    0  0.00000000000E+00  0.00000000000E+00  0.45593999997E+02  0.45594000000E+02  0.51100000000E-03 0. -1.
         11   -1    0    0    0    0 -0.00000000000E+00 -0.00000000000E+00 -0.45593999997E+02  0.45594000000E+02  0.51100000000E-03 0.  1.
    9900012    2    1    2    0    0  0.29430200531E+01  0.43300816916E+02  0.28332731678E-01  0.47787275174E+02  0.20000018830E+02 0.  0.
        -12    1    1    2    0    0 -0.29430200531E+01 -0.43300816916E+02 -0.28332731678E-01  0.43400724826E+02  0.00000000000E+00 0.  1.
         11    1    3    3    0    0 -0.24134174887E+01  0.81401598557E+01  0.54195410024E+01  0.10072646692E+02  0.51100000000E-03 0. -1.
        -11    1    3    3    0    0  0.23723585095E+01  0.27880289821E+02 -0.85165851738E+01  0.29248433611E+02  0.51100000000E-03 0.  1.
         12    1    3    3    0    0  0.29840790324E+01  0.72803672397E+01  0.31253769031E+01  0.84661948715E+01  0.00000000000E+00 0. -1.
</event>
<event>
 7    1  0.2714068E-010  0.4778728E+02  0.7816164E-02  0.1312668E+00
        -11   -1    0    0    0    0  0.00000000000E+00  0.00000000000E+00  0.45593999997E+02  0.45594000000E+02  0.51100000000E-03 0.  1.
         11   -1    0    0    0    0 -0.00000000000E+00 -0.00000000000E+00 -0.45593999997E+02  0.45594000000E+02  0.51100000000E-03 0. -1.
    9900012    2    1    2    0    0  0.15321099333E+01 -0.15973925631E+02 -0.40325042077E+02  0.47787277892E+02  0.20000031223E+02 0.  0.
        -12    1    1    2    0    0 -0.15321099333E+01  0.15973925631E+02  0.40325042077E+02  0.43400722108E+02  0.00000000000E+00 0.  1.
         11    1    3    3    0    0 -0.10519842230E+01 -0.43762569531E+01 -0.54851931536E+01  0.70954661523E+01  0.51100000000E-03 0. -1.
        -11    1    3    3    0    0  0.49632149667E+01 -0.14561293585E+02 -0.33123764935E+02  0.36521891756E+02  0.51100000000E-03 0.  1.
        -12    1    3    3    0    0 -0.23791208104E+01  0.29636249070E+01 -0.17160839885E+01  0.41699199843E+01  0.00000000000E+00 0.  1.
</event>
<event>
 7    1  0.2714068E-010  0.4778728E+02  0.7816164E-02  0.1312668E+00
        -11   -1    0    0    0    0  0.00000000000E+00  0.00000000000E+00  0.45593999997E+02  0.45594000000E+02  0.51100000000E-03 0.  1.
         11   -1    0    0    0    0 -0.00000000000E+00 -0.00000000000E+00 -0.45593999997E+02  0.45594000000E+02  0.51100000000E-03 0. -1.
    9900012    2    1    2    0    0 -0.57573607410E+01 -0.29641085334E+02 -0.31175012782E+02  0.47787279218E+02  0.20000037265E+02 0.  0.
        -12    1    1    2    0    0  0.57573607410E+01  0.29641085334E+02  0.31175012782E+02  0.43400720782E+02  0.00000000000E+00 0.  1.
         11    1    3    3    0    0 -0.51088770115E+01 -0.10822107961E+02 -0.17637371084E+01  0.12096669537E+02  0.51100000000E-03 0. -1.
        -11    1    3    3    0    0  0.32038632677E+01 -0.56553076786E+01 -0.91641643723E+01  0.11235174840E+02  0.51100000000E-03 0.  1.
         12    1    3    3    0    0 -0.38523469971E+01 -0.13163669694E+02 -0.20247111301E+02  0.24455434840E+02  0.00000000000E+00 0. -1.
</event>
<event>
 7    1  0.2714068E-010  0.4778727E+02  0.7816164E-02  0.1312668E+00
        -11   -1    0    0    0    0  0.00000000000E+00  0.00000000000E+00  0.45593999997E+02  0.45594000000E+02  0.51100000000E-03 0.  1.
         11   -1    0    0    0    0 -0.00000000000E+00 -0.00000000000E+00 -0.45593999997E+02  0.45594000000E+02  0.51100000000E-03 0. -1.
    9900012    2    1    2    0    0 -0.34552355857E+02  0.20255213421E+02 -0.16717784327E+02  0.47787270987E+02  0.19999999739E+02 0.  0.
        -12    1    1    2    0    0  0.34552355857E+02 -0.20255213421E+02  0.16717784327E+02  0.43400729013E+02  0.00000000000E+00 0.  1.
         11    1    3    3    0    0 -0.16874180321E+02  0.89962336309E+01 -0.13796209927E+02  0.23579770772E+02  0.51100000000E-03 0. -1.
        -11    1    3    3    0    0 -0.83106455855E+01 -0.77076017123E+00  0.11531405616E+01  0.84255940269E+01  0.51100000000E-03 0.  1.
         12    1    3    3    0    0 -0.93675299511E+01  0.12029739962E+02 -0.40747149614E+01  0.15781906189E+02  0.00000000000E+00 0. -1.
</event>
<event>
 7    1  0.2714068E-010  0.4778727E+02  0.7816164E-02  0.1312668E+00
        -11   -1    0    0    0    0  0.00000000000E+00  0.00000000000E+00  0.45593999997E+02  0.45594000000E+02  0.51100000000E-03 0. -1.
         11   -1    0    0    0    0 -0.00000000000E+00 -0.00000000000E+00 -0.45593999997E+02  0.45594000000E+02  0.51100000000E-03 0.  1.
    9900012    2    1    2    0    0  0.12211608400E+02 -0.29576219875E+02  0.29321446048E+02  0.47787270051E+02  0.19999995470E+02 0.  0.
        -12    1    1    2    0    0 -0.12211608400E+02  0.29576219875E+02 -0.29321446048E+02  0.43400729949E+02  0.00000000000E+00 0.  1.
         11    1    3    3    0    0  0.72014386500E+01 -0.19852244542E+02  0.11736077884E+02  0.24160046696E+02  0.51100000000E-03 0. -1.
        -11    1    3    3    0    0 -0.31483315338E+01 -0.24442459472E+00  0.47682133035E+01  0.57190552714E+01  0.51100000000E-03 0.  1.
        -12    1    3    3    0    0  0.81585012843E+01 -0.94795507375E+01  0.12817154860E+02  0.17908168083E+02  0.00000000000E+00 0.  1.
</event>
<event>
 7    1  0.2714068E-010  0.4778727E+02  0.7816164E-02  0.1312668E+00
        -11   -1    0    0    0    0  0.00000000000E+00  0.00000000000E+00  0.45593999997E+02  0.45594000000E+02  0.51100000000E-03 0.  1.
         11   -1    0    0    0    0 -0.00000000000E+00 -0.00000000000E+00 -0.45593999997E+02  0.45594000000E+02  0.51100000000E-03 0. -1.
    9900012    2    1    2    0    0  0.79924681752E+01 -0.22817145190E+02 -0.36043332023E+02  0.47787269068E+02  0.19999990988E+02 0.  0.
        -12    1    1    2    0    0 -0.79924681752E+01  0.22817145190E+02  0.36043332023E+02  0.43400730932E+02  0.00000000000E+00 0.  1.
         11    1    3    3    0    0  0.30432304616E+01 -0.51085113408E+01  0.45108292694E+00  0.59633560878E+01  0.51100000000E-03 0. -1.
        -11    1    3    3    0    0  0.15062590057E+01 -0.64453444164E+01 -0.22898780096E+02  0.23836220569E+02  0.51100000000E-03 0.  1.
         12    1    3    3    0    0  0.34429787079E+01 -0.11263289433E+02 -0.13595634853E+02  0.17987692411E+02  0.00000000000E+00 0. -1.
</event>
<event>
 7    1  0.2714068E-010  0.4778727E+02  0.7816164E-02  0.1312668E+00
        -11   -1    0    0    0    0  0.00000000000E+00  0.00000000000E+00  0.45593999997E+02  0.45594000000E+02  0.51100000000E-03 0. -1.
         11   -1    0    0    0    0 -0.00000000000E+00 -0.00000000000E+00 -0.45593999997E+02  0.45594000000E+02  0.51100000000E-03 0.  1.
    9900012    2    1    2    0    0  0.37869888625E+01 -0.17313569602E+02  0.39617198270E+02  0.47787269871E+02  0.19999994649E+02 0.  0.
        -12    1    1    2    0    0 -0.37869888625E+01  0.17313569602E+02 -0.39617198270E+02  0.43400730129E+02  0.00000000000E+00 0.  1.
         11    1    3    3    0    0  0.67976329033E+01 -0.13840305795E+02  0.31284105001E+02  0.34877745104E+02  0.51100000000E-03 0. -1.
        -11    1    3    3    0    0 -0.71310269068E+00 -0.42907945453E+01  0.12997109540E+00  0.43515889080E+01  0.51100000000E-03 0.  1.
         12    1    3    3    0    0 -0.22975413500E+01  0.81753073890E+00  0.82031221733E+01  0.85579358583E+01  0.00000000000E+00 0. -1.
</event>
<event>
 7    1  0.2909009E-010  0.4778727E+02  0.7816164E-02  0.1312668E+00
        -11   -1    0    0    0    0  0.00000000000E+00  0.00000000000E+00  0.45593999997E+02  0.45594000000E+02  0.51100000000E-03 0. -1.
         11   -1    0    0    0    0 -0.00000000000E+00 -0.00000000000E+00 -0.45593999997E+02  0.45594000000E+02  0.51100000000E-03 0.  1.
    9900012    2    1    2    0    0  0.42122832343E+02  0.91496743699E+01  0.50570559255E+01  0.47787270049E+02  0.19999995462E+02 0.  0.
        -12    1    1    2    0    0 -0.42122832343E+02 -0.91496743699E+01 -0.50570559255E+01  0.43400729951E+02  0.00000000000E+00 0.  1.
         11    1    3    3    0    0  0.25489502970E+02  0.37409238013E+01  0.16577042912E+01  0.25815833442E+02  0.51100000000E-03 0. -1.
        -11    1    3    3    0    0  0.32164119914E+01  0.59123823140E+01 -0.26649842005E+01  0.72390408049E+01  0.51100000000E-03 0.  1.
        -12    1    3    3    0    0  0.13416917382E+02 -0.50363174540E+00  0.60643358348E+01  0.14732395802E+02  0.00000000000E+00 0.  1.
</event>
<event>
 7    1  0.2714068E-010  0.4778727E+02  0.7816164E-02  0.1312668E+00
        -11   -1    0    0    0    0  0.00000000000E+00  0.00000000000E+00  0.45593999997E+02  0.45594000000E+02  0.51100000000E-03 0.  1.
         11   -1    0    0    0    0 -0.00000000000E+00 -0.00000000000E+00 -0.45593999997E+02  0.45594000000E+02  0.51100000000E-03 0. -1.
    9900012    2    1    2    0    0 -0.14517127999E+02  0.33689237425E+01 -0.40761833694E+02  0.47787265690E+02  0.19999975588E+02 0.  0.
        -12    1    1    2    0    0  0.14517127999E+02 -0.33689237425E+01  0.40761833694E+02  0.43400734310E+02  0.00000000000E+00 0.  1.
         11    1    3    3    0    0 -0.42621762928E+01 -0.52444115458E+01 -0.23030642324E+02  0.24001676719E+02  0.51100000000E-03 0. -1.
        -11    1    3    3    0    0  0.13518623935E+01  0.20883788354E+01 -0.21315359905E+01  0.32760195407E+01  0.51100000000E-03 0.  1.
         12    1    3    3    0    0 -0.11606814100E+02  0.65249564528E+01 -0.15599655379E+02  0.20509569430E+02  0.00000000000E+00 0. -1.
</event>
<event>
 7    1  0.2714068E-010  0.4778730E+02  0.7816164E-02  0.1312668E+00
        -11   -1    0    0    0    0  0.00000000000E+00  0.00000000000E+00  0.45593999997E+02  0.45594000000E+02  0.51100000000E-03 0.  1.
         11   -1    0    0    0    0 -0.00000000000E+00 -0.00000000000E+00 -0.45593999997E+02  0.45594000000E+02  0.51100000000E-03 0. -1.
    9900012    2    1    2    0    0 -0.77848415120E+01  0.29614837974E+02 -0.30756767921E+02  0.47787295414E+02  0.20000111111E+02 0.  0.
        -12    1    1    2    0    0  0.77848415120E+01 -0.29614837974E+02  0.30756767921E+02  0.43400704586E+02  0.00000000000E+00 0.  1.
         11    1    3    3    0    0 -0.15963378383E+00  0.13969190478E+02 -0.82760867316E+01  0.16237529904E+02  0.51100000000E-03 0. -1.
        -11    1    3    3    0    0 -0.10424688900E+02  0.58624379094E+01 -0.12212585160E+02  0.17093552979E+02  0.51100000000E-03 0.  1.
        -12    1    3    3    0    0  0.27994811717E+01  0.97832095871E+01 -0.10268096029E+02  0.14456212530E+02  0.00000000000E+00 0.  1.
</event>
<event>
 7    1  0.2714068E-010  0.4778727E+02  0.7816164E-02  0.1312668E+00
        -11   -1    0    0    0    0  0.00000000000E+00  0.00000000000E+00  0.45593999997E+02  0.45594000000E+02  0.51100000000E-03 0.  1.
         11   -1    0    0    0    0 -0.00000000000E+00 -0.00000000000E+00 -0.45593999997E+02  0.45594000000E+02  0.51100000000E-03 0. -1.
    9900012    2    1    2    0    0 -0.51469025659E+01  0.38952456975E+02 -0.18434719991E+02  0.47787269458E+02  0.19999992769E+02 0.  0.
        -12    1    1    2    0    0  0.51469025659E+01 -0.38952456975E+02  0.18434719991E+02  0.43400730542E+02  0.00000000000E+00 0.  1.
         11    1    3    3    0    0  0.50340592163E+01  0.12533534680E+02  0.78431201077E+00  0.13529463750E+02  0.51100000000E-03 0. -1.
        -11    1    3    3    0    0 -0.37210041293E+01  0.91723016339E+01 -0.76350443308E+01  0.12500835620E+02  0.51100000000E-03 0.  1.
         12    1    3    3    0    0 -0.64599576529E+01  0.17246620661E+02 -0.11583987671E+02  0.21756970089E+02  0.00000000000E+00 0. -1.
</event>
<event>
 7    1  0.2714068E-010  0.4778727E+02  0.7816164E-02  0.1312668E+00
        -11   -1    0    0    0    0  0.00000000000E+00  0.00000000000E+00  0.45593999997E+02  0.45594000000E+02  0.51100000000E-03 0.  1.
         11   -1    0    0    0    0 -0.00000000000E+00 -0.00000000000E+00 -0.45593999997E+02  0.45594000000E+02  0.51100000000E-03 0. -1.
    9900012    2    1    2    0    0 -0.18292348422E+02  0.20175524305E+01 -0.39305757489E+02  0.47787273043E+02  0.20000009113E+02 0.  0.
        -12    1    1    2    0    0  0.18292348422E+02 -0.20175524305E+01  0.39305757489E+02  0.43400726957E+02  0.00000000000E+00 0.  1.
         11    1    3    3    0    0 -0.20669103394E+01  0.11508050415E+01 -0.10984348391E+02  0.11236208454E+02  0.51100000000E-03 0. -1.
        -11    1    3    3    0    0 -0.10718702205E+02  0.84817846446E+01 -0.17826017072E+02  0.22463261843E+02  0.51100000000E-03 0.  1.
        -12    1    3    3    0    0 -0.55067358779E+01 -0.76150372556E+01 -0.10495392027E+02  0.14087802746E+02  0.00000000000E+00 0.  1.
</event>
<event>
 7    1  0.2714068E-010  0.4778727E+02  0.7816164E-02  0.1312668E+00
        -11   -1    0    0    0    0  0.00000000000E+00  0.00000000000E+00  0.45593999997E+02  0.45594000000E+02  0.51100000000E-03 0. -1.
         11   -1    0    0    0    0 -0.00000000000E+00 -0.00000000000E+00 -0.45593999997E+02  0.45594000000E+02  0.51100000000E-03 0.  1.
    9900012    2    1    2    0    0 -0.36108612342E+02  0.21065243155E+02  0.11663910885E+02  0.47787272223E+02  0.20000005375E+02 0.  0.
        -12    1    1    2    0    0  0.36108612342E+02 -0.21065243155E+02 -0.11663910885E+02  0.43400727777E+02  0.00000000000E+00 0.  1.
         11    1    3    3    0    0 -0.14472761607E+02  0.36778351613E+01  0.12213398176E+02  0.19291303618E+02  0.51100000000E-03 0. -1.
        -11    1    3    3    0    0 -0.18244403381E+02  0.11153846664E+02 -0.78523812495E-01  0.21383935942E+02  0.51100000000E-03 0.  1.
         12    1    3    3    0    0 -0.33914473539E+01  0.62335613298E+01 -0.47096347874E+00  0.71120326633E+01  0.00000000000E+00 0. -1.
</event>
<event>
 7    1  0.2714068E-010  0.4778727E+02  0.7816164E-02  0.1312668E+00
        -11   -1    0    0    0    0  0.00000000000E+00  0.00000000000E+00  0.45593999997E+02  0.45594000000E+02  0.51100000000E-03 0.  1.
         11   -1    0    0    0    0 -0.00000000000E+00 -0.00000000000E+00 -0.45593999997E+02  0.45594000000E+02  0.51100000000E-03 0. -1.
    9900012    2    1    2    0    0  0.20372376155E+02  0.19837009511E+02 -0.32788454403E+02  0.47787269607E+02  0.19999993444E+02 0.  0.
        -12    1    1    2    0    0 -0.20372376155E+02 -0.19837009511E+02  0.32788454403E+02  0.43400730393E+02  0.00000000000E+00 0.  1.
         11    1    3    3    0    0  0.16761661380E+02  0.16912237374E+02 -0.19779193773E+02  0.30954701933E+02  0.51100000000E-03 0. -1.
        -11    1    3    3    0    0  0.25689211206E+01  0.41184909936E+01 -0.13115828524E+01  0.50280785225E+01  0.51100000000E-03 0.  1.
         12    1    3    3    0    0  0.10417936545E+01 -0.11937188563E+01 -0.11697677777E+02  0.11804489151E+02  0.00000000000E+00 0. -1.
</event>
<event>
 7    1  0.2714068E-010  0.4778727E+02  0.7816164E-02  0.1312668E+00
        -11   -1    0    0    0    0  0.00000000000E+00  0.00000000000E+00  0.45593999997E+02  0.45594000000E+02  0.51100000000E-03 0.  1.
         11   -1    0    0    0    0 -0.00000000000E+00 -0.00000000000E+00 -0.45593999997E+02  0.45594000000E+02  0.51100000000E-03 0. -1.
    9900012    2    1    2    0    0  0.28548214993E+02 -0.32096026172E+02 -0.62022464461E+01  0.47787270325E+02  0.19999996721E+02 0.  0.
        -12    1    1    2    0    0 -0.28548214993E+02  0.32096026172E+02  0.62022464461E+01  0.43400729675E+02  0.00000000000E+00 0.  1.
         11    1    3    3    0    0  0.88890499585E+01 -0.22553100995E+02 -0.59669111683E+01  0.24965207846E+02  0.51100000000E-03 0. -1.
        -11    1    3    3    0    0  0.55748058384E+01 -0.57762793903E+00  0.20560444928E+01  0.59698771670E+01  0.51100000000E-03 0.  1.
         12    1    3    3    0    0  0.14084359196E+02 -0.89652972381E+01 -0.22913797705E+01  0.16852185312E+02  0.00000000000E+00 0. -1.
</event>
<event>
 7    1  0.2714068E-010  0.4778728E+02  0.7816164E-02  0.1312668E+00
        -11   -1    0    0    0    0  0.00000000000E+00  0.00000000000E+00  0.45593999997E+02  0.45594000000E+02  0.51100000000E-03 0.  1.
         11   -1    0    0    0    0 -0.00000000000E+00 -0.00000000000E+00 -0.45593999997E+02  0.45594000000E+02  0.51100000000E-03 0. -1.
    9900012    2    1    2    0    0  0.34841041416E+01  0.49568162253E+01 -0.42975732507E+02  0.47787278886E+02  0.20000035751E+02 0.  0.
        -12    1    1    2    0    0 -0.34841041416E+01 -0.49568162253E+01  0.42975732507E+02  0.43400721114E+02  0.00000000000E+00 0.  1.
         11    1    3    3    0    0 -0.11164190449E+01  0.97908201432E+01 -0.18579602534E+02  0.21031124105E+02  0.51100000000E-03 0. -1.
        -11    1    3    3    0    0  0.16251616973E+01  0.45472220319E+00 -0.74801560744E-01  0.16892360282E+01  0.51100000000E-03 0.  1.
         12    1    3    3    0    0  0.29753614892E+01 -0.52887261212E+01 -0.24321328412E+02  0.25066918752E+02  0.00000000000E+00 0. -1.
</event>
<event>
 7    1  0.2714068E-010  0.4778727E+02  0.7816164E-02  0.1312668E+00
        -11   -1    0    0    0    0  0.00000000000E+00  0.00000000000E+00  0.45593999997E+02  0.45594000000E+02  0.51100000000E-03 0. -1.
         11   -1    0    0    0    0 -0.00000000000E+00 -0.00000000000E+00 -0.45593999997E+02  0.45594000000E+02  0.51100000000E-03 0.  1.
    9900012    2    1    2    0    0 -0.22581731031E+02 -0.52969369628E+01  0.36682848702E+02  0.47787268365E+02  0.19999987783E+02 0.  0.
        -12    1    1    2    0    0  0.22581731031E+02  0.52969369628E+01 -0.36682848702E+02  0.43400731635E+02  0.00000000000E+00 0.  1.
         11    1    3    3    0    0 -0.13191816137E+02 -0.67332630933E+01  0.22384422030E+02  0.26840700340E+02  0.51100000000E-03 0. -1.
        -11    1    3    3    0    0 -0.22327344118E+01 -0.51134418697E+01  0.58135097833E+01  0.80578711190E+01  0.51100000000E-03 0.  1.
         12    1    3    3    0    0 -0.71571804821E+01  0.65497680002E+01  0.84849168889E+01  0.12888696905E+02  0.00000000000E+00 0. -1.
</event>
<event>
 7    1  0.2714068E-010  0.4778727E+02  0.7816164E-02  0.1312668E+00
        -11   -1    0    0    0    0  0.00000000000E+00  0.00000000000E+00  0.45593999997E+02  0.45594000000E+02  0.51100000000E-03 0.  1.
         11   -1    0    0    0    0 -0.00000000000E+00 -0.00000000000E+00 -0.45593999997E+02  0.45594000000E+02  0.51100000000E-03 0. -1.
    9900012    2    1    2    0    0  0.12894602147E+02  0.40143176476E+02 -0.10289691895E+02  0.47787272571E+02  0.20000006959E+02 0.  0.
        -12    1    1    2    0    0 -0.12894602147E+02 -0.40143176476E+02  0.10289691895E+02  0.43400727429E+02  0.00000000000E+00 0.  1.
         11    1    3    3    0    0  0.37362310156E+01  0.23348439454E+02 -0.36857465282E+01  0.23931021183E+02  0.51100000000E-03 0. -1.
        -11    1    3    3    0    0  0.40715477092E+01 -0.90114577380E+00 -0.28881126364E+01  0.50725495873E+01  0.51100000000E-03 0.  1.
        -12    1    3    3    0    0  0.50868234223E+01  0.17695882796E+02 -0.37158327305E+01  0.18783701800E+02  0.00000000000E+00 0.  1.
</event>
<event>
 7    1  0.2714068E-010  0.4778727E+02  0.7816164E-02  0.1312668E+00
        -11   -1    0    0    0    0  0.00000000000E+00  0.00000000000E+00  0.45593999997E+02  0.45594000000E+02  0.51100000000E-03 0. -1.
         11   -1    0    0    0    0 -0.00000000000E+00 -0.00000000000E+00 -0.45593999997E+02  0.45594000000E+02  0.51100000000E-03 0.  1.
    9900012    2    1    2    0    0  0.83781912887E+01  0.34911106855E+02  0.24385318260E+02  0.47787271691E+02  0.20000002949E+02 0.  0.
        -12    1    1    2    0    0 -0.83781912887E+01 -0.34911106855E+02 -0.24385318260E+02  0.43400728309E+02  0.00000000000E+00 0.  1.
         11    1    3    3    0    0  0.60388418624E+00  0.72556114663E+01  0.43865453039E+01  0.85000208132E+01  0.51100000000E-03 0. -1.
        -11    1    3    3    0    0 -0.25769769538E+01  0.13375300365E+02  0.14605183339E+01  0.13699364370E+02  0.51100000000E-03 0.  1.
        -12    1    3    3    0    0  0.10351284056E+02  0.14280195023E+02  0.18538254622E+02  0.25587886508E+02  0.00000000000E+00 0.  1.
</event>
<event>
 7    1  0.2714068E-010  0.4778726E+02  0.7816164E-02  0.1312668E+00
        -11   -1    0    0    0    0  0.00000000000E+00  0.00000000000E+00  0.45593999997E+02  0.45594000000E+02  0.51100000000E-03 0.  1.
         11   -1    0    0    0    0 -0.00000000000E+00 -0.00000000000E+00 -0.45593999997E+02  0.45594000000E+02  0.51100000000E-03 0. -1.
    9900012    2    1    2    0    0 -0.54946459986E+01 -0.99284725434E+01 -0.41891028299E+02  0.47787263213E+02  0.19999964293E+02 0.  0.
        -12    1    1    2    0    0  0.54946459986E+01  0.99284725434E+01  0.41891028299E+02  0.43400736787E+02  0.00000000000E+00 0.  1.
         11    1    3    3    0    0 -0.78502282763E+01 -0.10177647145E+02 -0.26383851815E+02  0.29348223494E+02  0.51100000000E-03 0. -1.
        -11    1    3    3    0    0  0.45953003526E+01 -0.24991379402E+01 -0.45851876175E+01  0.69560348995E+01  0.51100000000E-03 0.  1.
         12    1    3    3    0    0 -0.22397180749E+01  0.27483125418E+01 -0.10921988866E+02  0.11483004819E+02  0.00000000000E+00 0. -1.
</event>
<event>
 7    1  0.2714068E-010  0.4778727E+02  0.7816164E-02  0.1312668E+00
        -11   -1    0    0    0    0  0.00000000000E+00  0.00000000000E+00  0.45593999997E+02  0.45594000000E+02  0.51100000000E-03 0. -1.
         11   -1    0    0    0    0 -0.00000000000E+00 -0.00000000000E+00 -0.45593999997E+02  0.45594000000E+02  0.51100000000E-03 0.  1.
    9900012    2    1    2    0    0 -0.36454596304E+01 -0.40049206074E+02  0.16321620349E+02  0.47787267588E+02  0.19999984240E+02 0.  0.
        -12    1    1    2    0    0  0.36454596304E+01  0.40049206074E+02 -0.16321620349E+02  0.43400732412E+02  0.00000000000E+00 0.  1.
         11    1    3    3    0    0  0.26114343236E+01 -0.29816154121E+02  0.70137588126E+01  0.30741103570E+02  0.51100000000E-03 0. -1.
        -11    1    3    3    0    0  0.14597986690E+01 -0.80826602327E+00 -0.75243147354E-01  0.16703197032E+01  0.51100000000E-03 0.  1.
         12    1    3    3    0    0 -0.77166926231E+01 -0.94247859303E+01  0.93831046837E+01  0.15375844314E+02  0.00000000000E+00 0. -1.
</event>
<event>
 7    1  0.2714068E-010  0.4778727E+02  0.7816164E-02  0.1312668E+00
        -11   -1    0    0    0    0  0.00000000000E+00  0.00000000000E+00  0.45593999997E+02  0.45594000000E+02  0.51100000000E-03 0.  1.
         11   -1    0    0    0    0 -0.00000000000E+00 -0.00000000000E+00 -0.45593999997E+02  0.45594000000E+02  0.51100000000E-03 0. -1.
    9900012    2    1    2    0    0 -0.19839133315E+02  0.38510839181E+02 -0.26357994418E+01  0.47787269778E+02  0.19999994227E+02 0.  0.
        -12    1    1    2    0    0  0.19839133315E+02 -0.38510839181E+02  0.26357994418E+01  0.43400730222E+02  0.00000000000E+00 0.  1.
         11    1    3    3    0    0 -0.82508315610E+01  0.16795253389E+02 -0.54074855950E+01  0.19478132830E+02  0.51100000000E-03 0. -1.
        -11    1    3    3    0    0  0.19983268615E+01  0.80842458259E+01  0.35377202718E+01  0.90478619464E+01  0.51100000000E-03 0.  1.
        -12    1    3    3    0    0 -0.13586628616E+02  0.13631339966E+02 -0.76603411866E+00  0.19261275001E+02  0.00000000000E+00 0.  1.
</event>
<event>
 7    1  0.2714068E-010  0.4778727E+02  0.7816164E-02  0.1312668E+00
        -11   -1    0    0    0    0  0.00000000000E+00  0.00000000000E+00  0.45593999997E+02  0.45594000000E+02  0.51100000000E-03 0.  1.
         11   -1    0    0    0    0 -0.00000000000E+00 -0.00000000000E+00 -0.45593999997E+02  0.45594000000E+02  0.51100000000E-03 0. -1.
    9900012    2    1    2    0    0 -0.10124345595E+02  0.39522543054E+02 -0.14801663125E+02  0.47787274033E+02  0.20000013628E+02 0.  0.
        -12    1    1    2    0    0  0.10124345595E+02 -0.39522543054E+02  0.14801663125E+02  0.43400725967E+02  0.00000000000E+00 0.  1.
         11    1    3    3    0    0  0.42714093867E+01  0.16365067424E+02 -0.64306100152E+01  0.18094560381E+02  0.51100000000E-03 0. -1.
        -11    1    3    3    0    0 -0.98832293707E+01  0.19543551205E+02 -0.93789588383E+01  0.23824220568E+02  0.51100000000E-03 0.  1.
         12    1    3    3    0    0 -0.45125256105E+01  0.36139244246E+01  0.10079057284E+01  0.58684930851E+01  0.00000000000E+00 0. -1.
</event>
<event>
 7    1  0.2714068E-010  0.4778725E+02  0.7816164E-02  0.1312668E+00
        -11   -1    0    0    0    0  0.00000000000E+00  0.00000000000E+00  0.45593999997E+02  0.45594000000E+02  0.51100000000E-03 0.  1.
         11   -1    0    0    0    0 -0.00000000000E+00 -0.00000000000E+00 -0.45593999997E+02  0.45594000000E+02  0.51100000000E-03 0. -1.
    9900012    2    1    2    0    0  0.41914778038E+02 -0.17334240582E+01 -0.11125285589E+02  0.47787247053E+02  0.19999890614E+02 0.  0.
        -12    1    1    2    0    0 -0.41914778038E+02  0.17334240582E+01  0.11125285589E+02  0.43400752947E+02  0.00000000000E+00 0.  1.
         11    1    3    3    0    0  0.25068433296E+02  0.44635877759E+01 -0.86176474732E+01  0.26881477117E+02  0.51100000000E-03 0. -1.
        -11    1    3    3    0    0  0.26006378496E+00 -0.37345643668E+01  0.76588013949E+00  0.38211486273E+01  0.51100000000E-03 0.  1.
        -12    1    3    3    0    0  0.16586280957E+02 -0.24624474673E+01 -0.32735182553E+01  0.17084621309E+02  0.00000000000E+00 0.  1.
</event>
<event>
 7    1  0.2714068E-010  0.4778727E+02  0.7816164E-02  0.1312668E+00
        -11   -1    0    0    0    0  0.00000000000E+00  0.00000000000E+00  0.45593999997E+02  0.45594000000E+02  0.51100000000E-03 0.  1.
         11   -1    0    0    0    0 -0.00000000000E+00 -0.00000000000E+00 -0.45593999997E+02  0.45594000000E+02  0.51100000000E-03 0. -1.
    9900012    2    1    2    0    0 -0.28188676135E+02  0.23223127948E+01 -0.32918510969E+02  0.47787274621E+02  0.20000016309E+02 0.  0.
        -12    1    1    2    0    0  0.28188676135E+02 -0.23223127948E+01  0.32918510969E+02  0.43400725379E+02  0.00000000000E+00 0.  1.
         11    1    3    3    0    0 -0.19129048009E+01  0.37409773137E+01  0.60569263660E+00  0.42451124685E+01  0.51100000000E-03 0. -1.
        -11    1    3    3    0    0  0.27620119023E+00 -0.83660622218E+00 -0.15559866020E+00  0.89465539325E+00  0.51100000000E-03 0.  1.
         12    1    3    3    0    0 -0.26551972524E+02 -0.58205829676E+00 -0.33368604946E+02  0.42647506760E+02  0.00000000000E+00 0. -1.
</event>
<event>
 7    1  0.2714068E-010  0.4778727E+02  0.7816164E-02  0.1312668E+00
        -11   -1    0    0    0    0  0.00000000000E+00  0.00000000000E+00  0.45593999997E+02  0.45594000000E+02  0.51100000000E-03 0.  1.
         11   -1    0    0    0    0 -0.00000000000E+00 -0.00000000000E+00 -0.45593999997E+02  0.45594000000E+02  0.51100000000E-03 0. -1.
    9900012    2    1    2    0    0  0.12413199859E+02 -0.22324786424E+02 -0.35087602001E+02  0.47787269202E+02  0.19999991600E+02 0.  0.
        -12    1    1    2    0    0 -0.12413199859E+02  0.22324786424E+02  0.35087602001E+02  0.43400730798E+02  0.00000000000E+00 0.  1.
         11    1    3    3    0    0 -0.11568114947E+01 -0.55860489488E+01 -0.14570810324E+01  0.58877195151E+01  0.51100000000E-03 0. -1.
        -11    1    3    3    0    0 -0.43885735824E-01  0.17994102096E+01 -0.40297134271E+01  0.44134333150E+01  0.51100000000E-03 0.  1.
         12    1    3    3    0    0  0.13613897089E+02 -0.18538147685E+02 -0.29600807541E+02  0.37486116372E+02  0.00000000000E+00 0. -1.
</event>
<event>
 7    1  0.2714068E-010  0.4778727E+02  0.7816164E-02  0.1312668E+00
        -11   -1    0    0    0    0  0.00000000000E+00  0.00000000000E+00  0.45593999997E+02  0.45594000000E+02  0.51100000000E-03 0.  1.
         11   -1    0    0    0    0 -0.00000000000E+00 -0.00000000000E+00 -0.45593999997E+02  0.45594000000E+02  0.51100000000E-03 0. -1.
    9900012    2    1    2    0    0  0.19644840391E+02  0.29949230172E+02 -0.24510144631E+02  0.47787270378E+02  0.19999996964E+02 0.  0.
        -12    1    1    2    0    0 -0.19644840391E+02 -0.29949230172E+02  0.24510144631E+02  0.43400729622E+02  0.00000000000E+00 0.  1.
         11    1    3    3    0    0  0.41500434264E+01  0.14730581779E+02 -0.69676649061E+01  0.16815506370E+02  0.51100000000E-03 0. -1.
        -11    1    3    3    0    0  0.12441773739E+02  0.32181800773E+01 -0.11260709163E+02  0.17086778160E+02  0.51100000000E-03 0.  1.
        -12    1    3    3    0    0  0.30530232254E+01  0.12000468316E+02 -0.62817705618E+01  0.13884985848E+02  0.00000000000E+00 0.  1.
</event>
<event>
 7    1  0.2714068E-010  0.4778727E+02  0.7816164E-02  0.1312668E+00
        -11   -1    0    0    0    0  0.00000000000E+00  0.00000000000E+00  0.45593999997E+02  0.45594000000E+02  0.51100000000E-03 0.  1.
         11   -1    0    0    0    0 -0.00000000000E+00 -0.00000000000E+00 -0.45593999997E+02  0.45594000000E+02  0.51100000000E-03 0. -1.
    9900012    2    1    2    0    0 -0.40623950555E+02  0.46147389776E+01 -0.14560980448E+02  0.47787270443E+02  0.19999997256E+02 0.  0.
        -12    1    1    2    0    0  0.40623950555E+02 -0.46147389776E+01  0.14560980448E+02  0.43400729557E+02  0.00000000000E+00 0.  1.
         11    1    3    3    0    0 -0.18849216275E+02  0.99684897687E+00 -0.15514845495E+02  0.24433523959E+02  0.51100000000E-03 0. -1.
        -11    1    3    3    0    0 -0.50381671799E+01  0.41236762061E+01  0.11337521868E+01  0.66085723320E+01  0.51100000000E-03 0.  1.
         12    1    3    3    0    0 -0.16736567100E+02 -0.50578620543E+00 -0.17988713938E+00  0.16745174151E+02  0.00000000000E+00 0. -1.
</event>
<event>
 7    1  0.2714068E-010  0.4778727E+02  0.7816164E-02  0.1312668E+00
        -11   -1    0    0    0    0  0.00000000000E+00  0.00000000000E+00  0.45593999997E+02  0.45594000000E+02  0.51100000000E-03 0.  1.
         11   -1    0    0    0    0 -0.00000000000E+00 -0.00000000000E+00 -0.45593999997E+02  0.45594000000E+02  0.51100000000E-03 0. -1.
    9900012    2    1    2    0    0 -0.19235286187E+02 -0.37668733842E+02  0.97310541705E+01  0.47787272365E+02  0.20000006021E+02 0.  0.
        -12    1    1    2    0    0  0.19235286187E+02  0.37668733842E+02 -0.97310541705E+01  0.43400727635E+02  0.00000000000E+00 0.  1.
         11    1    3    3    0    0 -0.44374928181E+01 -0.15266829148E+02  0.10674163682E+02  0.19149547914E+02  0.51100000000E-03 0. -1.
        -11    1    3    3    0    0 -0.22388527576E+01 -0.64611647846E+01 -0.42864198115E+01  0.80704713063E+01  0.51100000000E-03 0.  1.
         12    1    3    3    0    0 -0.12558940612E+02 -0.15940739910E+02  0.33433102999E+01  0.20567253145E+02  0.00000000000E+00 0. -1.
</event>
<event>
 7    1  0.2714068E-010  0.4778726E+02  0.7816164E-02  0.1312668E+00
        -11   -1    0    0    0    0  0.00000000000E+00  0.00000000000E+00  0.45593999997E+02  0.45594000000E+02  0.51100000000E-03 0.  1.
         11   -1    0    0    0    0 -0.00000000000E+00 -0.00000000000E+00 -0.45593999997E+02  0.45594000000E+02  0.51100000000E-03 0. -1.
    9900012    2    1    2    0    0  0.32318515722E+02 -0.26410414898E+02 -0.11900738593E+02  0.47787262073E+02  0.19999959097E+02 0.  0.
        -12    1    1    2    0    0 -0.32318515722E+02  0.26410414898E+02  0.11900738593E+02  0.43400737927E+02  0.00000000000E+00 0.  1.
         11    1    3    3    0    0  0.66236062125E+01 -0.15010342677E+02 -0.77729701119E+00  0.16425186070E+02  0.51100000000E-03 0. -1.
        -11    1    3    3    0    0  0.10738310581E+01 -0.22526417635E+01 -0.29292542678E+01  0.38481214745E+01  0.51100000000E-03 0.  1.
         12    1    3    3    0    0  0.24621078451E+02 -0.91474304577E+01 -0.81941873136E+01  0.27513954529E+02  0.00000000000E+00 0. -1.
</event>
<event>
 7    1  0.2714068E-010  0.4778727E+02  0.7816164E-02  0.1312668E+00
        -11   -1    0    0    0    0  0.00000000000E+00  0.00000000000E+00  0.45593999997E+02  0.45594000000E+02  0.51100000000E-03 0.  1.
         11   -1    0    0    0    0 -0.00000000000E+00 -0.00000000000E+00 -0.45593999997E+02  0.45594000000E+02  0.51100000000E-03 0. -1.
    9900012    2    1    2    0    0 -0.12173451215E+02 -0.11011383958E+02 -0.40176856454E+02  0.47787270908E+02  0.19999999378E+02 0.  0.
        -12    1    1    2    0    0  0.12173451215E+02  0.11011383958E+02  0.40176856454E+02  0.43400729092E+02  0.00000000000E+00 0.  1.
         11    1    3    3    0    0 -0.10180180550E+02 -0.44316614040E+01 -0.24083329204E+02  0.26519472933E+02  0.51100000000E-03 0.  1.
        -11    1    3    3    0    0 -0.91990631555E+00 -0.71576909973E+01 -0.25263992401E+01  0.76460095097E+01  0.51100000000E-03 0. -1.
        -12    1    3    3    0    0 -0.10733643498E+01  0.57796844331E+00 -0.13567128011E+02  0.13621788466E+02  0.00000000000E+00 0.  1.
</event>
<event>
 7    1  0.2714068E-010  0.4778727E+02  0.7816164E-02  0.1312668E+00
        -11   -1    0    0    0    0  0.00000000000E+00  0.00000000000E+00  0.45593999997E+02  0.45594000000E+02  0.51100000000E-03 0.  1.
         11   -1    0    0    0    0 -0.00000000000E+00 -0.00000000000E+00 -0.45593999997E+02  0.45594000000E+02  0.51100000000E-03 0. -1.
    9900012    2    1    2    0    0 -0.41945198413E+02 -0.48009078886E+01 -0.10058575918E+02  0.47787270329E+02  0.19999996737E+02 0.  0.
        -12    1    1    2    0    0  0.41945198413E+02  0.48009078886E+01  0.10058575918E+02  0.43400729671E+02  0.00000000000E+00 0.  1.
         11    1    3    3    0    0 -0.17202262873E+01  0.40421677231E+01  0.25778520326E+00  0.44005399502E+01  0.51100000000E-03 0. -1.
        -11    1    3    3    0    0 -0.21801667000E+02 -0.10229101948E+01 -0.27864877170E+01  0.22002807623E+02  0.51100000000E-03 0.  1.
         12    1    3    3    0    0 -0.18423305126E+02 -0.78201654168E+01 -0.75298734045E+01  0.21383922755E+02  0.00000000000E+00 0. -1.
</event>
<event>
 7    1  0.2714068E-010  0.4778727E+02  0.7816164E-02  0.1312668E+00
        -11   -1    0    0    0    0  0.00000000000E+00  0.00000000000E+00  0.45593999997E+02  0.45594000000E+02  0.51100000000E-03 0.  1.
         11   -1    0    0    0    0 -0.00000000000E+00 -0.00000000000E+00 -0.45593999997E+02  0.45594000000E+02  0.51100000000E-03 0. -1.
    9900012    2    1    2    0    0  0.18979847433E+02 -0.38790162803E+02 -0.43257344520E+01  0.47787270543E+02  0.19999997713E+02 0.  0.
        -12    1    1    2    0    0 -0.18979847433E+02  0.38790162803E+02  0.43257344520E+01  0.43400729457E+02  0.00000000000E+00 0.  1.
         11    1    3    3    0    0  0.15830284372E+02 -0.25549887973E+02 -0.19001770454E+01  0.30116529544E+02  0.51100000000E-03 0. -1.
        -11    1    3    3    0    0  0.58333616711E+00 -0.41397172550E+01 -0.62099717922E+01  0.74860730664E+01  0.51100000000E-03 0.  1.
        -12    1    3    3    0    0  0.25662268941E+01 -0.91005575751E+01  0.37844143856E+01  0.10184667932E+02  0.00000000000E+00 0.  1.
</event>
<event>
 7    1  0.2714068E-010  0.4778731E+02  0.7816164E-02  0.1312668E+00
        -11   -1    0    0    0    0  0.00000000000E+00  0.00000000000E+00  0.45593999997E+02  0.45594000000E+02  0.51100000000E-03 0.  1.
         11   -1    0    0    0    0 -0.00000000000E+00 -0.00000000000E+00 -0.45593999997E+02  0.45594000000E+02  0.51100000000E-03 0. -1.
    9900012    2    1    2    0    0  0.11508491602E+02  0.16097979913E+02 -0.38626796897E+02  0.47787311356E+02  0.20000183795E+02 0.  0.
        -12    1    1    2    0    0 -0.11508491602E+02 -0.16097979913E+02  0.38626796897E+02  0.43400688644E+02  0.00000000000E+00 0.  1.
         11    1    3    3    0    0  0.24391565829E+01  0.95167134047E+01 -0.53443282133E+01  0.11183879612E+02  0.51100000000E-03 0. -1.
        -11    1    3    3    0    0 -0.99321661415E+00  0.66307293234E+00  0.13856460459E+00  0.12022251732E+01  0.51100000000E-03 0.  1.
         12    1    3    3    0    0  0.10062551633E+02  0.59181935763E+01 -0.33421033289E+02  0.35401206571E+02  0.00000000000E+00 0. -1.
</event>
<event>
 7    1  0.2714068E-010  0.4778727E+02  0.7816164E-02  0.1312668E+00
        -11   -1    0    0    0    0  0.00000000000E+00  0.00000000000E+00  0.45593999997E+02  0.45594000000E+02  0.51100000000E-03 0.  1.
         11   -1    0    0    0    0 -0.00000000000E+00 -0.00000000000E+00 -0.45593999997E+02  0.45594000000E+02  0.51100000000E-03 0. -1.
    9900012    2    1    2    0    0  0.39605264209E+02 -0.10389848536E+02 -0.14390890424E+02  0.47787266909E+02  0.19999981145E+02 0.  0.
        -12    1    1    2    0    0 -0.39605264209E+02  0.10389848536E+02  0.14390890424E+02  0.43400733091E+02  0.00000000000E+00 0.  1.
         11    1    3    3    0    0  0.25185851263E+02 -0.29988611611E+01 -0.34102269101E+01  0.25591989371E+02  0.51100000000E-03 0. -1.
        -11    1    3    3    0    0  0.55177671718E+00 -0.17116590270E+01  0.17669947146E+01  0.25212109695E+01  0.51100000000E-03 0.  1.
         12    1    3    3    0    0  0.13867636228E+02 -0.56793283477E+01 -0.12747658228E+02  0.19674066569E+02  0.00000000000E+00 0. -1.
</event>
<event>
 7    1  0.2714068E-010  0.4778727E+02  0.7816164E-02  0.1312668E+00
        -11   -1    0    0    0    0  0.00000000000E+00  0.00000000000E+00  0.45593999997E+02  0.45594000000E+02  0.51100000000E-03 0. -1.
         11   -1    0    0    0    0 -0.00000000000E+00 -0.00000000000E+00 -0.45593999997E+02  0.45594000000E+02  0.51100000000E-03 0.  1.
    9900012    2    1    2    0    0 -0.19088978252E+02 -0.35351950072E+02  0.16415658260E+02  0.47787270735E+02  0.19999998591E+02 0.  0.
        -12    1    1    2    0    0  0.19088978252E+02  0.35351950072E+02 -0.16415658260E+02  0.43400729265E+02  0.00000000000E+00 0.  1.
         11    1    3    3    0    0 -0.96662768198E+01 -0.21542683078E+01  0.38110840683E+01  0.10611415624E+02  0.51100000000E-03 0. -1.
        -11    1    3    3    0    0 -0.67905516363E+01 -0.20249733826E+02  0.10489671166E+02  0.23794884177E+02  0.51100000000E-03 0.  1.
         12    1    3    3    0    0 -0.26321497959E+01 -0.12947947938E+02  0.21149030258E+01  0.13380970935E+02  0.00000000000E+00 0. -1.
</event>
<event>
 7    1  0.2714068E-010  0.4778727E+02  0.7816164E-02  0.1312668E+00
        -11   -1    0    0    0    0  0.00000000000E+00  0.00000000000E+00  0.45593999997E+02  0.45594000000E+02  0.51100000000E-03 0.  1.
         11   -1    0    0    0    0 -0.00000000000E+00 -0.00000000000E+00 -0.45593999997E+02  0.45594000000E+02  0.51100000000E-03 0. -1.
    9900012    2    1    2    0    0 -0.22936565144E+01  0.58764312868E+01 -0.42939840243E+02  0.47787272069E+02  0.20000004671E+02 0.  0.
        -12    1    1    2    0    0  0.22936565144E+01 -0.58764312868E+01  0.42939840243E+02  0.43400727931E+02  0.00000000000E+00 0.  1.
         11    1    3    3    0    0 -0.27460255785E+00  0.93409078909E+00 -0.25430604007E+02  0.25449234813E+02  0.51100000000E-03 0. -1.
        -11    1    3    3    0    0 -0.27454405874E+01 -0.28487453028E+01 -0.10190308727E+01  0.40854887101E+01  0.51100000000E-03 0.  1.
        -12    1    3    3    0    0  0.72638663088E+00  0.77910858005E+01 -0.16490205363E+02  0.18252548546E+02  0.00000000000E+00 0.  1.
</event>
<event>
 7    1  0.2714068E-010  0.4778727E+02  0.7816164E-02  0.1312668E+00
        -11   -1    0    0    0    0  0.00000000000E+00  0.00000000000E+00  0.45593999997E+02  0.45594000000E+02  0.51100000000E-03 0.  1.
         11   -1    0    0    0    0 -0.00000000000E+00 -0.00000000000E+00 -0.45593999997E+02  0.45594000000E+02  0.51100000000E-03 0. -1.
    9900012    2    1    2    0    0 -0.57468919221E+01  0.32370229693E+02 -0.28333104877E+02  0.47787269947E+02  0.19999994996E+02 0.  0.
        -12    1    1    2    0    0  0.57468919221E+01 -0.32370229693E+02  0.28333104877E+02  0.43400730053E+02  0.00000000000E+00 0.  1.
         11    1    3    3    0    0 -0.10298939263E+01  0.32295804731E+01 -0.67704461400E+01  0.75716453118E+01  0.51100000000E-03 0. -1.
        -11    1    3    3    0    0 -0.29924188490E+01  0.62023461473E+00 -0.80468777121E+01  0.86076421115E+01  0.51100000000E-03 0.  1.
        -12    1    3    3    0    0 -0.17245791468E+01  0.28520414605E+02 -0.13515781025E+02  0.31607982524E+02  0.00000000000E+00 0.  1.
</event>
<event>
 7    1  0.2714068E-010  0.4778727E+02  0.7816164E-02  0.1312668E+00
        -11   -1    0    0    0    0  0.00000000000E+00  0.00000000000E+00  0.45593999997E+02  0.45594000000E+02  0.51100000000E-03 0. -1.
         11   -1    0    0    0    0 -0.00000000000E+00 -0.00000000000E+00 -0.45593999997E+02  0.45594000000E+02  0.51100000000E-03 0.  1.
    9900012    2    1    2    0    0 -0.17484934065E+01 -0.18505160608E+02  0.39218937881E+02  0.47787270895E+02  0.19999999321E+02 0.  0.
        -12    1    1    2    0    0  0.17484934065E+01  0.18505160608E+02 -0.39218937881E+02  0.43400729105E+02  0.00000000000E+00 0.  1.
         11    1    3    3    0    0 -0.48190134378E+01 -0.14984353989E+01  0.63227788117E+01  0.80898536032E+01  0.51100000000E-03 0. -1.
        -11    1    3    3    0    0  0.73004956240E+01 -0.12972480969E+02  0.16165898524E+02  0.21975412947E+02  0.51100000000E-03 0.  1.
        -12    1    3    3    0    0 -0.42299755926E+01 -0.40342442399E+01  0.16730260545E+02  0.17722004345E+02  0.00000000000E+00 0.  1.
</event>
<event>
 7    1  0.2714068E-010  0.4778727E+02  0.7816164E-02  0.1312668E+00
        -11   -1    0    0    0    0  0.00000000000E+00  0.00000000000E+00  0.45593999997E+02  0.45594000000E+02  0.51100000000E-03 0.  1.
         11   -1    0    0    0    0 -0.00000000000E+00 -0.00000000000E+00 -0.45593999997E+02  0.45594000000E+02  0.51100000000E-03 0. -1.
    9900012    2    1    2    0    0 -0.88445573923E+01  0.99665485124E+00 -0.42478275251E+02  0.47787269769E+02  0.19999994183E+02 0.  0.
        -12    1    1    2    0    0  0.88445573923E+01 -0.99665485124E+00  0.42478275251E+02  0.43400730231E+02  0.00000000000E+00 0.  1.
         11    1    3    3    0    0 -0.10305841915E+02 -0.34570896239E+00 -0.34903978111E+02  0.36395296131E+02  0.51100000000E-03 0. -1.
        -11    1    3    3    0    0  0.44386866864E+01 -0.10905474784E+01 -0.32673626094E+01  0.56184421315E+01  0.51100000000E-03 0.  1.
         12    1    3    3    0    0 -0.29774021640E+01  0.24329112920E+01 -0.43069345305E+01  0.57735315061E+01  0.00000000000E+00 0. -1.
</event>
<event>
 7    1  0.2714068E-010  0.4778727E+02  0.7816164E-02  0.1312668E+00
        -11   -1    0    0    0    0  0.00000000000E+00  0.00000000000E+00  0.45593999997E+02  0.45594000000E+02  0.51100000000E-03 0.  1.
         11   -1    0    0    0    0 -0.00000000000E+00 -0.00000000000E+00 -0.45593999997E+02  0.45594000000E+02  0.51100000000E-03 0. -1.
    9900012    2    1    2    0    0  0.18392895406E+02  0.23696698464E+02 -0.31365442980E+02  0.47787272669E+02  0.20000007409E+02 0.  0.
        -12    1    1    2    0    0 -0.18392895406E+02 -0.23696698464E+02  0.31365442980E+02  0.43400727331E+02  0.00000000000E+00 0.  1.
         11    1    3    3    0    0 -0.95724612399E+00  0.77753970805E+01 -0.70228129844E+01  0.10521075153E+02  0.51100000000E-03 0. -1.
        -11    1    3    3    0    0  0.15697530974E+02  0.59917195728E+01 -0.10387540795E+02  0.19753839782E+02  0.51100000000E-03 0.  1.
        -12    1    3    3    0    0  0.36526105556E+01  0.99295818110E+01 -0.13955089200E+02  0.17512357734E+02  0.00000000000E+00 0.  1.
</event>
<event>
 7    1  0.2714068E-010  0.4778727E+02  0.7816164E-02  0.1312668E+00
        -11   -1    0    0    0    0  0.00000000000E+00  0.00000000000E+00  0.45593999997E+02  0.45594000000E+02  0.51100000000E-03 0. -1.
         11   -1    0    0    0    0 -0.00000000000E+00 -0.00000000000E+00 -0.45593999997E+02  0.45594000000E+02  0.51100000000E-03 0.  1.
    9900012    2    1    2    0    0  0.10438921221E+02  0.33900695482E+02  0.25007901223E+02  0.47787270121E+02  0.19999995792E+02 0.  0.
        -12    1    1    2    0    0 -0.10438921221E+02 -0.33900695482E+02 -0.25007901223E+02  0.43400729879E+02  0.00000000000E+00 0.  1.
         11    1    3    3    0    0  0.14690435941E+01  0.94923822885E+01  0.18907474704E+01  0.97897056570E+01  0.51100000000E-03 0. -1.
        -11    1    3    3    0    0 -0.40998886352E+01  0.68093857259E+01  0.85704851614E+01  0.11688885188E+02  0.51100000000E-03 0.  1.
        -12    1    3    3    0    0  0.13069766262E+02  0.17598927468E+02  0.14546668591E+02  0.26308679276E+02  0.00000000000E+00 0.  1.
</event>
<event>
 7    1  0.2714068E-010  0.4778726E+02  0.7816164E-02  0.1312668E+00
        -11   -1    0    0    0    0  0.00000000000E+00  0.00000000000E+00  0.45593999997E+02  0.45594000000E+02  0.51100000000E-03 0. -1.
         11   -1    0    0    0    0 -0.00000000000E+00 -0.00000000000E+00 -0.45593999997E+02  0.45594000000E+02  0.51100000000E-03 0.  1.
    9900012    2    1    2    0    0 -0.41356335841E+02  0.11845660907E+02 -0.57408826236E+01  0.47787263488E+02  0.19999965546E+02 0.  0.
        -12    1    1    2    0    0  0.41356335841E+02 -0.11845660907E+02  0.57408826236E+01  0.43400736512E+02  0.00000000000E+00 0.  1.
         11    1    3    3    0    0 -0.29082738000E+01 -0.35523661059E+01 -0.60239644505E+00  0.46303610210E+01  0.51100000000E-03 0. -1.
        -11    1    3    3    0    0 -0.32219408209E+02  0.10619207813E+02 -0.28192815074E+00  0.33925467184E+02  0.51100000000E-03 0.  1.
         12    1    3    3    0    0 -0.62286538325E+01  0.47788191995E+01 -0.48565580278E+01  0.92314352830E+01  0.00000000000E+00 0. -1.
</event>
<event>
 7    1  0.2714068E-010  0.4778727E+02  0.7816164E-02  0.1312668E+00
        -11   -1    0    0    0    0  0.00000000000E+00  0.00000000000E+00  0.45593999997E+02  0.45594000000E+02  0.51100000000E-03 0.  1.
         11   -1    0    0    0    0 -0.00000000000E+00 -0.00000000000E+00 -0.45593999997E+02  0.45594000000E+02  0.51100000000E-03 0. -1.
    9900012    2    1    2    0    0  0.28023730607E+02  0.31509089828E+02 -0.10269914804E+02  0.47787269948E+02  0.19999995002E+02 0.  0.
        -12    1    1    2    0    0 -0.28023730607E+02 -0.31509089828E+02  0.10269914804E+02  0.43400730052E+02  0.00000000000E+00 0.  1.
         11    1    3    3    0    0  0.10610671444E+02  0.47759348855E+01 -0.42986888500E+01  0.12404621260E+02  0.51100000000E-03 0. -1.
        -11    1    3    3    0    0  0.15824134567E+01  0.63877245814E+01  0.40470057248E+01  0.77256270472E+01  0.51100000000E-03 0.  1.
        -12    1    3    3    0    0  0.15830645707E+02  0.20345430361E+02 -0.10018231678E+02  0.27657021641E+02  0.00000000000E+00 0.  1.
</event>
<event>
 7    1  0.2714068E-010  0.4778726E+02  0.7816164E-02  0.1312668E+00
        -11   -1    0    0    0    0  0.00000000000E+00  0.00000000000E+00  0.45593999997E+02  0.45594000000E+02  0.51100000000E-03 0.  1.
         11   -1    0    0    0    0 -0.00000000000E+00 -0.00000000000E+00 -0.45593999997E+02  0.45594000000E+02  0.51100000000E-03 0. -1.
    9900012    2    1    2    0    0  0.92475693261E+01  0.17976321410E+02 -0.38405191734E+02  0.47787257818E+02  0.19999939693E+02 0.  0.
        -12    1    1    2    0    0 -0.92475693261E+01 -0.17976321410E+02  0.38405191734E+02  0.43400742182E+02  0.00000000000E+00 0.  1.
         11    1    3    3    0    0  0.13607390683E+02  0.13186523938E+02 -0.31971113188E+02  0.37164466545E+02  0.51100000000E-03 0. -1.
        -11    1    3    3    0    0 -0.51539743813E+01  0.45967115892E+01 -0.68314619824E+01  0.97140147434E+01  0.51100000000E-03 0.  1.
         12    1    3    3    0    0  0.79415302460E+00  0.19308588257E+00  0.39738343717E+00  0.90877652956E+00  0.00000000000E+00 0. -1.
</event>
<event>
 7    1  0.2714068E-010  0.4778727E+02  0.7816164E-02  0.1312668E+00
        -11   -1    0    0    0    0  0.00000000000E+00  0.00000000000E+00  0.45593999997E+02  0.45594000000E+02  0.51100000000E-03 0.  1.
         11   -1    0    0    0    0 -0.00000000000E+00 -0.00000000000E+00 -0.45593999997E+02  0.45594000000E+02  0.51100000000E-03 0. -1.
    9900012    2    1    2    0    0 -0.19515641103E+02  0.22197801112E+02 -0.31780822498E+02  0.47787270737E+02  0.19999998601E+02 0.  0.
        -12    1    1    2    0    0  0.19515641103E+02 -0.22197801112E+02  0.31780822498E+02  0.43400729263E+02  0.00000000000E+00 0.  1.
         11    1    3    3    0    0 -0.50743295812E+01  0.14047596202E+01 -0.14370450097E+02  0.15304640033E+02  0.51100000000E-03 0. -1.
        -11    1    3    3    0    0 -0.82630005021E+01  0.10327577360E+02 -0.28735451407E+01  0.13534891701E+02  0.51100000000E-03 0.  1.
         12    1    3    3    0    0 -0.61783110199E+01  0.10465464133E+02 -0.14536827260E+02  0.18947739004E+02  0.00000000000E+00 0. -1.
</event>
<event>
 7    1  0.2714068E-010  0.4778727E+02  0.7816164E-02  0.1312668E+00
        -11   -1    0    0    0    0  0.00000000000E+00  0.00000000000E+00  0.45593999997E+02  0.45594000000E+02  0.51100000000E-03 0. -1.
         11   -1    0    0    0    0 -0.00000000000E+00 -0.00000000000E+00 -0.45593999997E+02  0.45594000000E+02  0.51100000000E-03 0.  1.
    9900012    2    1    2    0    0 -0.67912858547E-01 -0.34556377615E+02 -0.26257864228E+02  0.47787270976E+02  0.19999999688E+02 0.  0.
        -12    1    1    2    0    0  0.67912858547E-01  0.34556377615E+02  0.26257864228E+02  0.43400729024E+02  0.00000000000E+00 0.  1.
         11    1    3    3    0    0  0.46591895607E+01 -0.13995431819E+02 -0.23689243162E+01  0.14939610498E+02  0.51100000000E-03 0. -1.
        -11    1    3    3    0    0 -0.34950400265E+01 -0.15372579447E+02 -0.11983285952E+02  0.19802288911E+02  0.51100000000E-03 0.  1.
         12    1    3    3    0    0 -0.12320623927E+01 -0.51883663489E+01 -0.11905653960E+02  0.13045371567E+02  0.00000000000E+00 0. -1.
</event>
<event>
 7    1  0.2714068E-010  0.4778727E+02  0.7816164E-02  0.1312668E+00
        -11   -1    0    0    0    0  0.00000000000E+00  0.00000000000E+00  0.45593999997E+02  0.45594000000E+02  0.51100000000E-03 0.  1.
         11   -1    0    0    0    0 -0.00000000000E+00 -0.00000000000E+00 -0.45593999997E+02  0.45594000000E+02  0.51100000000E-03 0. -1.
    9900012    2    1    2    0    0  0.42167871098E+02  0.35758415194E+01  0.96284545056E+01  0.47787272683E+02  0.20000007469E+02 0.  0.
        -12    1    1    2    0    0 -0.42167871098E+02 -0.35758415194E+01 -0.96284545056E+01  0.43400727317E+02  0.00000000000E+00 0.  1.
         11    1    3    3    0    0  0.28604594799E+02  0.60502542444E+00  0.37488661335E+01  0.28855552272E+02  0.51100000000E-03 0. -1.
        -11    1    3    3    0    0  0.51571337546E+01  0.28546159160E+01  0.83028967970E+01  0.10182482805E+02  0.51100000000E-03 0.  1.
        -12    1    3    3    0    0  0.84061425445E+01  0.11620017898E+00 -0.24233084248E+01  0.87492376058E+01  0.00000000000E+00 0.  1.
</event>
<event>
 7    1  0.2714068E-010  0.4778726E+02  0.7816164E-02  0.1312668E+00
        -11   -1    0    0    0    0  0.00000000000E+00  0.00000000000E+00  0.45593999997E+02  0.45594000000E+02  0.51100000000E-03 0.  1.
         11   -1    0    0    0    0 -0.00000000000E+00 -0.00000000000E+00 -0.45593999997E+02  0.45594000000E+02  0.51100000000E-03 0. -1.
    9900012    2    1    2    0    0 -0.40450303822E+02  0.10908402823E+02 -0.11331562036E+02  0.47787255426E+02  0.19999928789E+02 0.  0.
        -12    1    1    2    0    0  0.40450303822E+02 -0.10908402823E+02  0.11331562036E+02  0.43400744574E+02  0.00000000000E+00 0.  1.
         11    1    3    3    0    0 -0.24061922585E+02  0.27957069250E+01  0.13576361135E+00  0.24224172384E+02  0.51100000000E-03 0. -1.
        -11    1    3    3    0    0 -0.73035309277E+01 -0.61948881639E+00 -0.14647736286E+01  0.74746834348E+01  0.51100000000E-03 0.  1.
         12    1    3    3    0    0 -0.90848503093E+01  0.87321847141E+01 -0.10002552019E+02  0.16088399607E+02  0.00000000000E+00 0. -1.
</event>
<event>
 7    1  0.2714068E-010  0.4778728E+02  0.7816164E-02  0.1312668E+00
        -11   -1    0    0    0    0  0.00000000000E+00  0.00000000000E+00  0.45593999997E+02  0.45594000000E+02  0.51100000000E-03 0.  1.
         11   -1    0    0    0    0 -0.00000000000E+00 -0.00000000000E+00 -0.45593999997E+02  0.45594000000E+02  0.51100000000E-03 0. -1.
    9900012    2    1    2    0    0  0.20664642896E+02 -0.24986561032E+01 -0.38083489089E+02  0.47787275472E+02  0.20000020187E+02 0.  0.
        -12    1    1    2    0    0 -0.20664642896E+02  0.24986561032E+01  0.38083489089E+02  0.43400724528E+02  0.00000000000E+00 0.  1.
         11    1    3    3    0    0 -0.18949243266E+01 -0.39570773497E+01 -0.76684014850E+01  0.88347937696E+01  0.51100000000E-03 0. -1.
        -11    1    3    3    0    0 -0.34635110520E+00 -0.92526217823E+00 -0.28341539367E+00  0.10278101639E+01  0.51100000000E-03 0.  1.
         12    1    3    3    0    0  0.22905918328E+02  0.23836834247E+01 -0.30131672211E+02  0.37924671539E+02  0.00000000000E+00 0. -1.
</event>
<event>
 7    1  0.2714068E-010  0.4778728E+02  0.7816164E-02  0.1312668E+00
        -11   -1    0    0    0    0  0.00000000000E+00  0.00000000000E+00  0.45593999997E+02  0.45594000000E+02  0.51100000000E-03 0.  1.
         11   -1    0    0    0    0 -0.00000000000E+00 -0.00000000000E+00 -0.45593999997E+02  0.45594000000E+02  0.51100000000E-03 0. -1.
    9900012    2    1    2    0    0  0.22505513926E+02  0.42405491549E+01 -0.36866546485E+02  0.47787278072E+02  0.20000032039E+02 0.  0.
        -12    1    1    2    0    0 -0.22505513926E+02 -0.42405491549E+01  0.36866546485E+02  0.43400721928E+02  0.00000000000E+00 0.  1.
         11    1    3    3    0    0  0.21662913672E+02  0.91490240181E+01 -0.22832080285E+02  0.32776368921E+02  0.51100000000E-03 0. -1.
        -11    1    3    3    0    0 -0.27345487842E+00 -0.27756484335E+01 -0.91475301515E+01  0.95632792457E+01  0.51100000000E-03 0.  1.
         12    1    3    3    0    0  0.11160551318E+01 -0.21328264297E+01 -0.48869360486E+01  0.54476299048E+01  0.00000000000E+00 0. -1.
</event>
<event>
 7    1  0.2714068E-010  0.4778728E+02  0.7816164E-02  0.1312668E+00
        -11   -1    0    0    0    0  0.00000000000E+00  0.00000000000E+00  0.45593999997E+02  0.45594000000E+02  0.51100000000E-03 0.  1.
         11   -1    0    0    0    0 -0.00000000000E+00 -0.00000000000E+00 -0.45593999997E+02  0.45594000000E+02  0.51100000000E-03 0. -1.
    9900012    2    1    2    0    0 -0.19959137218E+02 -0.18221454191E+02 -0.33959304559E+02  0.47787275151E+02  0.20000018723E+02 0.  0.
        -12    1    1    2    0    0  0.19959137218E+02  0.18221454191E+02  0.33959304559E+02  0.43400724849E+02  0.00000000000E+00 0.  1.
         11    1    3    3    0    0 -0.14495981928E+02 -0.34742749338E+01 -0.19338801970E+02  0.24417070673E+02  0.51100000000E-03 0. -1.
        -11    1    3    3    0    0 -0.11178963120E+01 -0.12844172243E+02 -0.13120884928E+02  0.18395110066E+02  0.51100000000E-03 0.  1.
        -12    1    3    3    0    0 -0.43452589778E+01 -0.19030070143E+01 -0.14996176608E+01  0.49750944121E+01  0.00000000000E+00 0.  1.
</event>
<event>
 7    1  0.2714068E-010  0.4778727E+02  0.7816164E-02  0.1312668E+00
        -11   -1    0    0    0    0  0.00000000000E+00  0.00000000000E+00  0.45593999997E+02  0.45594000000E+02  0.51100000000E-03 0.  1.
         11   -1    0    0    0    0 -0.00000000000E+00 -0.00000000000E+00 -0.45593999997E+02  0.45594000000E+02  0.51100000000E-03 0. -1.
    9900012    2    1    2    0    0  0.11125624614E+00 -0.34862773072E+02 -0.25849526166E+02  0.47787270430E+02  0.19999997197E+02 0.  0.
        -12    1    1    2    0    0 -0.11125624614E+00  0.34862773072E+02  0.25849526166E+02  0.43400729570E+02  0.00000000000E+00 0.  1.
         11    1    3    3    0    0  0.12184547954E+01 -0.29696563339E+02 -0.26464081734E+02  0.39795956183E+02  0.51100000000E-03 0. -1.
        -11    1    3    3    0    0  0.12142848070E+01  0.74663830593E+00 -0.55975833644E+00  0.15314326654E+01  0.51100000000E-03 0.  1.
         12    1    3    3    0    0 -0.23214833563E+01 -0.59128480386E+01  0.11743139036E+01  0.64598815814E+01  0.00000000000E+00 0. -1.
</event>
<event>
 7    1  0.2714068E-010  0.4778727E+02  0.7816164E-02  0.1312668E+00
        -11   -1    0    0    0    0  0.00000000000E+00  0.00000000000E+00  0.45593999997E+02  0.45594000000E+02  0.51100000000E-03 0.  1.
         11   -1    0    0    0    0 -0.00000000000E+00 -0.00000000000E+00 -0.45593999997E+02  0.45594000000E+02  0.51100000000E-03 0. -1.
    9900012    2    1    2    0    0 -0.85836593978E+01 -0.31023235903E+02 -0.29111901544E+02  0.47787272056E+02  0.20000004614E+02 0.  0.
        -12    1    1    2    0    0  0.85836593978E+01  0.31023235903E+02  0.29111901544E+02  0.43400727944E+02  0.00000000000E+00 0.  1.
         11    1    3    3    0    0 -0.85046604946E+01 -0.29901350599E+02 -0.27983494231E+02  0.41826976551E+02  0.51100000000E-03 0. -1.
        -11    1    3    3    0    0 -0.13201106466E+01 -0.65504736009E+00 -0.31872117677E+01  0.35114239671E+01  0.51100000000E-03 0.  1.
         12    1    3    3    0    0  0.12411117434E+01 -0.46683794366E+00  0.20588044552E+01  0.24488715381E+01  0.00000000000E+00 0. -1.
</event>
<event>
 7    1  0.2714068E-010  0.4778727E+02  0.7816164E-02  0.1312668E+00
        -11   -1    0    0    0    0  0.00000000000E+00  0.00000000000E+00  0.45593999997E+02  0.45594000000E+02  0.51100000000E-03 0.  1.
         11   -1    0    0    0    0 -0.00000000000E+00 -0.00000000000E+00 -0.45593999997E+02  0.45594000000E+02  0.51100000000E-03 0. -1.
    9900012    2    1    2    0    0 -0.92391599383E+01 -0.18277636809E+02 -0.38264726662E+02  0.47787269704E+02  0.19999993888E+02 0.  0.
        -12    1    1    2    0    0  0.92391599383E+01  0.18277636809E+02  0.38264726662E+02  0.43400730296E+02  0.00000000000E+00 0.  1.
         11    1    3    3    0    0 -0.56612834279E+01 -0.68941132019E+01 -0.17342153464E+02  0.19502031020E+02  0.51100000000E-03 0. -1.
        -11    1    3    3    0    0 -0.74612688527E+01 -0.72297079593E+00 -0.64038688173E+01  0.98591457923E+01  0.51100000000E-03 0.  1.
        -12    1    3    3    0    0  0.38833923423E+01 -0.10660552811E+02 -0.14518704382E+02  0.18426092891E+02  0.00000000000E+00 0.  1.
</event>
<event>
 7    1  0.2714068E-010  0.4778727E+02  0.7816164E-02  0.1312668E+00
        -11   -1    0    0    0    0  0.00000000000E+00  0.00000000000E+00  0.45593999997E+02  0.45594000000E+02  0.51100000000E-03 0. -1.
         11   -1    0    0    0    0 -0.00000000000E+00 -0.00000000000E+00 -0.45593999997E+02  0.45594000000E+02  0.51100000000E-03 0.  1.
    9900012    2    1    2    0    0  0.24910899997E+02 -0.18210784664E+01  0.35493011101E+02  0.47787273019E+02  0.20000009005E+02 0.  0.
        -12    1    1    2    0    0 -0.24910899997E+02  0.18210784664E+01 -0.35493011101E+02  0.43400726981E+02  0.00000000000E+00 0.  1.
         11    1    3    3    0    0  0.13988754789E+02 -0.58772348799E+01  0.23197421269E+02  0.27719081950E+02  0.51100000000E-03 0. -1.
        -11    1    3    3    0    0 -0.20173808718E+01  0.10565884798E+01  0.56315087981E+00  0.23459207088E+01  0.51100000000E-03 0.  1.
         12    1    3    3    0    0  0.12939526080E+02  0.29995679337E+01  0.11732438952E+02  0.17722270360E+02  0.00000000000E+00 0. -1.
</event>
<event>
 7    1  0.2714068E-010  0.4778727E+02  0.7816164E-02  0.1312668E+00
        -11   -1    0    0    0    0  0.00000000000E+00  0.00000000000E+00  0.45593999997E+02  0.45594000000E+02  0.51100000000E-03 0.  1.
         11   -1    0    0    0    0 -0.00000000000E+00 -0.00000000000E+00 -0.45593999997E+02  0.45594000000E+02  0.51100000000E-03 0. -1.
    9900012    2    1    2    0    0  0.36135344984E+02  0.21207402516E+02 -0.11318392679E+02  0.47787273146E+02  0.20000009583E+02 0.  0.
        -12    1    1    2    0    0 -0.36135344984E+02 -0.21207402516E+02  0.11318392679E+02  0.43400726854E+02  0.00000000000E+00 0.  1.
         11    1    3    3    0    0  0.64749490897E+01  0.14564367489E+01  0.40325049386E+01  0.77657755606E+01  0.51100000000E-03 0.  1.
        -11    1    3    3    0    0  0.21923275744E+02  0.17589441998E+02 -0.15270740587E+02  0.31987716510E+02  0.51100000000E-03 0. -1.
         12    1    3    3    0    0  0.77371201504E+01  0.21615237688E+01 -0.80157030944E-01  0.80337810759E+01  0.00000000000E+00 0. -1.
</event>
<event>
 7    1  0.2714068E-010  0.4778728E+02  0.7816164E-02  0.1312668E+00
        -11   -1    0    0    0    0  0.00000000000E+00  0.00000000000E+00  0.45593999997E+02  0.45594000000E+02  0.51100000000E-03 0.  1.
         11   -1    0    0    0    0 -0.00000000000E+00 -0.00000000000E+00 -0.45593999997E+02  0.45594000000E+02  0.51100000000E-03 0. -1.
    9900012    2    1    2    0    0 -0.22984363750E+02 -0.66096153083E+01 -0.36216771291E+02  0.47787279796E+02  0.20000039902E+02 0.  0.
        -12    1    1    2    0    0  0.22984363750E+02  0.66096153083E+01  0.36216771291E+02  0.43400720204E+02  0.00000000000E+00 0.  1.
         11    1    3    3    0    0 -0.13158213705E+02 -0.58130843160E+01 -0.22981610907E+02  0.27112450596E+02  0.51100000000E-03 0. -1.
        -11    1    3    3    0    0 -0.37068627221E+01  0.28188035640E+01  0.10008289054E+01  0.47632072736E+01  0.51100000000E-03 0.  1.
        -12    1    3    3    0    0 -0.61192873227E+01 -0.36153345563E+01 -0.14235989289E+02  0.15911621927E+02  0.00000000000E+00 0.  1.
</event>
<event>
 7    1  0.2714068E-010  0.4778727E+02  0.7816164E-02  0.1312668E+00
        -11   -1    0    0    0    0  0.00000000000E+00  0.00000000000E+00  0.45593999997E+02  0.45594000000E+02  0.51100000000E-03 0.  1.
         11   -1    0    0    0    0 -0.00000000000E+00 -0.00000000000E+00 -0.45593999997E+02  0.45594000000E+02  0.51100000000E-03 0. -1.
    9900012    2    1    2    0    0  0.62395046411E+01 -0.42581059992E+02  0.56164980866E+01  0.47787272599E+02  0.20000007087E+02 0.  0.
        -12    1    1    2    0    0 -0.62395046411E+01  0.42581059992E+02 -0.56164980866E+01  0.43400727401E+02  0.00000000000E+00 0.  1.
         11    1    3    3    0    0  0.33641359416E+01  0.20276571927E+00 -0.12906750808E+01  0.36089287879E+01  0.51100000000E-03 0.  1.
        -11    1    3    3    0    0  0.17646257898E+01 -0.28997240126E+02  0.80829257184E+00  0.29062126148E+02  0.51100000000E-03 0. -1.
        -12    1    3    3    0    0  0.11107429096E+01 -0.13786585585E+02  0.60988805956E+01  0.15116217662E+02  0.00000000000E+00 0.  1.
</event>
<event>
 7    1  0.2714068E-010  0.4778728E+02  0.7816164E-02  0.1312668E+00
        -11   -1    0    0    0    0  0.00000000000E+00  0.00000000000E+00  0.45593999997E+02  0.45594000000E+02  0.51100000000E-03 0.  1.
         11   -1    0    0    0    0 -0.00000000000E+00 -0.00000000000E+00 -0.45593999997E+02  0.45594000000E+02  0.51100000000E-03 0. -1.
    9900012    2    1    2    0    0  0.33593732552E+02  0.26486133692E+02 -0.73190559287E+01  0.47787277374E+02  0.20000028861E+02 0.  0.
        -12    1    1    2    0    0 -0.33593732552E+02 -0.26486133692E+02  0.73190559287E+01  0.43400722626E+02  0.00000000000E+00 0.  1.
         11    1    3    3    0    0  0.17440875480E+02  0.47568022038E+01 -0.55819103640E+01  0.18920069458E+02  0.51100000000E-03 0. -1.
        -11    1    3    3    0    0  0.89611722342E+01  0.17781927846E+02 -0.40997835605E+01  0.20329972730E+02  0.51100000000E-03 0.  1.
        -12    1    3    3    0    0  0.71916848374E+01  0.39474036431E+01  0.23626379958E+01  0.85372351861E+01  0.00000000000E+00 0.  1.
</event>
<event>
 7    1  0.2714068E-010  0.4778727E+02  0.7816164E-02  0.1312668E+00
        -11   -1    0    0    0    0  0.00000000000E+00  0.00000000000E+00  0.45593999997E+02  0.45594000000E+02  0.51100000000E-03 0. -1.
         11   -1    0    0    0    0 -0.00000000000E+00 -0.00000000000E+00 -0.45593999997E+02  0.45594000000E+02  0.51100000000E-03 0.  1.
    9900012    2    1    2    0    0  0.17324395308E+02  0.37732010326E+02  0.12640565289E+02  0.47787272278E+02  0.20000005624E+02 0.  0.
        -12    1    1    2    0    0 -0.17324395308E+02 -0.37732010326E+02 -0.12640565289E+02  0.43400727722E+02  0.00000000000E+00 0.  1.
         11    1    3    3    0    0  0.26351745684E+01  0.23684137574E+02  0.10250651601E+02  0.25941441289E+02  0.51100000000E-03 0. -1.
        -11    1    3    3    0    0  0.77554899416E+01  0.34904144446E+01  0.34342534107E+01  0.91719525718E+01  0.51100000000E-03 0.  1.
        -12    1    3    3    0    0  0.69337307975E+01  0.10557458307E+02 -0.10443397230E+01  0.12673878417E+02  0.00000000000E+00 0.  1.
</event>
<event>
 7    1  0.2714068E-010  0.4778727E+02  0.7816164E-02  0.1312668E+00
        -11   -1    0    0    0    0  0.00000000000E+00  0.00000000000E+00  0.45593999997E+02  0.45594000000E+02  0.51100000000E-03 0.  1.
         11   -1    0    0    0    0 -0.00000000000E+00 -0.00000000000E+00 -0.45593999997E+02  0.45594000000E+02  0.51100000000E-03 0. -1.
    9900012    2    1    2    0    0  0.74437305284E+01  0.41987158662E+02 -0.80804053038E+01  0.47787267672E+02  0.19999984626E+02 0.  0.
        -12    1    1    2    0    0 -0.74437305284E+01 -0.41987158662E+02  0.80804053038E+01  0.43400732328E+02  0.00000000000E+00 0.  1.
         11    1    3    3    0    0 -0.13680953829E+01  0.48336042622E+01  0.46144974043E+01  0.68212170246E+01  0.51100000000E-03 0.  1.
        -11    1    3    3    0    0  0.98313441341E+01  0.31589762857E+02 -0.12296886800E+02  0.35295635284E+02  0.51100000000E-03 0. -1.
         12    1    3    3    0    0 -0.10195182227E+01  0.55637915427E+01 -0.39801590787E+00  0.56704153640E+01  0.00000000000E+00 0. -1.
</event>
<event>
 7    1  0.2714068E-010  0.4778727E+02  0.7816164E-02  0.1312668E+00
        -11   -1    0    0    0    0  0.00000000000E+00  0.00000000000E+00  0.45593999997E+02  0.45594000000E+02  0.51100000000E-03 0. -1.
         11   -1    0    0    0    0 -0.00000000000E+00 -0.00000000000E+00 -0.45593999997E+02  0.45594000000E+02  0.51100000000E-03 0.  1.
    9900012    2    1    2    0    0 -0.27667158426E+02 -0.15463709677E+02 -0.29648356705E+02  0.47787273881E+02  0.20000012932E+02 0.  0.
        -12    1    1    2    0    0  0.27667158426E+02  0.15463709677E+02  0.29648356705E+02  0.43400726119E+02  0.00000000000E+00 0.  1.
         11    1    3    3    0    0 -0.11556720314E+02 -0.96978646491E+01 -0.75412132166E+01  0.16866424049E+02  0.51100000000E-03 0. -1.
        -11    1    3    3    0    0  0.27633894516E+00 -0.50572125508E+01 -0.68556999287E+01  0.85236367690E+01  0.51100000000E-03 0.  1.
        -12    1    3    3    0    0 -0.16386777057E+02 -0.70863247749E+00 -0.15251443560E+02  0.22397213062E+02  0.00000000000E+00 0.  1.
</event>
<event>
 7    1  0.2714068E-010  0.4778727E+02  0.7816164E-02  0.1312668E+00
        -11   -1    0    0    0    0  0.00000000000E+00  0.00000000000E+00  0.45593999997E+02  0.45594000000E+02  0.51100000000E-03 0.  1.
         11   -1    0    0    0    0 -0.00000000000E+00 -0.00000000000E+00 -0.45593999997E+02  0.45594000000E+02  0.51100000000E-03 0. -1.
    9900012    2    1    2    0    0 -0.26728738883E+02  0.14913776453E+02 -0.30769742199E+02  0.47787271373E+02  0.20000001499E+02 0.  0.
        -12    1    1    2    0    0  0.26728738883E+02 -0.14913776453E+02  0.30769742199E+02  0.43400728627E+02  0.00000000000E+00 0.  1.
         11    1    3    3    0    0 -0.14280112546E+02  0.55650454340E+01 -0.15831946871E+02  0.22035015022E+02  0.51100000000E-03 0. -1.
        -11    1    3    3    0    0 -0.83229580533E+00  0.92914302017E+01 -0.73628036377E+01  0.11884202505E+02  0.51100000000E-03 0.  1.
         12    1    3    3    0    0 -0.11616330531E+02  0.57300816883E-01 -0.75749916906E+01  0.13868053847E+02  0.00000000000E+00 0. -1.
</event>
<event>
 7    1  0.2714068E-010  0.4778727E+02  0.7816164E-02  0.1312668E+00
        -11   -1    0    0    0    0  0.00000000000E+00  0.00000000000E+00  0.45593999997E+02  0.45594000000E+02  0.51100000000E-03 0.  1.
         11   -1    0    0    0    0 -0.00000000000E+00 -0.00000000000E+00 -0.45593999997E+02  0.45594000000E+02  0.51100000000E-03 0. -1.
    9900012    2    1    2    0    0  0.14134217366E+02  0.39771883937E+02 -0.10101708952E+02  0.47787269866E+02  0.19999994625E+02 0.  0.
        -12    1    1    2    0    0 -0.14134217366E+02 -0.39771883937E+02  0.10101708952E+02  0.43400730134E+02  0.00000000000E+00 0.  1.
         11    1    3    3    0    0  0.24090277641E+01  0.81326109856E+01 -0.93724239342E+01  0.12640613390E+02  0.51100000000E-03 0. -1.
        -11    1    3    3    0    0  0.54559519161E+01  0.25781450807E+02 -0.21894874886E+01  0.26443231133E+02  0.51100000000E-03 0.  1.
        -12    1    3    3    0    0  0.62692376860E+01  0.58578221445E+01  0.14602024710E+01  0.87034253427E+01  0.00000000000E+00 0.  1.
</event>
<event>
 7    1  0.2714068E-010  0.4778726E+02  0.7816164E-02  0.1312668E+00
        -11   -1    0    0    0    0  0.00000000000E+00  0.00000000000E+00  0.45593999997E+02  0.45594000000E+02  0.51100000000E-03 0. -1.
         11   -1    0    0    0    0 -0.00000000000E+00 -0.00000000000E+00 -0.45593999997E+02  0.45594000000E+02  0.51100000000E-03 0.  1.
    9900012    2    1    2    0    0 -0.28543434829E+02  0.11239431556E+02  0.30701324206E+02  0.47787264966E+02  0.19999972285E+02 0.  0.
        -12    1    1    2    0    0  0.28543434829E+02 -0.11239431556E+02 -0.30701324206E+02  0.43400735034E+02  0.00000000000E+00 0.  1.
         11    1    3    3    0    0 -0.25024534352E+02  0.43519899461E+01  0.21787974529E+02  0.33464652551E+02  0.51100000000E-03 0. -1.
        -11    1    3    3    0    0 -0.61519061978E+01  0.53591597008E+01  0.67275140610E+01  0.10574780767E+02  0.51100000000E-03 0.  1.
         12    1    3    3    0    0  0.26330057211E+01  0.15282819092E+01  0.21858356154E+01  0.37478316476E+01  0.00000000000E+00 0. -1.
</event>
<event>
 7    1  0.2714068E-010  0.4778727E+02  0.7816164E-02  0.1312668E+00
        -11   -1    0    0    0    0  0.00000000000E+00  0.00000000000E+00  0.45593999997E+02  0.45594000000E+02  0.51100000000E-03 0. -1.
         11   -1    0    0    0    0 -0.00000000000E+00 -0.00000000000E+00 -0.45593999997E+02  0.45594000000E+02  0.51100000000E-03 0.  1.
    9900012    2    1    2    0    0 -0.11331710629E+02 -0.25189615630E+02  0.33476840190E+02  0.47787271545E+02  0.20000002280E+02 0.  0.
        -12    1    1    2    0    0  0.11331710629E+02  0.25189615630E+02 -0.33476840190E+02  0.43400728455E+02  0.00000000000E+00 0.  1.
         11    1    3    3    0    0 -0.64649170490E+01 -0.33004785376E+01  0.15411911211E+02  0.17035707160E+02  0.51100000000E-03 0. -1.
        -11    1    3    3    0    0 -0.43827504700E+01 -0.13666942238E+02  0.47930590611E+01  0.15131663070E+02  0.51100000000E-03 0.  1.
        -12    1    3    3    0    0 -0.48404310950E+00 -0.82221948540E+01  0.13271869918E+02  0.15619901315E+02  0.00000000000E+00 0.  1.
</event>
<event>
 7    1  0.2714068E-010  0.4778727E+02  0.7816164E-02  0.1312668E+00
        -11   -1    0    0    0    0  0.00000000000E+00  0.00000000000E+00  0.45593999997E+02  0.45594000000E+02  0.51100000000E-03 0.  1.
         11   -1    0    0    0    0 -0.00000000000E+00 -0.00000000000E+00 -0.45593999997E+02  0.45594000000E+02  0.51100000000E-03 0. -1.
    9900012    2    1    2    0    0  0.31624424279E+02 -0.27263553413E+02 -0.11841367956E+02  0.47787267855E+02  0.19999985456E+02 0.  0.
        -12    1    1    2    0    0 -0.31624424279E+02  0.27263553413E+02  0.11841367956E+02  0.43400732145E+02  0.00000000000E+00 0.  1.
         11    1    3    3    0    0  0.26518219723E+02 -0.20352382903E+02 -0.78459072905E+01  0.34336478104E+02  0.51100000000E-03 0. -1.
        -11    1    3    3    0    0  0.14507621292E+01 -0.23003848942E+01 -0.65075278187E+01  0.70529710044E+01  0.51100000000E-03 0.  1.
        -12    1    3    3    0    0  0.36554424270E+01 -0.46107856151E+01  0.25120671528E+01  0.63978187460E+01  0.00000000000E+00 0.  1.
</event>
<event>
 7    1  0.2714068E-010  0.4778727E+02  0.7816164E-02  0.1312668E+00
        -11   -1    0    0    0    0  0.00000000000E+00  0.00000000000E+00  0.45593999997E+02  0.45594000000E+02  0.51100000000E-03 0. -1.
         11   -1    0    0    0    0 -0.00000000000E+00 -0.00000000000E+00 -0.45593999997E+02  0.45594000000E+02  0.51100000000E-03 0.  1.
    9900012    2    1    2    0    0 -0.30218676625E+02  0.17695460231E+02  0.25638362668E+02  0.47787269937E+02  0.19999994949E+02 0.  0.
        -12    1    1    2    0    0  0.30218676625E+02 -0.17695460231E+02 -0.25638362668E+02  0.43400730063E+02  0.00000000000E+00 0.  1.
         11    1    3    3    0    0 -0.12890285509E+02  0.12030352874E+02  0.46119148098E+01  0.18225219045E+02  0.51100000000E-03 0. -1.
        -11    1    3    3    0    0 -0.36691041517E+01 -0.25872916500E+01  0.69966062326E+01  0.83131764322E+01  0.51100000000E-03 0.  1.
        -12    1    3    3    0    0 -0.13659286964E+02  0.82523990070E+01  0.14029841626E+02  0.21248874459E+02  0.00000000000E+00 0.  1.
</event>
<event>
 7    1  0.2714068E-010  0.4778726E+02  0.7816164E-02  0.1312668E+00
        -11   -1    0    0    0    0  0.00000000000E+00  0.00000000000E+00  0.45593999997E+02  0.45594000000E+02  0.51100000000E-03 0.  1.
         11   -1    0    0    0    0 -0.00000000000E+00 -0.00000000000E+00 -0.45593999997E+02  0.45594000000E+02  0.51100000000E-03 0. -1.
    9900012    2    1    2    0    0  0.47640017176E+01  0.38984626898E+02 -0.18469623649E+02  0.47787264471E+02  0.19999970028E+02 0.  0.
        -12    1    1    2    0    0 -0.47640017176E+01 -0.38984626898E+02  0.18469623649E+02  0.43400735529E+02  0.00000000000E+00 0.  1.
         11    1    3    3    0    0  0.60323260060E+01  0.16928747329E+02 -0.15426801735E+02  0.23684544648E+02  0.51100000000E-03 0. -1.
        -11    1    3    3    0    0 -0.48617519517E+01  0.15843553875E+02 -0.33968211505E+01  0.16917246396E+02  0.51100000000E-03 0.  1.
         12    1    3    3    0    0  0.35934276632E+01  0.62123256945E+01  0.35399923678E+00  0.71854734267E+01  0.00000000000E+00 0. -1.
</event>
<event>
 7    1  0.2714068E-010  0.4778727E+02  0.7816164E-02  0.1312668E+00
        -11   -1    0    0    0    0  0.00000000000E+00  0.00000000000E+00  0.45593999997E+02  0.45594000000E+02  0.51100000000E-03 0. -1.
         11   -1    0    0    0    0 -0.00000000000E+00 -0.00000000000E+00 -0.45593999997E+02  0.45594000000E+02  0.51100000000E-03 0.  1.
    9900012    2    1    2    0    0  0.34508647063E+02 -0.16414563579E+02 -0.20575193533E+02  0.47787271797E+02  0.20000003431E+02 0.  0.
        -12    1    1    2    0    0 -0.34508647063E+02  0.16414563579E+02  0.20575193533E+02  0.43400728203E+02  0.00000000000E+00 0.  1.
         11    1    3    3    0    0  0.83480887097E+01 -0.33945156685E+01 -0.36679678048E+01  0.97297127299E+01  0.51100000000E-03 0. -1.
        -11    1    3    3    0    0  0.15351423269E+02 -0.41089580918E+01  0.26762423512E+00  0.15894066691E+02  0.51100000000E-03 0.  1.
        -12    1    3    3    0    0  0.10809135084E+02 -0.89110898184E+01 -0.17174849964E+02  0.22163492376E+02  0.00000000000E+00 0.  1.
</event>
<event>
 7    1  0.2714068E-010  0.4778727E+02  0.7816164E-02  0.1312668E+00
        -11   -1    0    0    0    0  0.00000000000E+00  0.00000000000E+00  0.45593999997E+02  0.45594000000E+02  0.51100000000E-03 0.  1.
         11   -1    0    0    0    0 -0.00000000000E+00 -0.00000000000E+00 -0.45593999997E+02  0.45594000000E+02  0.51100000000E-03 0. -1.
    9900012    2    1    2    0    0 -0.12627844282E+02  0.14481564980E+02 -0.38915871617E+02  0.47787271444E+02  0.20000001821E+02 0.  0.
        -12    1    1    2    0    0  0.12627844282E+02 -0.14481564980E+02  0.38915871617E+02  0.43400728556E+02  0.00000000000E+00 0.  1.
         11    1    3    3    0    0 -0.58192406716E+01  0.38816367697E+01 -0.26885892719E+02  0.27780962791E+02  0.51100000000E-03 0. -1.
        -11    1    3    3    0    0 -0.31974599696E+01  0.57605831300E+01 -0.47747719449E-01  0.65886530004E+01  0.51100000000E-03 0.  1.
        -12    1    3    3    0    0 -0.36111436404E+01  0.48393450803E+01 -0.11982231179E+02  0.13417655653E+02  0.00000000000E+00 0.  1.
</event>
<event>
 7    1  0.2714068E-010  0.4778727E+02  0.7816164E-02  0.1312668E+00
        -11   -1    0    0    0    0  0.00000000000E+00  0.00000000000E+00  0.45593999997E+02  0.45594000000E+02  0.51100000000E-03 0. -1.
         11   -1    0    0    0    0 -0.00000000000E+00 -0.00000000000E+00 -0.45593999997E+02  0.45594000000E+02  0.51100000000E-03 0.  1.
    9900012    2    1    2    0    0 -0.10446186549E+02  0.39941291827E+02 -0.13386328169E+02  0.47787269729E+02  0.19999994000E+02 0.  0.
        -12    1    1    2    0    0  0.10446186549E+02 -0.39941291827E+02  0.13386328169E+02  0.43400730271E+02  0.00000000000E+00 0.  1.
         11    1    3    3    0    0  0.28797890313E+01  0.28234908625E+01 -0.49395139066E+01  0.63768396099E+01  0.51100000000E-03 0. -1.
        -11    1    3    3    0    0 -0.71854336134E+01  0.12913679760E+02  0.75657362723E+00  0.14797499284E+02  0.51100000000E-03 0.  1.
         12    1    3    3    0    0 -0.61405419669E+01  0.24204121205E+02 -0.92033878892E+01  0.26612930834E+02  0.00000000000E+00 0. -1.
</event>
<event>
 7    1  0.2714068E-010  0.4778727E+02  0.7816164E-02  0.1312668E+00
        -11   -1    0    0    0    0  0.00000000000E+00  0.00000000000E+00  0.45593999997E+02  0.45594000000E+02  0.51100000000E-03 0.  1.
         11   -1    0    0    0    0 -0.00000000000E+00 -0.00000000000E+00 -0.45593999997E+02  0.45594000000E+02  0.51100000000E-03 0. -1.
    9900012    2    1    2    0    0 -0.41290213309E+02 -0.31502903532E+01 -0.12992957874E+02  0.47787274214E+02  0.20000014452E+02 0.  0.
        -12    1    1    2    0    0  0.41290213309E+02  0.31502903532E+01  0.12992957874E+02  0.43400725786E+02  0.00000000000E+00 0.  1.
         11    1    3    3    0    0 -0.24526164184E+02 -0.50474561279E+01  0.18196231343E+01  0.25106185922E+02  0.51100000000E-03 0. -1.
        -11    1    3    3    0    0 -0.90749761402E+01  0.10483162876E+01 -0.10119665373E+02  0.13633113603E+02  0.51100000000E-03 0.  1.
         12    1    3    3    0    0 -0.76890729854E+01  0.84884948714E+00 -0.46929156355E+01  0.90479746899E+01  0.00000000000E+00 0. -1.
</event>
<event>
 7    1  0.2714068E-010  0.4778727E+02  0.7816164E-02  0.1312668E+00
        -11   -1    0    0    0    0  0.00000000000E+00  0.00000000000E+00  0.45593999997E+02  0.45594000000E+02  0.51100000000E-03 0.  1.
         11   -1    0    0    0    0 -0.00000000000E+00 -0.00000000000E+00 -0.45593999997E+02  0.45594000000E+02  0.51100000000E-03 0. -1.
    9900012    2    1    2    0    0  0.42159980829E+02  0.87583706619E+01 -0.54268067570E+01  0.47787271069E+02  0.20000000112E+02 0.  0.
        -12    1    1    2    0    0 -0.42159980829E+02 -0.87583706619E+01  0.54268067570E+01  0.43400728931E+02  0.00000000000E+00 0.  1.
         11    1    3    3    0    0  0.15376003657E+02 -0.43334121905E+01  0.78253342252E-01  0.15975170532E+02  0.51100000000E-03 0.  1.
        -11    1    3    3    0    0  0.23944517180E+02  0.11526716718E+02 -0.14414927077E+01  0.26613586808E+02  0.51100000000E-03 0. -1.
        -12    1    3    3    0    0  0.28394599919E+01  0.15650661348E+01 -0.40635673915E+01  0.51985137296E+01  0.00000000000E+00 0.  1.
</event>
<event>
 7    1  0.2714068E-010  0.4778727E+02  0.7816164E-02  0.1312668E+00
        -11   -1    0    0    0    0  0.00000000000E+00  0.00000000000E+00  0.45593999997E+02  0.45594000000E+02  0.51100000000E-03 0.  1.
         11   -1    0    0    0    0 -0.00000000000E+00 -0.00000000000E+00 -0.45593999997E+02  0.45594000000E+02  0.51100000000E-03 0. -1.
    9900012    2    1    2    0    0  0.11215976941E+02 -0.40016736901E+02 -0.12509435407E+02  0.47787270223E+02  0.19999996255E+02 0.  0.
        -12    1    1    2    0    0 -0.11215976941E+02  0.40016736901E+02  0.12509435407E+02  0.43400729777E+02  0.00000000000E+00 0.  1.
         11    1    3    3    0    0 -0.15358549847E+01 -0.25782427770E+02 -0.49702480086E+01  0.26302011287E+02  0.51100000000E-03 0. -1.
        -11    1    3    3    0    0  0.85156528062E+00 -0.11439438149E+01  0.10965765516E+01  0.17989583857E+01  0.51100000000E-03 0.  1.
         12    1    3    3    0    0  0.11900266645E+02 -0.13090365317E+02 -0.86357639498E+01  0.19686300550E+02  0.00000000000E+00 0. -1.
</event>
<event>
 7    1  0.2714068E-010  0.4778726E+02  0.7816164E-02  0.1312668E+00
        -11   -1    0    0    0    0  0.00000000000E+00  0.00000000000E+00  0.45593999997E+02  0.45594000000E+02  0.51100000000E-03 0.  1.
         11   -1    0    0    0    0 -0.00000000000E+00 -0.00000000000E+00 -0.45593999997E+02  0.45594000000E+02  0.51100000000E-03 0. -1.
    9900012    2    1    2    0    0  0.22579353701E+02 -0.99827537267E+01 -0.35695118033E+02  0.47787262254E+02  0.19999959919E+02 0.  0.
        -12    1    1    2    0    0 -0.22579353701E+02  0.99827537267E+01  0.35695118033E+02  0.43400737746E+02  0.00000000000E+00 0.  1.
         11    1    3    3    0    0  0.17388776200E+02 -0.11320951924E+02 -0.22924496641E+02  0.30920317539E+02  0.51100000000E-03 0. -1.
        -11    1    3    3    0    0  0.41067434741E+00  0.37794688363E+01 -0.10010056466E+01  0.39312912217E+01  0.51100000000E-03 0.  1.
        -12    1    3    3    0    0  0.47799031533E+01 -0.24412706386E+01 -0.11769615746E+02  0.12935653493E+02  0.00000000000E+00 0.  1.
</event>
<event>
 7    1  0.2714068E-010  0.4778728E+02  0.7816164E-02  0.1312668E+00
        -11   -1    0    0    0    0  0.00000000000E+00  0.00000000000E+00  0.45593999997E+02  0.45594000000E+02  0.51100000000E-03 0.  1.
         11   -1    0    0    0    0 -0.00000000000E+00 -0.00000000000E+00 -0.45593999997E+02  0.45594000000E+02  0.51100000000E-03 0. -1.
    9900012    2    1    2    0    0 -0.47502122706E+01 -0.41656650941E+02 -0.11215239487E+02  0.47787277875E+02  0.20000031143E+02 0.  0.
        -12    1    1    2    0    0  0.47502122706E+01  0.41656650941E+02  0.11215239487E+02  0.43400722125E+02  0.00000000000E+00 0.  1.
         11    1    3    3    0    0  0.49873261598E+01 -0.21622557577E+02 -0.41321346395E+01  0.22571729117E+02  0.51100000000E-03 0. -1.
        -11    1    3    3    0    0 -0.42831538604E+01 -0.70526367237E+01  0.19600065588E+01  0.84809620751E+01  0.51100000000E-03 0.  1.
         12    1    3    3    0    0 -0.54543845700E+01 -0.12981456640E+02 -0.90431114060E+01  0.16734586683E+02  0.00000000000E+00 0. -1.
</event>
<event>
 7    1  0.2714068E-010  0.4778728E+02  0.7816164E-02  0.1312668E+00
        -11   -1    0    0    0    0  0.00000000000E+00  0.00000000000E+00  0.45593999997E+02  0.45594000000E+02  0.51100000000E-03 0.  1.
         11   -1    0    0    0    0 -0.00000000000E+00 -0.00000000000E+00 -0.45593999997E+02  0.45594000000E+02  0.51100000000E-03 0. -1.
    9900012    2    1    2    0    0 -0.18691799052E+02 -0.12677314577E+02 -0.37061101677E+02  0.47787275188E+02  0.20000018891E+02 0.  0.
        -12    1    1    2    0    0  0.18691799052E+02  0.12677314577E+02  0.37061101677E+02  0.43400724812E+02  0.00000000000E+00 0.  1.
         11    1    3    3    0    0 -0.62028822093E+00 -0.86040205684E+00 -0.50256088487E-01  0.10618733973E+01  0.51100000000E-03 0. -1.
        -11    1    3    3    0    0 -0.79820341032E+01  0.29937105537E+01 -0.45919495558E+01  0.96830352828E+01  0.51100000000E-03 0.  1.
        -12    1    3    3    0    0 -0.10089476728E+02 -0.14810623074E+02 -0.32418896033E+02  0.37042366508E+02  0.00000000000E+00 0.  1.
</event>
<event>
 7    1  0.2714068E-010  0.4778727E+02  0.7816164E-02  0.1312668E+00
        -11   -1    0    0    0    0  0.00000000000E+00  0.00000000000E+00  0.45593999997E+02  0.45594000000E+02  0.51100000000E-03 0.  1.
         11   -1    0    0    0    0 -0.00000000000E+00 -0.00000000000E+00 -0.45593999997E+02  0.45594000000E+02  0.51100000000E-03 0. -1.
    9900012    2    1    2    0    0  0.73280573151E+01  0.15145395787E+02 -0.40006747060E+02  0.47787271344E+02  0.20000001365E+02 0.  0.
        -12    1    1    2    0    0 -0.73280573151E+01 -0.15145395787E+02  0.40006747060E+02  0.43400728656E+02  0.00000000000E+00 0.  1.
         11    1    3    3    0    0 -0.37117603348E+00  0.20032092993E+01 -0.10289141480E+02  0.10488901363E+02  0.51100000000E-03 0. -1.
        -11    1    3    3    0    0  0.77456881570E+00  0.89423228280E+01 -0.31319734700E+01  0.95065426149E+01  0.51100000000E-03 0.  1.
        -12    1    3    3    0    0  0.69246645329E+01  0.41998636595E+01 -0.26585632110E+02  0.27791827366E+02  0.00000000000E+00 0.  1.
</event>
<event>
 7    1  0.2714068E-010  0.4778727E+02  0.7816164E-02  0.1312668E+00
        -11   -1    0    0    0    0  0.00000000000E+00  0.00000000000E+00  0.45593999997E+02  0.45594000000E+02  0.51100000000E-03 0.  1.
         11   -1    0    0    0    0 -0.00000000000E+00 -0.00000000000E+00 -0.45593999997E+02  0.45594000000E+02  0.51100000000E-03 0. -1.
    9900012    2    1    2    0    0 -0.35742640512E+00 -0.36441230779E+02 -0.23569727308E+02  0.47787273051E+02  0.20000009149E+02 0.  0.
        -12    1    1    2    0    0  0.35742640512E+00  0.36441230779E+02  0.23569727308E+02  0.43400726949E+02  0.00000000000E+00 0.  1.
         11    1    3    3    0    0 -0.90735474141E-01 -0.51990414542E+01  0.52567953763E+00  0.52263375519E+01  0.51100000000E-03 0.  1.
        -11    1    3    3    0    0 -0.19734805935E+01 -0.32513339801E+02 -0.23945172492E+02  0.40427505199E+02  0.51100000000E-03 0. -1.
        -12    1    3    3    0    0  0.17067896625E+01  0.12711504765E+01 -0.15023435409E+00  0.21334303005E+01  0.00000000000E+00 0.  1.
</event>
<event>
 7    1  0.2714068E-010  0.4778727E+02  0.7816164E-02  0.1312668E+00
        -11   -1    0    0    0    0  0.00000000000E+00  0.00000000000E+00  0.45593999997E+02  0.45594000000E+02  0.51100000000E-03 0.  1.
         11   -1    0    0    0    0 -0.00000000000E+00 -0.00000000000E+00 -0.45593999997E+02  0.45594000000E+02  0.51100000000E-03 0. -1.
    9900012    2    1    2    0    0  0.31036049652E+02 -0.30248048640E+02 -0.23328914382E+01  0.47787271814E+02  0.20000003511E+02 0.  0.
        -12    1    1    2    0    0 -0.31036049652E+02  0.30248048640E+02  0.23328914382E+01  0.43400728186E+02  0.00000000000E+00 0.  1.
         11    1    3    3    0    0  0.21411076193E+02 -0.22263043521E+02 -0.15454345822E+00  0.30888528202E+02  0.51100000000E-03 0. -1.
        -11    1    3    3    0    0  0.40635660961E+01 -0.45473945829E+01 -0.66152003678E+01  0.89973464464E+01  0.51100000000E-03 0.  1.
        -12    1    3    3    0    0  0.55614073631E+01 -0.34376105364E+01  0.44368523878E+01  0.79013971657E+01  0.00000000000E+00 0.  1.
</event>
<event>
 7    1  0.2714068E-010  0.4778727E+02  0.7816164E-02  0.1312668E+00
        -11   -1    0    0    0    0  0.00000000000E+00  0.00000000000E+00  0.45593999997E+02  0.45594000000E+02  0.51100000000E-03 0.  1.
         11   -1    0    0    0    0 -0.00000000000E+00 -0.00000000000E+00 -0.45593999997E+02  0.45594000000E+02  0.51100000000E-03 0. -1.
    9900012    2    1    2    0    0  0.31040562929E+02 -0.13592515977E+02 -0.27117344868E+02  0.47787269243E+02  0.19999991785E+02 0.  0.
        -12    1    1    2    0    0 -0.31040562929E+02  0.13592515977E+02  0.27117344868E+02  0.43400730757E+02  0.00000000000E+00 0.  1.
         11    1    3    3    0    0  0.53977629020E+01 -0.33198466876E+01 -0.10005740203E+02  0.11843650773E+02  0.51100000000E-03 0. -1.
        -11    1    3    3    0    0  0.12032413958E+02 -0.98636590888E+01 -0.15943578094E+02  0.22277083269E+02  0.51100000000E-03 0.  1.
        -12    1    3    3    0    0  0.13610386070E+02 -0.40901020092E+00 -0.11680265711E+01  0.13666535200E+02  0.00000000000E+00 0.  1.
</event>
<event>
 7    1  0.2714068E-010  0.4778727E+02  0.7816164E-02  0.1312668E+00
        -11   -1    0    0    0    0  0.00000000000E+00  0.00000000000E+00  0.45593999997E+02  0.45594000000E+02  0.51100000000E-03 0. -1.
         11   -1    0    0    0    0 -0.00000000000E+00 -0.00000000000E+00 -0.45593999997E+02  0.45594000000E+02  0.51100000000E-03 0.  1.
    9900012    2    1    2    0    0  0.21462460398E+02  0.47216517345E+01  0.37425820288E+02  0.47787271600E+02  0.20000002532E+02 0.  0.
        -12    1    1    2    0    0 -0.21462460398E+02 -0.47216517345E+01 -0.37425820288E+02  0.43400728400E+02  0.00000000000E+00 0.  1.
         11    1    3    3    0    0  0.38117495525E+01 -0.17060816120E+00  0.23248610359E+02  0.23559635516E+02  0.51100000000E-03 0. -1.
        -11    1    3    3    0    0  0.17041651484E+02  0.56967054980E+01  0.14581483806E+02  0.23140657058E+02  0.51100000000E-03 0.  1.
         12    1    3    3    0    0  0.60905936243E+00 -0.80444560234E+00 -0.40427387695E+00  0.10869790254E+01  0.00000000000E+00 0. -1.
</event>
<event>
 7    1  0.2714068E-010  0.4778727E+02  0.7816164E-02  0.1312668E+00
        -11   -1    0    0    0    0  0.00000000000E+00  0.00000000000E+00  0.45593999997E+02  0.45594000000E+02  0.51100000000E-03 0.  1.
         11   -1    0    0    0    0 -0.00000000000E+00 -0.00000000000E+00 -0.45593999997E+02  0.45594000000E+02  0.51100000000E-03 0. -1.
    9900012    2    1    2    0    0  0.24555872381E+02  0.19989591632E+02 -0.29682464790E+02  0.47787270076E+02  0.19999995583E+02 0.  0.
        -12    1    1    2    0    0 -0.24555872381E+02 -0.19989591632E+02  0.29682464790E+02  0.43400729924E+02  0.00000000000E+00 0.  1.
         11    1    3    3    0    0  0.15986489125E+02  0.46334406532E+01 -0.15978274485E+02  0.23072534811E+02  0.51100000000E-03 0. -1.
        -11    1    3    3    0    0  0.56548401816E+01  0.14029446181E+02 -0.14960473677E+02  0.21274829036E+02  0.51100000000E-03 0.  1.
         12    1    3    3    0    0  0.29145430738E+01  0.13267047975E+01  0.12562833718E+01  0.34399062283E+01  0.00000000000E+00 0. -1.
</event>
<event>
 7    1  0.2714068E-010  0.4778727E+02  0.7816164E-02  0.1312668E+00
        -11   -1    0    0    0    0  0.00000000000E+00  0.00000000000E+00  0.45593999997E+02  0.45594000000E+02  0.51100000000E-03 0. -1.
         11   -1    0    0    0    0 -0.00000000000E+00 -0.00000000000E+00 -0.45593999997E+02  0.45594000000E+02  0.51100000000E-03 0.  1.
    9900012    2    1    2    0    0  0.26332920614E+02  0.14673082808E+01  0.34468068985E+02  0.47787268656E+02  0.19999989112E+02 0.  0.
        -12    1    1    2    0    0 -0.26332920614E+02 -0.14673082808E+01 -0.34468068985E+02  0.43400731344E+02  0.00000000000E+00 0.  1.
         11    1    3    3    0    0  0.28561310143E+02 -0.16363608576E+01  0.29768439436E+02  0.41286633438E+02  0.51100000000E-03 0. -1.
        -11    1    3    3    0    0 -0.16681448940E+01  0.30800093824E+01  0.47885276119E+01  0.59328881781E+01  0.51100000000E-03 0.  1.
         12    1    3    3    0    0 -0.56024463555E+00  0.23659755936E-01 -0.88898063331E-01  0.56774703996E+00  0.00000000000E+00 0. -1.
</event>
<event>
 7    1  0.2714068E-010  0.4778727E+02  0.7816164E-02  0.1312668E+00
        -11   -1    0    0    0    0  0.00000000000E+00  0.00000000000E+00  0.45593999997E+02  0.45594000000E+02  0.51100000000E-03 0.  1.
         11   -1    0    0    0    0 -0.00000000000E+00 -0.00000000000E+00 -0.45593999997E+02  0.45594000000E+02  0.51100000000E-03 0. -1.
    9900012    2    1    2    0    0  0.10827685093E+02  0.24827763989E+02 -0.33911157646E+02  0.47787271411E+02  0.20000001674E+02 0.  0.
        -12    1    1    2    0    0 -0.10827685093E+02 -0.24827763989E+02  0.33911157646E+02  0.43400728589E+02  0.00000000000E+00 0.  1.
         11    1    3    3    0    0  0.84073390845E+01  0.31998935140E+01 -0.37483344166E+01  0.97453927650E+01  0.51100000000E-03 0. -1.
        -11    1    3    3    0    0  0.29019590681E+01  0.31644515227E+01 -0.88714430814E+01  0.98558420482E+01  0.51100000000E-03 0.  1.
         12    1    3    3    0    0 -0.48161305947E+00  0.18463418952E+02 -0.21291380148E+02  0.28186036598E+02  0.00000000000E+00 0. -1.
</event>
<event>
 7    1  0.2714068E-010  0.4778728E+02  0.7816164E-02  0.1312668E+00
        -11   -1    0    0    0    0  0.00000000000E+00  0.00000000000E+00  0.45593999997E+02  0.45594000000E+02  0.51100000000E-03 0. -1.
         11   -1    0    0    0    0 -0.00000000000E+00 -0.00000000000E+00 -0.45593999997E+02  0.45594000000E+02  0.51100000000E-03 0.  1.
    9900012    2    1    2    0    0  0.20659980791E+02  0.10667077846E+02  0.36646979396E+02  0.47787280479E+02  0.20000043017E+02 0.  0.
        -12    1    1    2    0    0 -0.20659980791E+02 -0.10667077846E+02 -0.36646979396E+02  0.43400719521E+02  0.00000000000E+00 0.  1.
         11    1    3    3    0    0  0.15159468189E+02  0.35508219210E+01  0.30036431788E+02  0.33832012161E+02  0.51100000000E-03 0. -1.
        -11    1    3    3    0    0  0.39087884086E+01 -0.15849179349E+00 -0.12528269659E+00  0.39140059386E+01  0.51100000000E-03 0.  1.
         12    1    3    3    0    0  0.15917241940E+01  0.72747477187E+01  0.67358303048E+01  0.10041262380E+02  0.00000000000E+00 0. -1.
</event>
<event>
 7    1  0.2714068E-010  0.4778728E+02  0.7816164E-02  0.1312668E+00
        -11   -1    0    0    0    0  0.00000000000E+00  0.00000000000E+00  0.45593999997E+02  0.45594000000E+02  0.51100000000E-03 0.  1.
         11   -1    0    0    0    0 -0.00000000000E+00 -0.00000000000E+00 -0.45593999997E+02  0.45594000000E+02  0.51100000000E-03 0. -1.
    9900012    2    1    2    0    0 -0.20240028854E+02 -0.46289624929E+01 -0.38112159356E+02  0.47787277050E+02  0.20000027383E+02 0.  0.
        -12    1    1    2    0    0  0.20240028854E+02  0.46289624929E+01  0.38112159356E+02  0.43400722950E+02  0.00000000000E+00 0.  1.
         11    1    3    3    0    0 -0.11581431841E+02 -0.54706933876E+01 -0.14681720278E+02  0.19483607474E+02  0.51100000000E-03 0. -1.
        -11    1    3    3    0    0 -0.58691378278E+01  0.67127180498E+01 -0.16793814674E+02  0.19014194015E+02  0.51100000000E-03 0.  1.
        -12    1    3    3    0    0 -0.27894591855E+01 -0.58709871551E+01 -0.66366244038E+01  0.92894755611E+01  0.00000000000E+00 0.  1.
</event>
<event>
 7    1  0.2714068E-010  0.4778728E+02  0.7816164E-02  0.1312668E+00
        -11   -1    0    0    0    0  0.00000000000E+00  0.00000000000E+00  0.45593999997E+02  0.45594000000E+02  0.51100000000E-03 0.  1.
         11   -1    0    0    0    0 -0.00000000000E+00 -0.00000000000E+00 -0.45593999997E+02  0.45594000000E+02  0.51100000000E-03 0. -1.
    9900012    2    1    2    0    0  0.34084133342E+02 -0.17930155691E+02 -0.20010104793E+02  0.47787275091E+02  0.20000018452E+02 0.  0.
        -12    1    1    2    0    0 -0.34084133342E+02  0.17930155691E+02  0.20010104793E+02  0.43400724909E+02  0.00000000000E+00 0.  1.
         11    1    3    3    0    0  0.90691748722E+01 -0.53845557899E+01 -0.72401968070E+01  0.12793116273E+02  0.51100000000E-03 0. -1.
        -11    1    3    3    0    0 -0.65913961200E+00  0.10784135016E+01 -0.46464737274E+01  0.48153046705E+01  0.51100000000E-03 0.  1.
        -12    1    3    3    0    0  0.25674098082E+02 -0.13624013403E+02 -0.81234342582E+01  0.30178854148E+02  0.00000000000E+00 0.  1.
</event>
<event>
 7    1  0.2714068E-010  0.4778727E+02  0.7816164E-02  0.1312668E+00
        -11   -1    0    0    0    0  0.00000000000E+00  0.00000000000E+00  0.45593999997E+02  0.45594000000E+02  0.51100000000E-03 0.  1.
         11   -1    0    0    0    0 -0.00000000000E+00 -0.00000000000E+00 -0.45593999997E+02  0.45594000000E+02  0.51100000000E-03 0. -1.
    9900012    2    1    2    0    0 -0.26829582127E+02  0.32701750903E+02 -0.97155685498E+01  0.47787271187E+02  0.20000000651E+02 0.  0.
        -12    1    1    2    0    0  0.26829582127E+02 -0.32701750903E+02  0.97155685498E+01  0.43400728813E+02  0.00000000000E+00 0.  1.
         11    1    3    3    0    0 -0.13578254784E+02  0.34423937820E+01 -0.17510626294E+01  0.14116844496E+02  0.51100000000E-03 0. -1.
        -11    1    3    3    0    0 -0.12996233046E+02  0.25488477757E+02 -0.85155972391E+01  0.29850962603E+02  0.51100000000E-03 0.  1.
        -12    1    3    3    0    0 -0.25509429713E+00  0.37708793641E+01  0.55109131882E+00  0.38194640881E+01  0.00000000000E+00 0.  1.
</event>
<event>
 7    1  0.2714068E-010  0.4778728E+02  0.7816164E-02  0.1312668E+00
        -11   -1    0    0    0    0  0.00000000000E+00  0.00000000000E+00  0.45593999997E+02  0.45594000000E+02  0.51100000000E-03 0. -1.
         11   -1    0    0    0    0 -0.00000000000E+00 -0.00000000000E+00 -0.45593999997E+02  0.45594000000E+02  0.51100000000E-03 0.  1.
    9900012    2    1    2    0    0 -0.19399879281E+02  0.16936591860E+02  0.34934501133E+02  0.47787276166E+02  0.20000023350E+02 0.  0.
        -12    1    1    2    0    0  0.19399879281E+02 -0.16936591860E+02 -0.34934501133E+02  0.43400723834E+02  0.00000000000E+00 0.  1.
         11    1    3    3    0    0 -0.14502266007E+02  0.11600277971E+01  0.17222368859E+02  0.22544874655E+02  0.51100000000E-03 0. -1.
        -11    1    3    3    0    0 -0.30608937099E-01  0.10986544858E+02  0.92016656415E+01  0.14330937013E+02  0.51100000000E-03 0.  1.
        -12    1    3    3    0    0 -0.48670043369E+01  0.47900192050E+01  0.85104666317E+01  0.10911464498E+02  0.00000000000E+00 0.  1.
</event>
<event>
 7    1  0.2714068E-010  0.4778727E+02  0.7816164E-02  0.1312668E+00
        -11   -1    0    0    0    0  0.00000000000E+00  0.00000000000E+00  0.45593999997E+02  0.45594000000E+02  0.51100000000E-03 0.  1.
         11   -1    0    0    0    0 -0.00000000000E+00 -0.00000000000E+00 -0.45593999997E+02  0.45594000000E+02  0.51100000000E-03 0. -1.
    9900012    2    1    2    0    0 -0.16480010529E+02 -0.14681620000E+02 -0.37369537548E+02  0.47787273631E+02  0.20000011792E+02 0.  0.
        -12    1    1    2    0    0  0.16480010529E+02  0.14681620000E+02  0.37369537548E+02  0.43400726369E+02  0.00000000000E+00 0.  1.
         11    1    3    3    0    0 -0.88238998810E+01 -0.12043137879E+02 -0.14744522377E+02  0.20983310499E+02  0.51100000000E-03 0. -1.
        -11    1    3    3    0    0 -0.36903653270E+00 -0.35157572631E+00 -0.17719366967E+02  0.17726696235E+02  0.51100000000E-03 0.  1.
        -12    1    3    3    0    0 -0.72870741151E+01 -0.22869063947E+01 -0.49056482038E+01  0.90772668969E+01  0.00000000000E+00 0.  1.
</event>
<event>
 7    1  0.2714068E-010  0.4778727E+02  0.7816164E-02  0.1312668E+00
        -11   -1    0    0    0    0  0.00000000000E+00  0.00000000000E+00  0.45593999997E+02  0.45594000000E+02  0.51100000000E-03 0.  1.
         11   -1    0    0    0    0 -0.00000000000E+00 -0.00000000000E+00 -0.45593999997E+02  0.45594000000E+02  0.51100000000E-03 0. -1.
    9900012    2    1    2    0    0 -0.33522396314E+02  0.33853237405E+01 -0.27357116770E+02  0.47787270635E+02  0.19999998132E+02 0.  0.
        -12    1    1    2    0    0  0.33522396314E+02 -0.33853237405E+01  0.27357116770E+02  0.43400729365E+02  0.00000000000E+00 0.  1.
         11    1    3    3    0    0 -0.16101377116E+01 -0.11622675635E+01 -0.87019691236E+00  0.21680987678E+01  0.51100000000E-03 0. -1.
        -11    1    3    3    0    0 -0.73523063405E+01 -0.57872810047E+01 -0.23054214181E+01  0.96365968125E+01  0.51100000000E-03 0.  1.
        -12    1    3    3    0    0 -0.24559952262E+02  0.10334872309E+02 -0.24181498440E+02  0.35982575054E+02  0.00000000000E+00 0.  1.
</event>
<event>
 7    1  0.2714068E-010  0.4778727E+02  0.7816164E-02  0.1312668E+00
        -11   -1    0    0    0    0  0.00000000000E+00  0.00000000000E+00  0.45593999997E+02  0.45594000000E+02  0.51100000000E-03 0.  1.
         11   -1    0    0    0    0 -0.00000000000E+00 -0.00000000000E+00 -0.45593999997E+02  0.45594000000E+02  0.51100000000E-03 0. -1.
    9900012    2    1    2    0    0  0.21684909719E+02 -0.60986850407E+01 -0.37097088578E+02  0.47787271323E+02  0.20000001269E+02 0.  0.
        -12    1    1    2    0    0 -0.21684909719E+02  0.60986850407E+01  0.37097088578E+02  0.43400728677E+02  0.00000000000E+00 0.  1.
         11    1    3    3    0    0  0.76306702954E+01 -0.24112075435E+01 -0.18814940809E+02  0.20446101068E+02  0.51100000000E-03 0. -1.
        -11    1    3    3    0    0  0.12196173353E+02 -0.56074177669E+01 -0.58805975837E+01  0.14655074435E+02  0.51100000000E-03 0.  1.
        -12    1    3    3    0    0  0.18580660700E+01  0.19199402698E+01 -0.12401550185E+02  0.12686095820E+02  0.00000000000E+00 0.  1.
</event>
<event>
 7    1  0.2714068E-010  0.4778727E+02  0.7816164E-02  0.1312668E+00
        -11   -1    0    0    0    0  0.00000000000E+00  0.00000000000E+00  0.45593999997E+02  0.45594000000E+02  0.51100000000E-03 0.  1.
         11   -1    0    0    0    0 -0.00000000000E+00 -0.00000000000E+00 -0.45593999997E+02  0.45594000000E+02  0.51100000000E-03 0. -1.
    9900012    2    1    2    0    0 -0.33148726569E+02 -0.22873405263E+02 -0.16173823255E+02  0.47787270741E+02  0.19999998619E+02 0.  0.
        -12    1    1    2    0    0  0.33148726569E+02  0.22873405263E+02  0.16173823255E+02  0.43400729259E+02  0.00000000000E+00 0.  1.
         11    1    3    3    0    0 -0.15740259073E+02 -0.79893969077E+01 -0.51870745610E+01  0.18398151032E+02  0.51100000000E-03 0. -1.
        -11    1    3    3    0    0 -0.50962819697E+01 -0.14017649833E+02 -0.60802503247E+01  0.16107018378E+02  0.51100000000E-03 0.  1.
        -12    1    3    3    0    0 -0.12312185526E+02 -0.86635852192E+00 -0.49064983695E+01  0.13282101331E+02  0.00000000000E+00 0.  1.
</event>
<event>
 7    1  0.2714068E-010  0.4778731E+02  0.7816164E-02  0.1312668E+00
        -11   -1    0    0    0    0  0.00000000000E+00  0.00000000000E+00  0.45593999997E+02  0.45594000000E+02  0.51100000000E-03 0.  1.
         11   -1    0    0    0    0 -0.00000000000E+00 -0.00000000000E+00 -0.45593999997E+02  0.45594000000E+02  0.51100000000E-03 0. -1.
    9900012    2    1    2    0    0 -0.24063025629E+02  0.11438499434E+02 -0.34260060804E+02  0.47787306019E+02  0.20000159463E+02 0.  0.
        -12    1    1    2    0    0  0.24063025629E+02 -0.11438499434E+02  0.34260060804E+02  0.43400693981E+02  0.00000000000E+00 0.  1.
         11    1    3    3    0    0 -0.13732310270E+02  0.13023654204E+02 -0.26916304126E+02  0.32904093092E+02  0.51100000000E-03 0. -1.
        -11    1    3    3    0    0 -0.42276867951E+01 -0.72318317471E+00  0.11012005226E+01  0.44282019369E+01  0.51100000000E-03 0.  1.
         12    1    3    3    0    0 -0.61030285635E+01 -0.86197159467E+00 -0.84449572008E+01  0.10455010990E+02  0.00000000000E+00 0. -1.
</event>
<event>
 7    1  0.2714068E-010  0.4778727E+02  0.7816164E-02  0.1312668E+00
        -11   -1    0    0    0    0  0.00000000000E+00  0.00000000000E+00  0.45593999997E+02  0.45594000000E+02  0.51100000000E-03 0.  1.
         11   -1    0    0    0    0 -0.00000000000E+00 -0.00000000000E+00 -0.45593999997E+02  0.45594000000E+02  0.51100000000E-03 0. -1.
    9900012    2    1    2    0    0  0.36497700320E+02  0.17419458823E+02  0.15751301670E+02  0.47787272141E+02  0.20000005001E+02 0.  0.
        -12    1    1    2    0    0 -0.36497700320E+02 -0.17419458823E+02 -0.15751301670E+02  0.43400727859E+02  0.00000000000E+00 0.  1.
         11    1    3    3    0    0  0.53016529466E+01 -0.41286114302E+00  0.24327421627E+01  0.58477528146E+01  0.51100000000E-03 0. -1.
        -11    1    3    3    0    0  0.32438018304E+02  0.13732201963E+02  0.13309090247E+02  0.37655415092E+02  0.51100000000E-03 0.  1.
        -12    1    3    3    0    0 -0.12419709305E+01  0.41001180026E+01  0.94692606130E-02  0.42841042347E+01  0.00000000000E+00 0.  1.
</event>
<event>
 7    1  0.2714068E-010  0.4778727E+02  0.7816164E-02  0.1312668E+00
        -11   -1    0    0    0    0  0.00000000000E+00  0.00000000000E+00  0.45593999997E+02  0.45594000000E+02  0.51100000000E-03 0.  1.
         11   -1    0    0    0    0 -0.00000000000E+00 -0.00000000000E+00 -0.45593999997E+02  0.45594000000E+02  0.51100000000E-03 0. -1.
    9900012    2    1    2    0    0  0.35437977749E+02  0.24433265409E+02 -0.55487473953E+01  0.47787270477E+02  0.19999997413E+02 0.  0.
        -12    1    1    2    0    0 -0.35437977749E+02 -0.24433265409E+02  0.55487473953E+01  0.43400729523E+02  0.00000000000E+00 0.  1.
         11    1    3    3    0    0  0.19206282008E+02  0.21365299428E+02 -0.75707629674E+01  0.29709825654E+02  0.51100000000E-03 0. -1.
        -11    1    3    3    0    0  0.13957155518E+02  0.42998582159E+01  0.36075745170E+01  0.15043455885E+02  0.51100000000E-03 0.  1.
         12    1    3    3    0    0  0.22745402232E+01 -0.12318922350E+01 -0.15855589449E+01  0.30339889376E+01  0.00000000000E+00 0. -1.
</event>
<event>
 7    1  0.2714068E-010  0.4778727E+02  0.7816164E-02  0.1312668E+00
        -11   -1    0    0    0    0  0.00000000000E+00  0.00000000000E+00  0.45593999997E+02  0.45594000000E+02  0.51100000000E-03 0.  1.
         11   -1    0    0    0    0 -0.00000000000E+00 -0.00000000000E+00 -0.45593999997E+02  0.45594000000E+02  0.51100000000E-03 0. -1.
    9900012    2    1    2    0    0  0.15361307303E+02 -0.38881910681E+02  0.11655494109E+02  0.47787270937E+02  0.19999999511E+02 0.  0.
        -12    1    1    2    0    0 -0.15361307303E+02  0.38881910681E+02 -0.11655494109E+02  0.43400729063E+02  0.00000000000E+00 0.  1.
         11    1    3    3    0    0  0.17939039931E+02 -0.30865504633E+02  0.34896779236E+01  0.35870132174E+02  0.51100000000E-03 0. -1.
        -11    1    3    3    0    0 -0.15426278113E+01 -0.54562438622E+01  0.40793131723E+01  0.69850621949E+01  0.51100000000E-03 0.  1.
         12    1    3    3    0    0 -0.10351048165E+01 -0.25601621854E+01  0.40865030135E+01  0.49320765683E+01  0.00000000000E+00 0. -1.
</event>
<event>
 7    1  0.2714068E-010  0.4778727E+02  0.7816164E-02  0.1312668E+00
        -11   -1    0    0    0    0  0.00000000000E+00  0.00000000000E+00  0.45593999997E+02  0.45594000000E+02  0.51100000000E-03 0. -1.
         11   -1    0    0    0    0 -0.00000000000E+00 -0.00000000000E+00 -0.45593999997E+02  0.45594000000E+02  0.51100000000E-03 0.  1.
    9900012    2    1    2    0    0 -0.38276829113E+02  0.99962729517E+01  0.17848866335E+02  0.47787272480E+02  0.20000006544E+02 0.  0.
        -12    1    1    2    0    0  0.38276829113E+02 -0.99962729517E+01 -0.17848866335E+02  0.43400727520E+02  0.00000000000E+00 0.  1.
         11    1    3    3    0    0 -0.15889819987E+01 -0.40862733090E+00 -0.58213655611E+00  0.17408972741E+01  0.51100000000E-03 0. -1.
        -11    1    3    3    0    0 -0.26660440638E+02  0.11363950329E+02  0.52435658658E+01  0.29451883561E+02  0.51100000000E-03 0.  1.
        -12    1    3    3    0    0 -0.10027406476E+02 -0.95905004637E+00  0.13187437025E+02  0.16594491644E+02  0.00000000000E+00 0.  1.
</event>
<event>
 7    1  0.2714068E-010  0.4778727E+02  0.7816164E-02  0.1312668E+00
        -11   -1    0    0    0    0  0.00000000000E+00  0.00000000000E+00  0.45593999997E+02  0.45594000000E+02  0.51100000000E-03 0.  1.
         11   -1    0    0    0    0 -0.00000000000E+00 -0.00000000000E+00 -0.45593999997E+02  0.45594000000E+02  0.51100000000E-03 0. -1.
    9900012    2    1    2    0    0  0.24449985129E+02 -0.23035144380E+02 -0.27480968882E+02  0.47787270742E+02  0.19999998622E+02 0.  0.
        -12    1    1    2    0    0 -0.24449985129E+02  0.23035144380E+02  0.27480968882E+02  0.43400729258E+02  0.00000000000E+00 0.  1.
         11    1    3    3    0    0  0.10655784809E+02 -0.99047620199E+01 -0.32267090713E+01  0.14901735210E+02  0.51100000000E-03 0. -1.
        -11    1    3    3    0    0  0.69530971564E+01 -0.13598636558E+02 -0.17977986800E+02  0.23589753834E+02  0.51100000000E-03 0.  1.
        -12    1    3    3    0    0  0.68411031638E+01  0.46825419734E+00 -0.62762730098E+01  0.92957816985E+01  0.00000000000E+00 0.  1.
</event>
<event>
 7    1  0.2714068E-010  0.4778727E+02  0.7816164E-02  0.1312668E+00
        -11   -1    0    0    0    0  0.00000000000E+00  0.00000000000E+00  0.45593999997E+02  0.45594000000E+02  0.51100000000E-03 0. -1.
         11   -1    0    0    0    0 -0.00000000000E+00 -0.00000000000E+00 -0.45593999997E+02  0.45594000000E+02  0.51100000000E-03 0.  1.
    9900012    2    1    2    0    0  0.42203530289E+02  0.23265774777E+01  0.98525284714E+01  0.47787271332E+02  0.20000001312E+02 0.  0.
        -12    1    1    2    0    0 -0.42203530289E+02 -0.23265774777E+01 -0.98525284714E+01  0.43400728668E+02  0.00000000000E+00 0.  1.
         11    1    3    3    0    0  0.15714429658E+01 -0.18566793595E+01 -0.60460957965E-01  0.24331763247E+01  0.51100000000E-03 0.  1.
        -11    1    3    3    0    0  0.28431797914E+02 -0.49932511085E+01  0.80923902495E+01  0.29979767669E+02  0.51100000000E-03 0. -1.
        -12    1    3    3    0    0  0.12200289409E+02  0.91765079458E+01  0.18205991799E+01  0.15374327339E+02  0.00000000000E+00 0.  1.
</event>
<event>
 7    1  0.2714068E-010  0.4778727E+02  0.7816164E-02  0.1312668E+00
        -11   -1    0    0    0    0  0.00000000000E+00  0.00000000000E+00  0.45593999997E+02  0.45594000000E+02  0.51100000000E-03 0.  1.
         11   -1    0    0    0    0 -0.00000000000E+00 -0.00000000000E+00 -0.45593999997E+02  0.45594000000E+02  0.51100000000E-03 0. -1.
    9900012    2    1    2    0    0  0.41691352073E+01 -0.22474913133E+02 -0.36893357052E+02  0.47787271858E+02  0.20000003710E+02 0.  0.
        -12    1    1    2    0    0 -0.41691352073E+01  0.22474913133E+02  0.36893357052E+02  0.43400728142E+02  0.00000000000E+00 0.  1.
         11    1    3    3    0    0  0.87733174929E+01 -0.11781886314E+02 -0.15096102441E+02  0.21063623955E+02  0.51100000000E-03 0. -1.
        -11    1    3    3    0    0 -0.46516743343E+01 -0.24784866588E+01 -0.15503922731E+02  0.16375365356E+02  0.51100000000E-03 0.  1.
        -12    1    3    3    0    0  0.47492048698E-01 -0.82145401596E+01 -0.62933318797E+01  0.10348282547E+02  0.00000000000E+00 0.  1.
</event>
<event>
 7    1  0.2714068E-010  0.4778727E+02  0.7816164E-02  0.1312668E+00
        -11   -1    0    0    0    0  0.00000000000E+00  0.00000000000E+00  0.45593999997E+02  0.45594000000E+02  0.51100000000E-03 0.  1.
         11   -1    0    0    0    0 -0.00000000000E+00 -0.00000000000E+00 -0.45593999997E+02  0.45594000000E+02  0.51100000000E-03 0. -1.
    9900012    2    1    2    0    0  0.13448523067E+02 -0.40991374264E+02 -0.47399973811E+01  0.47787272910E+02  0.20000008507E+02 0.  0.
        -12    1    1    2    0    0 -0.13448523067E+02  0.40991374264E+02  0.47399973811E+01  0.43400727090E+02  0.00000000000E+00 0.  1.
         11    1    3    3    0    0  0.27723971798E+01  0.94152215413E-01 -0.27523533833E+01  0.39077487343E+01  0.51100000000E-03 0. -1.
        -11    1    3    3    0    0  0.78433102648E+00  0.32089839566E+00 -0.98058560736E+00  0.12960321500E+01  0.51100000000E-03 0.  1.
         12    1    3    3    0    0  0.98917948603E+01 -0.41406424875E+02 -0.10070583904E+01  0.42583492026E+02  0.00000000000E+00 0. -1.
</event>
<event>
 7    1  0.2714068E-010  0.4778727E+02  0.7816164E-02  0.1312668E+00
        -11   -1    0    0    0    0  0.00000000000E+00  0.00000000000E+00  0.45593999997E+02  0.45594000000E+02  0.51100000000E-03 0.  1.
         11   -1    0    0    0    0 -0.00000000000E+00 -0.00000000000E+00 -0.45593999997E+02  0.45594000000E+02  0.51100000000E-03 0. -1.
    9900012    2    1    2    0    0  0.11916125843E+01  0.41962917177E+02 -0.11014387386E+02  0.47787273185E+02  0.20000009760E+02 0.  0.
        -12    1    1    2    0    0 -0.11916125843E+01 -0.41962917177E+02  0.11014387386E+02  0.43400726815E+02  0.00000000000E+00 0.  1.
         11    1    3    3    0    0  0.40771344639E+00  0.26346410647E+02  0.33949332365E+00  0.26351752128E+02  0.51100000000E-03 0. -1.
        -11    1    3    3    0    0 -0.30527385847E+00 -0.11918936829E+01 -0.23419353803E+00  0.12524574062E+01  0.51100000000E-03 0.  1.
         12    1    3    3    0    0  0.10891729964E+01  0.16808400213E+02 -0.11119687171E+02  0.20183063651E+02  0.00000000000E+00 0. -1.
</event>
<event>
 7    1  0.2714068E-010  0.4778727E+02  0.7816164E-02  0.1312668E+00
        -11   -1    0    0    0    0  0.00000000000E+00  0.00000000000E+00  0.45593999997E+02  0.45594000000E+02  0.51100000000E-03 0.  1.
         11   -1    0    0    0    0 -0.00000000000E+00 -0.00000000000E+00 -0.45593999997E+02  0.45594000000E+02  0.51100000000E-03 0. -1.
    9900012    2    1    2    0    0 -0.31521382844E+02  0.23493147078E+02 -0.18387429296E+02  0.47787273138E+02  0.20000009547E+02 0.  0.
        -12    1    1    2    0    0  0.31521382844E+02 -0.23493147078E+02  0.18387429296E+02  0.43400726862E+02  0.00000000000E+00 0.  1.
         11    1    3    3    0    0 -0.19388301993E+02  0.15361898605E+02 -0.20109709959E+02  0.31879376058E+02  0.51100000000E-03 0. -1.
        -11    1    3    3    0    0 -0.15558388688E+01 -0.48184462590E+00  0.15762958608E+01  0.22666093027E+01  0.51100000000E-03 0.  1.
         12    1    3    3    0    0 -0.10577241982E+02  0.86130930991E+01  0.14598480300E+00  0.13641287778E+02  0.00000000000E+00 0. -1.
</event>
<event>
 7    1  0.2714068E-010  0.4778727E+02  0.7816164E-02  0.1312668E+00
        -11   -1    0    0    0    0  0.00000000000E+00  0.00000000000E+00  0.45593999997E+02  0.45594000000E+02  0.51100000000E-03 0.  1.
         11   -1    0    0    0    0 -0.00000000000E+00 -0.00000000000E+00 -0.45593999997E+02  0.45594000000E+02  0.51100000000E-03 0. -1.
    9900012    2    1    2    0    0  0.19321964444E+02 -0.73454353453E+01 -0.38161885071E+02  0.47787271866E+02  0.20000003748E+02 0.  0.
        -12    1    1    2    0    0 -0.19321964444E+02  0.73454353453E+01  0.38161885071E+02  0.43400728134E+02  0.00000000000E+00 0.  1.
         11    1    3    3    0    0  0.69799646876E+00 -0.11926414213E+01 -0.14889804296E+02  0.14953790986E+02  0.51100000000E-03 0. -1.
        -11    1    3    3    0    0  0.14005034264E+02  0.31773271359E+00 -0.94821692470E+01  0.16916071432E+02  0.51100000000E-03 0.  1.
        -12    1    3    3    0    0  0.46189337114E+01 -0.64705266376E+01 -0.13789911528E+02  0.15917409448E+02  0.00000000000E+00 0.  1.
</event>
<event>
 7    1  0.2714068E-010  0.4778727E+02  0.7816164E-02  0.1312668E+00
        -11   -1    0    0    0    0  0.00000000000E+00  0.00000000000E+00  0.45593999997E+02  0.45594000000E+02  0.51100000000E-03 0.  1.
         11   -1    0    0    0    0 -0.00000000000E+00 -0.00000000000E+00 -0.45593999997E+02  0.45594000000E+02  0.51100000000E-03 0. -1.
    9900012    2    1    2    0    0  0.38661148683E+01 -0.23628128763E+02 -0.36199279914E+02  0.47787272134E+02  0.20000004966E+02 0.  0.
        -12    1    1    2    0    0 -0.38661148683E+01  0.23628128763E+02  0.36199279914E+02  0.43400727866E+02  0.00000000000E+00 0.  1.
         11    1    3    3    0    0 -0.44637550368E+01 -0.12062506610E+02 -0.17437078668E+02  0.21667507644E+02  0.51100000000E-03 0. -1.
        -11    1    3    3    0    0  0.83180715020E+01 -0.76864690236E+01 -0.19121543015E+02  0.22223985401E+02  0.51100000000E-03 0.  1.
        -12    1    3    3    0    0  0.11798403173E-01 -0.38791531290E+01  0.35934176891E+00  0.38957790887E+01  0.00000000000E+00 0.  1.
</event>
<event>
 7    1  0.2714068E-010  0.4778727E+02  0.7816164E-02  0.1312668E+00
        -11   -1    0    0    0    0  0.00000000000E+00  0.00000000000E+00  0.45593999997E+02  0.45594000000E+02  0.51100000000E-03 0.  1.
         11   -1    0    0    0    0 -0.00000000000E+00 -0.00000000000E+00 -0.45593999997E+02  0.45594000000E+02  0.51100000000E-03 0. -1.
    9900012    2    1    2    0    0 -0.34109412950E+02  0.23262226357E+02  0.13380603045E+02  0.47787265389E+02  0.19999974216E+02 0.  0.
        -12    1    1    2    0    0  0.34109412950E+02 -0.23262226357E+02 -0.13380603045E+02  0.43400734611E+02  0.00000000000E+00 0.  1.
         11    1    3    3    0    0 -0.17947112353E+02  0.12449893456E+02  0.14571652179E+02  0.26257032131E+02  0.51100000000E-03 0. -1.
        -11    1    3    3    0    0 -0.68344622760E+01  0.47333377858E+01  0.40232606793E+01  0.92358533959E+01  0.51100000000E-03 0.  1.
         12    1    3    3    0    0 -0.93278383213E+01  0.60789951156E+01 -0.52143098133E+01  0.12294379862E+02  0.00000000000E+00 0. -1.
</event>
<event>
 7    1  0.2714068E-010  0.4778727E+02  0.7816164E-02  0.1312668E+00
        -11   -1    0    0    0    0  0.00000000000E+00  0.00000000000E+00  0.45593999997E+02  0.45594000000E+02  0.51100000000E-03 0. -1.
         11   -1    0    0    0    0 -0.00000000000E+00 -0.00000000000E+00 -0.45593999997E+02  0.45594000000E+02  0.51100000000E-03 0.  1.
    9900012    2    1    2    0    0  0.41393076520E+02  0.10286434244E+02 -0.80265668576E+01  0.47787270873E+02  0.19999999218E+02 0.  0.
        -12    1    1    2    0    0 -0.41393076520E+02 -0.10286434244E+02  0.80265668576E+01  0.43400729127E+02  0.00000000000E+00 0.  1.
         11    1    3    3    0    0  0.12144173984E+02  0.16882138594E+01 -0.29649586995E+01  0.12614357223E+02  0.51100000000E-03 0. -1.
        -11    1    3    3    0    0  0.40960847899E+01 -0.46092131235E+01  0.63172790198E+00  0.61985350389E+01  0.51100000000E-03 0.  1.
        -12    1    3    3    0    0  0.25152817746E+02  0.13207433508E+02 -0.56933360601E+01  0.28974378612E+02  0.00000000000E+00 0.  1.
</event>
<event>
 7    1  0.2714068E-010  0.4778728E+02  0.7816164E-02  0.1312668E+00
        -11   -1    0    0    0    0  0.00000000000E+00  0.00000000000E+00  0.45593999997E+02  0.45594000000E+02  0.51100000000E-03 0.  1.
         11   -1    0    0    0    0 -0.00000000000E+00 -0.00000000000E+00 -0.45593999997E+02  0.45594000000E+02  0.51100000000E-03 0. -1.
    9900012    2    1    2    0    0  0.11227978821E+02 -0.27767263298E+02 -0.31409145702E+02  0.47787275891E+02  0.20000022097E+02 0.  0.
        -12    1    1    2    0    0 -0.11227978821E+02  0.27767263298E+02  0.31409145702E+02  0.43400724109E+02  0.00000000000E+00 0.  1.
         11    1    3    3    0    0 -0.40249716759E+00 -0.22989350798E+01 -0.13364994070E+00  0.23377273234E+01  0.51100000000E-03 0. -1.
        -11    1    3    3    0    0 -0.11524098751E+01 -0.97100904499E+01 -0.19936254850E+02  0.22205138207E+02  0.51100000000E-03 0.  1.
        -12    1    3    3    0    0  0.12782885864E+02 -0.15758237769E+02 -0.11339240911E+02  0.23244410361E+02  0.00000000000E+00 0.  1.
</event>
<event>
 7    1  0.2714068E-010  0.4778727E+02  0.7816164E-02  0.1312668E+00
        -11   -1    0    0    0    0  0.00000000000E+00  0.00000000000E+00  0.45593999997E+02  0.45594000000E+02  0.51100000000E-03 0.  1.
         11   -1    0    0    0    0 -0.00000000000E+00 -0.00000000000E+00 -0.45593999997E+02  0.45594000000E+02  0.51100000000E-03 0. -1.
    9900012    2    1    2    0    0 -0.13549550437E+02 -0.14244718169E+02 -0.38692651096E+02  0.47787267730E+02  0.19999984887E+02 0.  0.
        -12    1    1    2    0    0  0.13549550437E+02  0.14244718169E+02  0.38692651096E+02  0.43400732270E+02  0.00000000000E+00 0.  1.
         11    1    3    3    0    0 -0.39634754142E+01 -0.30975921706E+01 -0.13009001513E+01  0.51958210207E+01  0.51100000000E-03 0. -1.
        -11    1    3    3    0    0 -0.11820276937E+02 -0.35389122600E+01 -0.25013570589E+02  0.27891245234E+02  0.51100000000E-03 0.  1.
        -12    1    3    3    0    0  0.22342019141E+01 -0.76082137381E+01 -0.12378180356E+02  0.14700201475E+02  0.00000000000E+00 0.  1.
</event>
<event>
 7    1  0.2714068E-010  0.4778727E+02  0.7816164E-02  0.1312668E+00
        -11   -1    0    0    0    0  0.00000000000E+00  0.00000000000E+00  0.45593999997E+02  0.45594000000E+02  0.51100000000E-03 0. -1.
         11   -1    0    0    0    0 -0.00000000000E+00 -0.00000000000E+00 -0.45593999997E+02  0.45594000000E+02  0.51100000000E-03 0.  1.
    9900012    2    1    2    0    0 -0.30662010749E+02  0.17369001320E+02  0.25333422732E+02  0.47787269392E+02  0.19999992467E+02 0.  0.
        -12    1    1    2    0    0  0.30662010749E+02 -0.17369001320E+02 -0.25333422732E+02  0.43400730608E+02  0.00000000000E+00 0.  1.
         11    1    3    3    0    0  0.10429273721E+01  0.62944540819E+01  0.47866200153E+01  0.79761883832E+01  0.51100000000E-03 0. -1.
        -11    1    3    3    0    0 -0.22051852659E+02  0.69238039320E+01  0.17104645559E+02  0.28753993923E+02  0.51100000000E-03 0.  1.
        -12    1    3    3    0    0 -0.96530854621E+01  0.41507433056E+01  0.34421571576E+01  0.11057087086E+02  0.00000000000E+00 0.  1.
</event>
<event>
 7    1  0.2714068E-010  0.4778727E+02  0.7816164E-02  0.1312668E+00
        -11   -1    0    0    0    0  0.00000000000E+00  0.00000000000E+00  0.45593999997E+02  0.45594000000E+02  0.51100000000E-03 0. -1.
         11   -1    0    0    0    0 -0.00000000000E+00 -0.00000000000E+00 -0.45593999997E+02  0.45594000000E+02  0.51100000000E-03 0.  1.
    9900012    2    1    2    0    0 -0.40780545279E+02 -0.10366438203E+02 -0.10635182049E+02  0.47787274067E+02  0.20000013782E+02 0.  0.
        -12    1    1    2    0    0  0.40780545279E+02  0.10366438203E+02  0.10635182049E+02  0.43400725933E+02  0.00000000000E+00 0.  1.
         11    1    3    3    0    0 -0.28389102387E+02 -0.16541870232E+01 -0.76587261281E+01  0.29450527249E+02  0.51100000000E-03 0. -1.
        -11    1    3    3    0    0 -0.14805554698E+01 -0.41585671045E+01  0.27491137233E+01  0.52003222387E+01  0.51100000000E-03 0.  1.
        -12    1    3    3    0    0 -0.10910887422E+02 -0.45536840755E+01 -0.57255696440E+01  0.13136424580E+02  0.00000000000E+00 0.  1.
</event>
<event>
 7    1  0.2714068E-010  0.4778727E+02  0.7816164E-02  0.1312668E+00
        -11   -1    0    0    0    0  0.00000000000E+00  0.00000000000E+00  0.45593999997E+02  0.45594000000E+02  0.51100000000E-03 0.  1.
         11   -1    0    0    0    0 -0.00000000000E+00 -0.00000000000E+00 -0.45593999997E+02  0.45594000000E+02  0.51100000000E-03 0. -1.
    9900012    2    1    2    0    0  0.27190294511E+02 -0.18951026009E+02 -0.28020879257E+02  0.47787272164E+02  0.20000005103E+02 0.  0.
        -12    1    1    2    0    0 -0.27190294511E+02  0.18951026009E+02  0.28020879257E+02  0.43400727836E+02  0.00000000000E+00 0.  1.
         11    1    3    3    0    0  0.15798278310E+02 -0.11117530446E+02 -0.49106092379E+01  0.19932364740E+02  0.51100000000E-03 0. -1.
        -11    1    3    3    0    0  0.31839011050E+01 -0.64885676089E+01 -0.10390577911E+02  0.12657126271E+02  0.51100000000E-03 0.  1.
         12    1    3    3    0    0  0.82081150955E+01 -0.13449279545E+01 -0.12719692109E+02  0.15197781153E+02  0.00000000000E+00 0. -1.
</event>
<event>
 7    1  0.2714068E-010  0.4778727E+02  0.7816164E-02  0.1312668E+00
        -11   -1    0    0    0    0  0.00000000000E+00  0.00000000000E+00  0.45593999997E+02  0.45594000000E+02  0.51100000000E-03 0.  1.
         11   -1    0    0    0    0 -0.00000000000E+00 -0.00000000000E+00 -0.45593999997E+02  0.45594000000E+02  0.51100000000E-03 0. -1.
    9900012    2    1    2    0    0  0.23118427354E+02  0.23497256881E+02 -0.28231902114E+02  0.47787273494E+02  0.20000011169E+02 0.  0.
        -12    1    1    2    0    0 -0.23118427354E+02 -0.23497256881E+02  0.28231902114E+02  0.43400726506E+02  0.00000000000E+00 0.  1.
         11    1    3    3    0    0  0.12641349374E+02  0.11313759288E+02 -0.18913351920E+02  0.25407080594E+02  0.51100000000E-03 0. -1.
        -11    1    3    3    0    0 -0.26168451601E+01  0.40703570916E+00 -0.53992177475E+00  0.27027897521E+01  0.51100000000E-03 0.  1.
        -12    1    3    3    0    0  0.13093923141E+02  0.11776461884E+02 -0.87786284201E+01  0.19677403148E+02  0.00000000000E+00 0.  1.
</event>
<event>
 7    1  0.2714068E-010  0.4778727E+02  0.7816164E-02  0.1312668E+00
        -11   -1    0    0    0    0  0.00000000000E+00  0.00000000000E+00  0.45593999997E+02  0.45594000000E+02  0.51100000000E-03 0.  1.
         11   -1    0    0    0    0 -0.00000000000E+00 -0.00000000000E+00 -0.45593999997E+02  0.45594000000E+02  0.51100000000E-03 0. -1.
    9900012    2    1    2    0    0 -0.12043287521E+02 -0.80963482199E+01 -0.40902711430E+02  0.47787269233E+02  0.19999991740E+02 0.  0.
        -12    1    1    2    0    0  0.12043287521E+02  0.80963482199E+01  0.40902711430E+02  0.43400730767E+02  0.00000000000E+00 0.  1.
         11    1    3    3    0    0 -0.91360883195E+01 -0.94764080341E+01 -0.21949745122E+02  0.25594173755E+02  0.51100000000E-03 0. -1.
        -11    1    3    3    0    0  0.26195386314E+01  0.42589403078E+01 -0.59348334235E+01  0.77603352513E+01  0.51100000000E-03 0.  1.
        -12    1    3    3    0    0 -0.55267378325E+01 -0.28788804936E+01 -0.13018132884E+02  0.14432760227E+02  0.00000000000E+00 0.  1.
</event>
<event>
 7    1  0.2714068E-010  0.4778727E+02  0.7816164E-02  0.1312668E+00
        -11   -1    0    0    0    0  0.00000000000E+00  0.00000000000E+00  0.45593999997E+02  0.45594000000E+02  0.51100000000E-03 0.  1.
         11   -1    0    0    0    0 -0.00000000000E+00 -0.00000000000E+00 -0.45593999997E+02  0.45594000000E+02  0.51100000000E-03 0. -1.
    9900012    2    1    2    0    0 -0.35954222310E+02  0.57660510190E+01 -0.23615044997E+02  0.47787265024E+02  0.19999972549E+02 0.  0.
        -12    1    1    2    0    0  0.35954222310E+02 -0.57660510190E+01  0.23615044997E+02  0.43400734976E+02  0.00000000000E+00 0.  1.
         11    1    3    3    0    0 -0.18486373136E+02  0.19374397070E+01 -0.60508438841E+01  0.19547694910E+02  0.51100000000E-03 0. -1.
        -11    1    3    3    0    0 -0.97456327151E+01  0.13567668368E+00 -0.17081010647E+02  0.19666130533E+02  0.51100000000E-03 0.  1.
        -12    1    3    3    0    0 -0.77222164587E+01  0.36929346284E+01 -0.48319046634E+00  0.85734395799E+01  0.00000000000E+00 0.  1.
</event>
<event>
 7    1  0.2714068E-010  0.4778728E+02  0.7816164E-02  0.1312668E+00
        -11   -1    0    0    0    0  0.00000000000E+00  0.00000000000E+00  0.45593999997E+02  0.45594000000E+02  0.51100000000E-03 0. -1.
         11   -1    0    0    0    0 -0.00000000000E+00 -0.00000000000E+00 -0.45593999997E+02  0.45594000000E+02  0.51100000000E-03 0.  1.
    9900012    2    1    2    0    0  0.95271812133E+01 -0.39993134566E+02  0.13907009270E+02  0.47787275339E+02  0.20000019580E+02 0.  0.
        -12    1    1    2    0    0 -0.95271812133E+01  0.39993134566E+02 -0.13907009270E+02  0.43400724661E+02  0.00000000000E+00 0.  1.
         11    1    3    3    0    0  0.12717300131E+02 -0.20860828847E+02  0.35348617352E+01  0.24686011232E+02  0.51100000000E-03 0. -1.
        -11    1    3    3    0    0 -0.60818943614E+00 -0.12920947687E+02  0.10025799791E+02  0.16365739984E+02  0.51100000000E-03 0.  1.
         12    1    3    3    0    0 -0.25819294815E+01 -0.62113580322E+01  0.34634774467E+00  0.67355241230E+01  0.00000000000E+00 0. -1.
</event>
<event>
 7    1  0.2714068E-010  0.4778727E+02  0.7816164E-02  0.1312668E+00
        -11   -1    0    0    0    0  0.00000000000E+00  0.00000000000E+00  0.45593999997E+02  0.45594000000E+02  0.51100000000E-03 0.  1.
         11   -1    0    0    0    0 -0.00000000000E+00 -0.00000000000E+00 -0.45593999997E+02  0.45594000000E+02  0.51100000000E-03 0. -1.
    9900012    2    1    2    0    0 -0.38716935423E+02 -0.13143526638E+02  0.14555753312E+02  0.47787270334E+02  0.19999996763E+02 0.  0.
        -12    1    1    2    0    0  0.38716935423E+02  0.13143526638E+02 -0.14555753312E+02  0.43400729666E+02  0.00000000000E+00 0.  1.
         11    1    3    3    0    0 -0.16391852037E+01  0.23303140421E+00 -0.18920017932E+01  0.25141405717E+01  0.51100000000E-03 0. -1.
        -11    1    3    3    0    0 -0.51530982504E+00 -0.88283409672E-01  0.45673311226E+01  0.45971569498E+01  0.51100000000E-03 0.  1.
        -12    1    3    3    0    0 -0.36562440394E+02 -0.13288274632E+02  0.11880423983E+02  0.40675972813E+02  0.00000000000E+00 0.  1.
</event>
<event>
 7    1  0.2714068E-010  0.4778726E+02  0.7816164E-02  0.1312668E+00
        -11   -1    0    0    0    0  0.00000000000E+00  0.00000000000E+00  0.45593999997E+02  0.45594000000E+02  0.51100000000E-03 0. -1.
         11   -1    0    0    0    0 -0.00000000000E+00 -0.00000000000E+00 -0.45593999997E+02  0.45594000000E+02  0.51100000000E-03 0.  1.
    9900012    2    1    2    0    0 -0.21159217370E+02 -0.29679768852E+02  0.23558919992E+02  0.47787264176E+02  0.19999968685E+02 0.  0.
        -12    1    1    2    0    0  0.21159217370E+02  0.29679768852E+02 -0.23558919992E+02  0.43400735824E+02  0.00000000000E+00 0.  1.
         11    1    3    3    0    0 -0.52922599695E+01 -0.38812553026E+01 -0.17863470128E+01  0.68017052435E+01  0.51100000000E-03 0. -1.
        -11    1    3    3    0    0 -0.60350390851E+01 -0.10670527618E+02  0.17367534597E+02  0.21258248156E+02  0.51100000000E-03 0.  1.
         12    1    3    3    0    0 -0.98319183157E+01 -0.15127985932E+02  0.79777324076E+01  0.19727310777E+02  0.00000000000E+00 0. -1.
</event>
<event>
 7    1  0.2714068E-010  0.4778727E+02  0.7816164E-02  0.1312668E+00
        -11   -1    0    0    0    0  0.00000000000E+00  0.00000000000E+00  0.45593999997E+02  0.45594000000E+02  0.51100000000E-03 0.  1.
         11   -1    0    0    0    0 -0.00000000000E+00 -0.00000000000E+00 -0.45593999997E+02  0.45594000000E+02  0.51100000000E-03 0. -1.
    9900012    2    1    2    0    0 -0.23035064362E+02 -0.36754810392E+02  0.14466905816E+01  0.47787272002E+02  0.20000004366E+02 0.  0.
        -12    1    1    2    0    0  0.23035064362E+02  0.36754810392E+02 -0.14466905816E+01  0.43400727998E+02  0.00000000000E+00 0.  1.
         11    1    3    3    0    0 -0.36054044230E+01 -0.16353404208E+01 -0.47387833890E+01  0.61748965671E+01  0.51100000000E-03 0. -1.
        -11    1    3    3    0    0 -0.47145260829E+01 -0.37749190462E+01  0.32572897772E+01  0.68619754405E+01  0.51100000000E-03 0.  1.
         12    1    3    3    0    0 -0.14715133856E+02 -0.31344550925E+02  0.29281841935E+01  0.34750399994E+02  0.00000000000E+00 0. -1.
</event>
<event>
 7    1  0.2714068E-010  0.4778726E+02  0.7816164E-02  0.1312668E+00
        -11   -1    0    0    0    0  0.00000000000E+00  0.00000000000E+00  0.45593999997E+02  0.45594000000E+02  0.51100000000E-03 0. -1.
         11   -1    0    0    0    0 -0.00000000000E+00 -0.00000000000E+00 -0.45593999997E+02  0.45594000000E+02  0.51100000000E-03 0.  1.
    9900012    2    1    2    0    0 -0.18390592750E+02  0.29378402669E+02  0.26121245374E+02  0.47787263773E+02  0.19999966849E+02 0.  0.
        -12    1    1    2    0    0  0.18390592750E+02 -0.29378402669E+02 -0.26121245374E+02  0.43400736227E+02  0.00000000000E+00 0.  1.
         11    1    3    3    0    0 -0.38532521765E+01 -0.11796149980E+01  0.65775931117E+01  0.77138690217E+01  0.51100000000E-03 0. -1.
        -11    1    3    3    0    0 -0.10916957094E+02  0.12948261710E+02  0.82126806231E+01  0.18822474778E+02  0.51100000000E-03 0.  1.
         12    1    3    3    0    0 -0.36203834794E+01  0.17609755958E+02  0.11330971639E+02  0.21250919973E+02  0.00000000000E+00 0. -1.
</event>
<event>
 7    1  0.2714068E-010  0.4778727E+02  0.7816164E-02  0.1312668E+00
        -11   -1    0    0    0    0  0.00000000000E+00  0.00000000000E+00  0.45593999997E+02  0.45594000000E+02  0.51100000000E-03 0.  1.
         11   -1    0    0    0    0 -0.00000000000E+00 -0.00000000000E+00 -0.45593999997E+02  0.45594000000E+02  0.51100000000E-03 0. -1.
    9900012    2    1    2    0    0 -0.40687411580E+02 -0.89095750991E+01 -0.12197428445E+02  0.47787271317E+02  0.20000001243E+02 0.  0.
        -12    1    1    2    0    0  0.40687411580E+02  0.89095750991E+01  0.12197428445E+02  0.43400728683E+02  0.00000000000E+00 0.  1.
         11    1    3    3    0    0 -0.16689731923E+02 -0.44684837943E+01  0.42425726646E+01  0.17790838152E+02  0.51100000000E-03 0. -1.
        -11    1    3    3    0    0 -0.63004105610E+00 -0.96239097543E+00 -0.20016932633E+01  0.23086628822E+01  0.51100000000E-03 0.  1.
         12    1    3    3    0    0 -0.23367638601E+02 -0.34787003293E+01 -0.14438307846E+02  0.27687770283E+02  0.00000000000E+00 0. -1.
</event>
<event>
 7    1  0.2714068E-010  0.4778727E+02  0.7816164E-02  0.1312668E+00
        -11   -1    0    0    0    0  0.00000000000E+00  0.00000000000E+00  0.45593999997E+02  0.45594000000E+02  0.51100000000E-03 0.  1.
         11   -1    0    0    0    0 -0.00000000000E+00 -0.00000000000E+00 -0.45593999997E+02  0.45594000000E+02  0.51100000000E-03 0. -1.
    9900012    2    1    2    0    0 -0.38610574528E+02 -0.65966047533E+01 -0.18690415346E+02  0.47787270911E+02  0.19999999390E+02 0.  0.
        -12    1    1    2    0    0  0.38610574528E+02  0.65966047533E+01  0.18690415346E+02  0.43400729089E+02  0.00000000000E+00 0.  1.
         11    1    3    3    0    0 -0.88704166920E+01  0.19639361916E+01  0.57760805312E+00  0.91035690242E+01  0.51100000000E-03 0.  1.
        -11    1    3    3    0    0 -0.25502282156E+02 -0.67063825229E+01 -0.21035487749E+02  0.33731790744E+02  0.51100000000E-03 0. -1.
         12    1    3    3    0    0 -0.42378756808E+01 -0.18541584219E+01  0.17674643498E+01  0.49519111429E+01  0.00000000000E+00 0. -1.
</event>
<event>
 7    1  0.2714068E-010  0.4778727E+02  0.7816164E-02  0.1312668E+00
        -11   -1    0    0    0    0  0.00000000000E+00  0.00000000000E+00  0.45593999997E+02  0.45594000000E+02  0.51100000000E-03 0. -1.
         11   -1    0    0    0    0 -0.00000000000E+00 -0.00000000000E+00 -0.45593999997E+02  0.45594000000E+02  0.51100000000E-03 0.  1.
    9900012    2    1    2    0    0  0.17937353233E+01  0.43310593775E+02  0.21443711958E+01  0.47787270198E+02  0.19999996141E+02 0.  0.
        -12    1    1    2    0    0 -0.17937353233E+01 -0.43310593775E+02 -0.21443711958E+01  0.43400729802E+02  0.00000000000E+00 0.  1.
         11    1    3    3    0    0  0.32237344733E+01  0.17176752807E+02 -0.59056162565E+00  0.17486625296E+02  0.51100000000E-03 0. -1.
        -11    1    3    3    0    0 -0.58273951010E+00  0.24825879698E+02 -0.23867166752E+01  0.24947150235E+02  0.51100000000E-03 0.  1.
        -12    1    3    3    0    0 -0.84725963988E+00  0.13079612697E+01  0.51216494966E+01  0.53534946667E+01  0.00000000000E+00 0.  1.
</event>
<event>
 7    1  0.2714068E-010  0.4778725E+02  0.7816164E-02  0.1312668E+00
        -11   -1    0    0    0    0  0.00000000000E+00  0.00000000000E+00  0.45593999997E+02  0.45594000000E+02  0.51100000000E-03 0.  1.
         11   -1    0    0    0    0 -0.00000000000E+00 -0.00000000000E+00 -0.45593999997E+02  0.45594000000E+02  0.51100000000E-03 0. -1.
    9900012    2    1    2    0    0  0.40678922965E+02 -0.77167003599E+01 -0.13011636379E+02  0.47787252088E+02  0.19999913571E+02 0.  0.
        -12    1    1    2    0    0 -0.40678922965E+02  0.77167003599E+01  0.13011636379E+02  0.43400747912E+02  0.00000000000E+00 0.  1.
         11    1    3    3    0    0  0.38651579001E+02 -0.87615472667E+01 -0.13145850837E+02  0.41755510586E+02  0.51100000000E-03 0. -1.
        -11    1    3    3    0    0  0.15615972142E+01  0.30180290344E+01  0.13627351450E+01  0.36611654494E+01  0.51100000000E-03 0.  1.
        -12    1    3    3    0    0  0.46574674950E+00 -0.19731821276E+01 -0.12285206871E+01  0.23705760527E+01  0.00000000000E+00 0.  1.
</event>
<event>
 7    1  0.2714068E-010  0.4778727E+02  0.7816164E-02  0.1312668E+00
        -11   -1    0    0    0    0  0.00000000000E+00  0.00000000000E+00  0.45593999997E+02  0.45594000000E+02  0.51100000000E-03 0. -1.
         11   -1    0    0    0    0 -0.00000000000E+00 -0.00000000000E+00 -0.45593999997E+02  0.45594000000E+02  0.51100000000E-03 0.  1.
    9900012    2    1    2    0    0 -0.20637575650E+02 -0.13815280898E+02  0.35592862108E+02  0.47787270191E+02  0.19999996107E+02 0.  0.
        -12    1    1    2    0    0  0.20637575650E+02  0.13815280898E+02 -0.35592862108E+02  0.43400729809E+02  0.00000000000E+00 0.  1.
         11    1    3    3    0    0 -0.13005625774E+02 -0.16443569108E+02  0.23400967541E+02  0.31418824754E+02  0.51100000000E-03 0. -1.
        -11    1    3    3    0    0 -0.76252982303E+01  0.41690853598E+01  0.76697505680E+01  0.11591010304E+02  0.51100000000E-03 0.  1.
         12    1    3    3    0    0 -0.66516448692E-02 -0.15407971504E+01  0.45221439983E+01  0.47774351324E+01  0.00000000000E+00 0. -1.
</event>
<event>
 7    1  0.2714068E-010  0.4778727E+02  0.7816164E-02  0.1312668E+00
        -11   -1    0    0    0    0  0.00000000000E+00  0.00000000000E+00  0.45593999997E+02  0.45594000000E+02  0.51100000000E-03 0. -1.
         11   -1    0    0    0    0 -0.00000000000E+00 -0.00000000000E+00 -0.45593999997E+02  0.45594000000E+02  0.51100000000E-03 0.  1.
    9900012    2    1    2    0    0 -0.36266523753E+02  0.23241140150E+02 -0.53115018208E+01  0.47787269681E+02  0.19999993784E+02 0.  0.
        -12    1    1    2    0    0  0.36266523753E+02 -0.23241140150E+02  0.53115018208E+01  0.43400730319E+02  0.00000000000E+00 0.  1.
         11    1    3    3    0    0 -0.28900146449E+02  0.19306589985E+02  0.19344505218E+01  0.34809553009E+02  0.51100000000E-03 0. -1.
        -11    1    3    3    0    0  0.98474608033E+00  0.70234952656E+00 -0.26486325974E+01  0.29117476878E+01  0.51100000000E-03 0.  1.
         12    1    3    3    0    0 -0.83511233848E+01  0.32322006391E+01 -0.45973197452E+01  0.10065968985E+02  0.00000000000E+00 0. -1.
</event>
<event>
 7    1  0.2714068E-010  0.4778727E+02  0.7816164E-02  0.1312668E+00
        -11   -1    0    0    0    0  0.00000000000E+00  0.00000000000E+00  0.45593999997E+02  0.45594000000E+02  0.51100000000E-03 0. -1.
         11   -1    0    0    0    0 -0.00000000000E+00 -0.00000000000E+00 -0.45593999997E+02  0.45594000000E+02  0.51100000000E-03 0.  1.
    9900012    2    1    2    0    0  0.60699560905E+01  0.35372791680E+02  0.24403775478E+02  0.47787274018E+02  0.20000013557E+02 0.  0.
        -12    1    1    2    0    0 -0.60699560905E+01 -0.35372791680E+02 -0.24403775478E+02  0.43400725982E+02  0.00000000000E+00 0.  1.
         11    1    3    3    0    0  0.27123351120E+01 -0.47060531810E+00 -0.95337501352E+00  0.29132722672E+01  0.51100000000E-03 0.  1.
        -11    1    3    3    0    0  0.24708269308E+01  0.82701094573E+01  0.23332901307E+01  0.89411374697E+01  0.51100000000E-03 0. -1.
         12    1    3    3    0    0  0.88679404771E+00  0.27573287541E+02  0.23023860361E+02  0.35932864281E+02  0.00000000000E+00 0. -1.
</event>
<event>
 7    1  0.2714068E-010  0.4778725E+02  0.7816164E-02  0.1312668E+00
        -11   -1    0    0    0    0  0.00000000000E+00  0.00000000000E+00  0.45593999997E+02  0.45594000000E+02  0.51100000000E-03 0. -1.
         11   -1    0    0    0    0 -0.00000000000E+00 -0.00000000000E+00 -0.45593999997E+02  0.45594000000E+02  0.51100000000E-03 0.  1.
    9900012    2    1    2    0    0  0.10289723867E+01  0.19966491197E+02  0.38521493990E+02  0.47787250535E+02  0.19999906488E+02 0.  0.
        -12    1    1    2    0    0 -0.10289723867E+01 -0.19966491197E+02 -0.38521493990E+02  0.43400749465E+02  0.00000000000E+00 0.  1.
         11    1    3    3    0    0  0.14048314420E+00  0.15267633816E+01 -0.18692347794E+01  0.24175981591E+01  0.51100000000E-03 0. -1.
        -11    1    3    3    0    0 -0.12768807966E+01  0.35076706979E+00  0.33552399571E+00  0.13660302774E+01  0.51100000000E-03 0.  1.
         12    1    3    3    0    0  0.21653700392E+01  0.18088960746E+02  0.40055204774E+02  0.44003622098E+02  0.00000000000E+00 0. -1.
</event>
<event>
 7    1  0.2714068E-010  0.4778727E+02  0.7816164E-02  0.1312668E+00
        -11   -1    0    0    0    0  0.00000000000E+00  0.00000000000E+00  0.45593999997E+02  0.45594000000E+02  0.51100000000E-03 0. -1.
         11   -1    0    0    0    0 -0.00000000000E+00 -0.00000000000E+00 -0.45593999997E+02  0.45594000000E+02  0.51100000000E-03 0.  1.
    9900012    2    1    2    0    0 -0.35476274129E+02  0.56639593861E+01  0.24351123612E+02  0.47787266329E+02  0.19999978502E+02 0.  0.
        -12    1    1    2    0    0  0.35476274129E+02 -0.56639593861E+01 -0.24351123612E+02  0.43400733671E+02  0.00000000000E+00 0.  1.
         11    1    3    3    0    0 -0.83638396195E+01 -0.20617181608E+01  0.67405030040E+01  0.10937955749E+02  0.51100000000E-03 0. -1.
        -11    1    3    3    0    0  0.20622548743E+01  0.13221133988E+01  0.19014720330E+01  0.31010442046E+01  0.51100000000E-03 0.  1.
        -12    1    3    3    0    0 -0.29174689384E+02  0.64035641481E+01  0.15709148575E+02  0.33748266376E+02  0.00000000000E+00 0.  1.
</event>
<event>
 7    1  0.2714068E-010  0.4778727E+02  0.7816164E-02  0.1312668E+00
        -11   -1    0    0    0    0  0.00000000000E+00  0.00000000000E+00  0.45593999997E+02  0.45594000000E+02  0.51100000000E-03 0.  1.
         11   -1    0    0    0    0 -0.00000000000E+00 -0.00000000000E+00 -0.45593999997E+02  0.45594000000E+02  0.51100000000E-03 0. -1.
    9900012    2    1    2    0    0  0.59057075113E+01 -0.84963104035E+01 -0.42149244591E+02  0.47787268540E+02  0.19999988582E+02 0.  0.
        -12    1    1    2    0    0 -0.59057075113E+01  0.84963104035E+01  0.42149244591E+02  0.43400731460E+02  0.00000000000E+00 0.  1.
         11    1    3    3    0    0 -0.43953667699E+01  0.17590899749E+00 -0.17572187637E+02  0.18114413367E+02  0.51100000000E-03 0. -1.
        -11    1    3    3    0    0  0.26773877776E+01 -0.22024236894E-01 -0.13220770979E+02  0.13489168837E+02  0.51100000000E-03 0.  1.
         12    1    3    3    0    0  0.76236865036E+01 -0.86501951641E+01 -0.11356285975E+02  0.16183686336E+02  0.00000000000E+00 0. -1.
</event>
<event>
 7    1  0.2714068E-010  0.4778727E+02  0.7816164E-02  0.1312668E+00
        -11   -1    0    0    0    0  0.00000000000E+00  0.00000000000E+00  0.45593999997E+02  0.45594000000E+02  0.51100000000E-03 0.  1.
         11   -1    0    0    0    0 -0.00000000000E+00 -0.00000000000E+00 -0.45593999997E+02  0.45594000000E+02  0.51100000000E-03 0. -1.
    9900012    2    1    2    0    0 -0.36220034418E+02  0.71151613896E+01 -0.22827769742E+02  0.47787268598E+02  0.19999988845E+02 0.  0.
        -12    1    1    2    0    0  0.36220034418E+02 -0.71151613896E+01  0.22827769742E+02  0.43400731402E+02  0.00000000000E+00 0.  1.
         11    1    3    3    0    0 -0.21309737944E+02  0.34898159624E+01 -0.20732019931E+02  0.29934936067E+02  0.51100000000E-03 0. -1.
        -11    1    3    3    0    0  0.17725033249E+00  0.15004923260E+01 -0.21353536511E+01  0.26158421927E+01  0.51100000000E-03 0.  1.
         12    1    3    3    0    0 -0.15087546807E+02  0.21248531013E+01  0.39603839668E-01  0.15236490338E+02  0.00000000000E+00 0. -1.
</event>
<event>
 7    1  0.2714068E-010  0.4778728E+02  0.7816164E-02  0.1312668E+00
        -11   -1    0    0    0    0  0.00000000000E+00  0.00000000000E+00  0.45593999997E+02  0.45594000000E+02  0.51100000000E-03 0.  1.
         11   -1    0    0    0    0 -0.00000000000E+00 -0.00000000000E+00 -0.45593999997E+02  0.45594000000E+02  0.51100000000E-03 0. -1.
    9900012    2    1    2    0    0 -0.32911067544E+02  0.28100713674E+02  0.32915618680E+01  0.47787275865E+02  0.20000021980E+02 0.  0.
        -12    1    1    2    0    0  0.32911067544E+02 -0.28100713674E+02 -0.32915618680E+01  0.43400724135E+02  0.00000000000E+00 0.  1.
         11    1    3    3    0    0 -0.11161986302E+02  0.25660767888E+01  0.53323237080E+01  0.12633620411E+02  0.51100000000E-03 0. -1.
        -11    1    3    3    0    0 -0.36183725794E+01  0.10665407500E+02 -0.31007794225E+01  0.11681539734E+02  0.51100000000E-03 0.  1.
         12    1    3    3    0    0 -0.18130708663E+02  0.14869229385E+02  0.10600175825E+01  0.23472115721E+02  0.00000000000E+00 0. -1.
</event>
<event>
 7    1  0.2714068E-010  0.4778727E+02  0.7816164E-02  0.1312668E+00
        -11   -1    0    0    0    0  0.00000000000E+00  0.00000000000E+00  0.45593999997E+02  0.45594000000E+02  0.51100000000E-03 0.  1.
         11   -1    0    0    0    0 -0.00000000000E+00 -0.00000000000E+00 -0.45593999997E+02  0.45594000000E+02  0.51100000000E-03 0. -1.
    9900012    2    1    2    0    0  0.35778962037E+02 -0.12598747093E+02 -0.21089356144E+02  0.47787268493E+02  0.19999988367E+02 0.  0.
        -12    1    1    2    0    0 -0.35778962037E+02  0.12598747093E+02  0.21089356144E+02  0.43400731507E+02  0.00000000000E+00 0.  1.
         11    1    3    3    0    0  0.76711638068E+01  0.27605796380E+01  0.43034405257E+00  0.81641135681E+01  0.51100000000E-03 0. -1.
        -11    1    3    3    0    0  0.29706951130E+01  0.68192208595E+00 -0.38189852158E+00  0.30717900201E+01  0.51100000000E-03 0.  1.
         12    1    3    3    0    0  0.25137103117E+02 -0.16041248817E+02 -0.21137801675E+02  0.36551364905E+02  0.00000000000E+00 0. -1.
</event>
<event>
 7    1  0.2714068E-010  0.4778727E+02  0.7816164E-02  0.1312668E+00
        -11   -1    0    0    0    0  0.00000000000E+00  0.00000000000E+00  0.45593999997E+02  0.45594000000E+02  0.51100000000E-03 0.  1.
         11   -1    0    0    0    0 -0.00000000000E+00 -0.00000000000E+00 -0.45593999997E+02  0.45594000000E+02  0.51100000000E-03 0. -1.
    9900012    2    1    2    0    0 -0.41051575659E+02 -0.11379242801E+02  0.83008793482E+01  0.47787266956E+02  0.19999981357E+02 0.  0.
        -12    1    1    2    0    0  0.41051575659E+02  0.11379242801E+02 -0.83008793482E+01  0.43400733044E+02  0.00000000000E+00 0.  1.
         11    1    3    3    0    0  0.47197649586E+00  0.14537409800E+01 -0.20115116549E+01  0.25263222377E+01  0.51100000000E-03 0. -1.
        -11    1    3    3    0    0 -0.56094549344E+01 -0.41132746044E+01  0.30568567764E+01  0.75979856702E+01  0.51100000000E-03 0.  1.
         12    1    3    3    0    0 -0.35914097221E+02 -0.87197091771E+01  0.72555342267E+01  0.37662959048E+02  0.00000000000E+00 0. -1.
</event>
<event>
 7    1  0.2714068E-010  0.4778727E+02  0.7816164E-02  0.1312668E+00
        -11   -1    0    0    0    0  0.00000000000E+00  0.00000000000E+00  0.45593999997E+02  0.45594000000E+02  0.51100000000E-03 0.  1.
         11   -1    0    0    0    0 -0.00000000000E+00 -0.00000000000E+00 -0.45593999997E+02  0.45594000000E+02  0.51100000000E-03 0. -1.
    9900012    2    1    2    0    0  0.28731138741E+02 -0.32410604188E+02  0.27744241662E+01  0.47787273893E+02  0.20000012987E+02 0.  0.
        -12    1    1    2    0    0 -0.28731138741E+02  0.32410604188E+02 -0.27744241662E+01  0.43400726107E+02  0.00000000000E+00 0.  1.
         11    1    3    3    0    0 -0.20073778282E+01 -0.30866144605E+01 -0.19560570258E+01  0.41692821830E+01  0.51100000000E-03 0. -1.
        -11    1    3    3    0    0  0.28838225122E+02 -0.23403912981E+02  0.42328046668E+01  0.37380516404E+02  0.51100000000E-03 0.  1.
        -12    1    3    3    0    0  0.19002914465E+01 -0.59200767464E+01  0.49767652521E+00  0.62374753056E+01  0.00000000000E+00 0.  1.
</event>
<event>
 7    1  0.2714068E-010  0.4778727E+02  0.7816164E-02  0.1312668E+00
        -11   -1    0    0    0    0  0.00000000000E+00  0.00000000000E+00  0.45593999997E+02  0.45594000000E+02  0.51100000000E-03 0.  1.
         11   -1    0    0    0    0 -0.00000000000E+00 -0.00000000000E+00 -0.45593999997E+02  0.45594000000E+02  0.51100000000E-03 0. -1.
    9900012    2    1    2    0    0  0.63432379687E+01 -0.35609430673E+02 -0.23986560987E+02  0.47787270412E+02  0.19999997118E+02 0.  0.
        -12    1    1    2    0    0 -0.63432379687E+01  0.35609430673E+02  0.23986560987E+02  0.43400729588E+02  0.00000000000E+00 0.  1.
         11    1    3    3    0    0 -0.51239662274E+01 -0.56157008296E+01 -0.76258574545E+01  0.10767768009E+02  0.51100000000E-03 0. -1.
        -11    1    3    3    0    0  0.51856827021E+01 -0.17681557839E+02 -0.49066849407E+01  0.19068412363E+02  0.51100000000E-03 0.  1.
         12    1    3    3    0    0  0.62815214940E+01 -0.12312172005E+02 -0.11454018591E+02  0.17951090041E+02  0.00000000000E+00 0. -1.
</event>
<event>
 7    1  0.2714068E-010  0.4778728E+02  0.7816164E-02  0.1312668E+00
        -11   -1    0    0    0    0  0.00000000000E+00  0.00000000000E+00  0.45593999997E+02  0.45594000000E+02  0.51100000000E-03 0.  1.
         11   -1    0    0    0    0 -0.00000000000E+00 -0.00000000000E+00 -0.45593999997E+02  0.45594000000E+02  0.51100000000E-03 0. -1.
    9900012    2    1    2    0    0 -0.37319106416E+02  0.38782391966E+01 -0.21814350855E+02  0.47787281732E+02  0.20000048727E+02 0.  0.
        -12    1    1    2    0    0  0.37319106416E+02 -0.38782391966E+01  0.21814350855E+02  0.43400718268E+02  0.00000000000E+00 0.  1.
         11    1    3    3    0    0 -0.16694040996E+02 -0.68113019388E+01 -0.12740590320E+02  0.22077306920E+02  0.51100000000E-03 0. -1.
        -11    1    3    3    0    0 -0.65825967908E+01  0.60653020279E+01 -0.54800296318E+01  0.10495198627E+02  0.51100000000E-03 0.  1.
         12    1    3    3    0    0 -0.14042468630E+02  0.46242391075E+01 -0.35937309034E+01  0.15214776185E+02  0.00000000000E+00 0. -1.
</event>
<event>
 7    1  0.2714068E-010  0.4778727E+02  0.7816164E-02  0.1312668E+00
        -11   -1    0    0    0    0  0.00000000000E+00  0.00000000000E+00  0.45593999997E+02  0.45594000000E+02  0.51100000000E-03 0.  1.
         11   -1    0    0    0    0 -0.00000000000E+00 -0.00000000000E+00 -0.45593999997E+02  0.45594000000E+02  0.51100000000E-03 0. -1.
    9900012    2    1    2    0    0  0.89660195521E+01 -0.79730558936E+01 -0.41709281664E+02  0.47787270699E+02  0.19999998426E+02 0.  0.
        -12    1    1    2    0    0 -0.89660195521E+01  0.79730558936E+01  0.41709281664E+02  0.43400729301E+02  0.00000000000E+00 0.  1.
         11    1    3    3    0    0  0.62537093752E+01  0.38668845084E+01 -0.78310929140E+01  0.10741866376E+02  0.51100000000E-03 0. -1.
        -11    1    3    3    0    0 -0.17887653429E+01 -0.42655443312E+01 -0.48180699476E+01  0.66789481338E+01  0.51100000000E-03 0.  1.
         12    1    3    3    0    0  0.45010755198E+01 -0.75743960709E+01 -0.29060118803E+02  0.30366456189E+02  0.00000000000E+00 0. -1.
</event>
<event>
 7    1  0.2714068E-010  0.4778727E+02  0.7816164E-02  0.1312668E+00
        -11   -1    0    0    0    0  0.00000000000E+00  0.00000000000E+00  0.45593999997E+02  0.45594000000E+02  0.51100000000E-03 0.  1.
         11   -1    0    0    0    0 -0.00000000000E+00 -0.00000000000E+00 -0.45593999997E+02  0.45594000000E+02  0.51100000000E-03 0. -1.
    9900012    2    1    2    0    0  0.35867404474E+02  0.22701774259E+02 -0.90433369514E+01  0.47787271879E+02  0.20000003806E+02 0.  0.
        -12    1    1    2    0    0 -0.35867404474E+02 -0.22701774259E+02  0.90433369514E+01  0.43400728121E+02  0.00000000000E+00 0.  1.
         11    1    3    3    0    0  0.31176743006E+02  0.14106450177E+02 -0.67698726794E+01  0.34882838437E+02  0.51100000000E-03 0. -1.
        -11    1    3    3    0    0  0.37015874127E+01  0.98701581379E+01 -0.56810520794E+00  0.10556728415E+02  0.51100000000E-03 0.  1.
         12    1    3    3    0    0  0.98907405494E+00 -0.12748340560E+01 -0.17053590641E+01  0.23477050270E+01  0.00000000000E+00 0. -1.
</event>
<event>
 7    1  0.2714068E-010  0.4778727E+02  0.7816164E-02  0.1312668E+00
        -11   -1    0    0    0    0  0.00000000000E+00  0.00000000000E+00  0.45593999997E+02  0.45594000000E+02  0.51100000000E-03 0.  1.
         11   -1    0    0    0    0 -0.00000000000E+00 -0.00000000000E+00 -0.45593999997E+02  0.45594000000E+02  0.51100000000E-03 0. -1.
    9900012    2    1    2    0    0 -0.29017877072E+02 -0.29181496984E+02 -0.13784993453E+02  0.47787274194E+02  0.20000014360E+02 0.  0.
        -12    1    1    2    0    0  0.29017877072E+02  0.29181496984E+02  0.13784993453E+02  0.43400725806E+02  0.00000000000E+00 0.  1.
         11    1    3    3    0    0 -0.13351170974E+02 -0.20955787600E+02 -0.13586653797E+02  0.28319533223E+02  0.51100000000E-03 0. -1.
        -11    1    3    3    0    0 -0.16527294842E+02 -0.76181435626E+01  0.49727161045E+00  0.18205352659E+02  0.51100000000E-03 0.  1.
        -12    1    3    3    0    0  0.86058874475E+00 -0.60756582204E+00 -0.69561126626E+00  0.12623883117E+01  0.00000000000E+00 0.  1.
</event>
<event>
 7    1  0.2714068E-010  0.4778727E+02  0.7816164E-02  0.1312668E+00
        -11   -1    0    0    0    0  0.00000000000E+00  0.00000000000E+00  0.45593999997E+02  0.45594000000E+02  0.51100000000E-03 0.  1.
         11   -1    0    0    0    0 -0.00000000000E+00 -0.00000000000E+00 -0.45593999997E+02  0.45594000000E+02  0.51100000000E-03 0. -1.
    9900012    2    1    2    0    0 -0.16630730901E+02  0.34886349677E+02 -0.19748030934E+02  0.47787270400E+02  0.19999997060E+02 0.  0.
        -12    1    1    2    0    0  0.16630730901E+02 -0.34886349677E+02  0.19748030934E+02  0.43400729600E+02  0.00000000000E+00 0.  1.
         11    1    3    3    0    0 -0.10248028881E+02  0.20265268049E+02 -0.14001141321E+02  0.26678364710E+02  0.51100000000E-03 0. -1.
        -11    1    3    3    0    0 -0.33755211966E+01  0.12123864571E+02  0.16991870792E+01  0.12699191804E+02  0.51100000000E-03 0.  1.
        -12    1    3    3    0    0 -0.30071808234E+01  0.24972170574E+01 -0.74460766925E+01  0.84097138861E+01  0.00000000000E+00 0.  1.
</event>
<event>
 7    1  0.2714068E-010  0.4778727E+02  0.7816164E-02  0.1312668E+00
        -11   -1    0    0    0    0  0.00000000000E+00  0.00000000000E+00  0.45593999997E+02  0.45594000000E+02  0.51100000000E-03 0.  1.
         11   -1    0    0    0    0 -0.00000000000E+00 -0.00000000000E+00 -0.45593999997E+02  0.45594000000E+02  0.51100000000E-03 0. -1.
    9900012    2    1    2    0    0  0.29497482217E+02  0.30214798403E+02 -0.10029369116E+02  0.47787265622E+02  0.19999975277E+02 0.  0.
        -12    1    1    2    0    0 -0.29497482217E+02 -0.30214798403E+02  0.10029369116E+02  0.43400734378E+02  0.00000000000E+00 0.  1.
         11    1    3    3    0    0  0.15503137443E+02  0.56731959908E+01 -0.65769872796E+01  0.17770458218E+02  0.51100000000E-03 0. -1.
        -11    1    3    3    0    0  0.14484389484E+02  0.24370965122E+02 -0.46337292778E+01  0.28726519576E+02  0.51100000000E-03 0.  1.
         12    1    3    3    0    0 -0.49004470986E+00  0.17063729011E+00  0.11813474411E+01  0.12902878279E+01  0.00000000000E+00 0. -1.
</event>
<event>
 7    1  0.2714068E-010  0.4778722E+02  0.7816164E-02  0.1312668E+00
        -11   -1    0    0    0    0  0.00000000000E+00  0.00000000000E+00  0.45593999997E+02  0.45594000000E+02  0.51100000000E-03 0.  1.
         11   -1    0    0    0    0 -0.00000000000E+00 -0.00000000000E+00 -0.45593999997E+02  0.45594000000E+02  0.51100000000E-03 0. -1.
    9900012    2    1    2    0    0 -0.90411182536E+01  0.10380406914E+02 -0.41159850282E+02  0.47787217262E+02  0.19999754785E+02 0.  0.
        -12    1    1    2    0    0  0.90411182536E+01 -0.10380406914E+02  0.41159850282E+02  0.43400782738E+02  0.00000000000E+00 0.  1.
         11    1    3    3    0    0  0.58022749416E+01  0.58922283612E+01 -0.14536593250E+02  0.16724152987E+02  0.51100000000E-03 0. -1.
        -11    1    3    3    0    0 -0.90019192494E+01  0.67952577130E+00 -0.15301482602E+02  0.17766025879E+02  0.51100000000E-03 0.  1.
        -12    1    3    3    0    0 -0.58414739458E+01  0.38086527820E+01 -0.11321774430E+02  0.13297038396E+02  0.00000000000E+00 0.  1.
</event>
<event>
 7    1  0.2714068E-010  0.4778727E+02  0.7816164E-02  0.1312668E+00
        -11   -1    0    0    0    0  0.00000000000E+00  0.00000000000E+00  0.45593999997E+02  0.45594000000E+02  0.51100000000E-03 0.  1.
         11   -1    0    0    0    0 -0.00000000000E+00 -0.00000000000E+00 -0.45593999997E+02  0.45594000000E+02  0.51100000000E-03 0. -1.
    9900012    2    1    2    0    0  0.14165863948E+02 -0.32911169193E+02 -0.24490949734E+02  0.47787269846E+02  0.19999994536E+02 0.  0.
        -12    1    1    2    0    0 -0.14165863948E+02  0.32911169193E+02  0.24490949734E+02  0.43400730154E+02  0.00000000000E+00 0.  1.
         11    1    3    3    0    0  0.33835825391E+01  0.98706659164E+00 -0.30557850627E+01  0.46648423195E+01  0.51100000000E-03 0. -1.
        -11    1    3    3    0    0 -0.20984900451E+01 -0.15911629218E+01 -0.16700008029E+01  0.31183910685E+01  0.51100000000E-03 0.  1.
         12    1    3    3    0    0  0.12880771454E+02 -0.32307072863E+02 -0.19765163868E+02  0.40004036458E+02  0.00000000000E+00 0. -1.
</event>
<event>
 7    1  0.2714068E-010  0.4778727E+02  0.7816164E-02  0.1312668E+00
        -11   -1    0    0    0    0  0.00000000000E+00  0.00000000000E+00  0.45593999997E+02  0.45594000000E+02  0.51100000000E-03 0.  1.
         11   -1    0    0    0    0 -0.00000000000E+00 -0.00000000000E+00 -0.45593999997E+02  0.45594000000E+02  0.51100000000E-03 0. -1.
    9900012    2    1    2    0    0  0.34615681380E+02  0.11820770412E+02 -0.23359087429E+02  0.47787274476E+02  0.20000015645E+02 0.  0.
        -12    1    1    2    0    0 -0.34615681380E+02 -0.11820770412E+02  0.23359087429E+02  0.43400725524E+02  0.00000000000E+00 0.  1.
         11    1    3    3    0    0  0.35546840106E+02  0.14158124160E+02 -0.19214406990E+02  0.42816162340E+02  0.51100000000E-03 0. -1.
        -11    1    3    3    0    0  0.12218771865E+00 -0.40591061647E+00 -0.13464543460E+01  0.14116064729E+01  0.51100000000E-03 0.  1.
         12    1    3    3    0    0 -0.10533464448E+01 -0.19314431310E+01 -0.27982260926E+01  0.35595056632E+01  0.00000000000E+00 0. -1.
</event>
<event>
 7    1  0.2714068E-010  0.4778728E+02  0.7816164E-02  0.1312668E+00
        -11   -1    0    0    0    0  0.00000000000E+00  0.00000000000E+00  0.45593999997E+02  0.45594000000E+02  0.51100000000E-03 0. -1.
         11   -1    0    0    0    0 -0.00000000000E+00 -0.00000000000E+00 -0.45593999997E+02  0.45594000000E+02  0.51100000000E-03 0.  1.
    9900012    2    1    2    0    0  0.34943602367E+02 -0.25439318266E+02 -0.39253536945E+01  0.47787278095E+02  0.20000032147E+02 0.  0.
        -12    1    1    2    0    0 -0.34943602367E+02  0.25439318266E+02  0.39253536945E+01  0.43400721905E+02  0.00000000000E+00 0.  1.
         11    1    3    3    0    0  0.18990058189E+02 -0.20641841641E+02 -0.57478910947E+01  0.28631210045E+02  0.51100000000E-03 0. -1.
        -11    1    3    3    0    0  0.86398855570E+01 -0.14421097732E+01 -0.35813696459E+01  0.94632717301E+01  0.51100000000E-03 0.  1.
         12    1    3    3    0    0  0.73136586213E+01 -0.33553668526E+01  0.54039070461E+01  0.96927963203E+01  0.00000000000E+00 0. -1.
</event>
<event>
 7    1  0.2714068E-010  0.4778727E+02  0.7816164E-02  0.1312668E+00
        -11   -1    0    0    0    0  0.00000000000E+00  0.00000000000E+00  0.45593999997E+02  0.45594000000E+02  0.51100000000E-03 0.  1.
         11   -1    0    0    0    0 -0.00000000000E+00 -0.00000000000E+00 -0.45593999997E+02  0.45594000000E+02  0.51100000000E-03 0. -1.
    9900012    2    1    2    0    0  0.10716050073E+02  0.40205921625E+02 -0.12339921104E+02  0.47787268258E+02  0.19999987295E+02 0.  0.
        -12    1    1    2    0    0 -0.10716050073E+02 -0.40205921625E+02  0.12339921104E+02  0.43400731742E+02  0.00000000000E+00 0.  1.
         11    1    3    3    0    0  0.92121866132E+01  0.80236921110E+01 -0.31985093792E+00  0.12220733291E+02  0.51100000000E-03 0.  1.
        -11    1    3    3    0    0 -0.74599473042E+00  0.28000214544E+02 -0.74685889547E+01  0.28988762372E+02  0.51100000000E-03 0. -1.
        -12    1    3    3    0    0  0.22498581900E+01  0.41820149707E+01 -0.45514812112E+01  0.65777725946E+01  0.00000000000E+00 0.  1.
</event>
<event>
 7    1  0.2714068E-010  0.4778726E+02  0.7816164E-02  0.1312668E+00
        -11   -1    0    0    0    0  0.00000000000E+00  0.00000000000E+00  0.45593999997E+02  0.45594000000E+02  0.51100000000E-03 0.  1.
         11   -1    0    0    0    0 -0.00000000000E+00 -0.00000000000E+00 -0.45593999997E+02  0.45594000000E+02  0.51100000000E-03 0. -1.
    9900012    2    1    2    0    0  0.40481851006E+02 -0.18514573324E+01 -0.15537582895E+02  0.47787255336E+02  0.19999928381E+02 0.  0.
        -12    1    1    2    0    0 -0.40481851006E+02  0.18514573324E+01  0.15537582895E+02  0.43400744664E+02  0.00000000000E+00 0.  1.
         11    1    3    3    0    0  0.10769986252E+02 -0.67918056728E+01 -0.81930292561E+01  0.15140903435E+02  0.51100000000E-03 0. -1.
        -11    1    3    3    0    0  0.28323879895E+02  0.31708681585E+01 -0.89615040427E+01  0.29876497990E+02  0.51100000000E-03 0.  1.
        -12    1    3    3    0    0  0.13879848595E+01  0.17694801818E+01  0.16169504040E+01  0.27698539119E+01  0.00000000000E+00 0.  1.
</event>
<event>
 7    1  0.2714068E-010  0.4778727E+02  0.7816164E-02  0.1312668E+00
        -11   -1    0    0    0    0  0.00000000000E+00  0.00000000000E+00  0.45593999997E+02  0.45594000000E+02  0.51100000000E-03 0.  1.
         11   -1    0    0    0    0 -0.00000000000E+00 -0.00000000000E+00 -0.45593999997E+02  0.45594000000E+02  0.51100000000E-03 0. -1.
    9900012    2    1    2    0    0 -0.32584178020E+02 -0.42294025934E+01 -0.28355013766E+02  0.47787270637E+02  0.19999998144E+02 0.  0.
        -12    1    1    2    0    0  0.32584178020E+02  0.42294025934E+01  0.28355013766E+02  0.43400729363E+02  0.00000000000E+00 0.  1.
         11    1    3    3    0    0 -0.21402913083E+01 -0.27173861751E+01 -0.28358162466E+01  0.44729060525E+01  0.51100000000E-03 0. -1.
        -11    1    3    3    0    0 -0.71060223657E+01 -0.50687225255E+01 -0.15247669795E+02  0.17569261121E+02  0.51100000000E-03 0.  1.
        -12    1    3    3    0    0 -0.23337864346E+02  0.35567061072E+01 -0.10271527725E+02  0.25745103464E+02  0.00000000000E+00 0.  1.
</event>
<event>
 7    1  0.2714068E-010  0.4778727E+02  0.7816164E-02  0.1312668E+00
        -11   -1    0    0    0    0  0.00000000000E+00  0.00000000000E+00  0.45593999997E+02  0.45594000000E+02  0.51100000000E-03 0. -1.
         11   -1    0    0    0    0 -0.00000000000E+00 -0.00000000000E+00 -0.45593999997E+02  0.45594000000E+02  0.51100000000E-03 0.  1.
    9900012    2    1    2    0    0 -0.94816353782E+00 -0.25073497884E+02  0.35412482806E+02  0.47787271334E+02  0.20000001321E+02 0.  0.
        -12    1    1    2    0    0  0.94816353782E+00  0.25073497884E+02 -0.35412482806E+02  0.43400728666E+02  0.00000000000E+00 0.  1.
         11    1    3    3    0    0 -0.32367010344E+01 -0.10976192499E+02  0.51095928726E+01  0.12532397015E+02  0.51100000000E-03 0. -1.
        -11    1    3    3    0    0  0.28220633986E+01 -0.64957980539E+01  0.24967369846E+02  0.25952437101E+02  0.51100000000E-03 0.  1.
        -12    1    3    3    0    0 -0.53352590204E+00 -0.76015073305E+01  0.53355200875E+01  0.93024372176E+01  0.00000000000E+00 0.  1.
</event>
<event>
 7    1  0.2714068E-010  0.4778726E+02  0.7816164E-02  0.1312668E+00
        -11   -1    0    0    0    0  0.00000000000E+00  0.00000000000E+00  0.45593999997E+02  0.45594000000E+02  0.51100000000E-03 0.  1.
         11   -1    0    0    0    0 -0.00000000000E+00 -0.00000000000E+00 -0.45593999997E+02  0.45594000000E+02  0.51100000000E-03 0. -1.
    9900012    2    1    2    0    0 -0.61159583416E+00  0.11413824511E+02 -0.41868538292E+02  0.47787263392E+02  0.19999965108E+02 0.  0.
        -12    1    1    2    0    0  0.61159583416E+00 -0.11413824511E+02  0.41868538292E+02  0.43400736608E+02  0.00000000000E+00 0.  1.
         11    1    3    3    0    0 -0.50482391097E+00  0.15515260053E+02 -0.21405089140E+02  0.26441557879E+02  0.51100000000E-03 0. -1.
        -11    1    3    3    0    0  0.10280303097E+01 -0.35301850015E+01 -0.19218083675E+02  0.19566650017E+02  0.51100000000E-03 0.  1.
        -12    1    3    3    0    0 -0.11348022329E+01 -0.57125054077E+00 -0.12453654765E+01  0.17790554961E+01  0.00000000000E+00 0.  1.
</event>
<event>
 7    1  0.2714068E-010  0.4778730E+02  0.7816164E-02  0.1312668E+00
        -11   -1    0    0    0    0  0.00000000000E+00  0.00000000000E+00  0.45593999997E+02  0.45594000000E+02  0.51100000000E-03 0. -1.
         11   -1    0    0    0    0 -0.00000000000E+00 -0.00000000000E+00 -0.45593999997E+02  0.45594000000E+02  0.51100000000E-03 0.  1.
    9900012    2    1    2    0    0 -0.13259263000E+02  0.97105642219E+01  0.40168617288E+02  0.47787298074E+02  0.20000123238E+02 0.  0.
        -12    1    1    2    0    0  0.13259263000E+02 -0.97105642219E+01 -0.40168617288E+02  0.43400701926E+02  0.00000000000E+00 0.  1.
         11    1    3    3    0    0 -0.60213436530E+01  0.81812408163E+01  0.15313836826E+02  0.18376693916E+02  0.51100000000E-03 0. -1.
        -11    1    3    3    0    0  0.63594143708E+00 -0.36240325392E+01  0.10699080243E+01  0.38318059447E+01  0.51100000000E-03 0.  1.
        -12    1    3    3    0    0 -0.78738607840E+01  0.51533559448E+01  0.23784872438E+02  0.25578798213E+02  0.00000000000E+00 0.  1.
</event>
<event>
 7    1  0.3200711E-010  0.4778727E+02  0.7816164E-02  0.1312668E+00
        -11   -1    0    0    0    0  0.00000000000E+00  0.00000000000E+00  0.45593999997E+02  0.45594000000E+02  0.51100000000E-03 0. -1.
         11   -1    0    0    0    0 -0.00000000000E+00 -0.00000000000E+00 -0.45593999997E+02  0.45594000000E+02  0.51100000000E-03 0.  1.
    9900012    2    1    2    0    0  0.12460364811E+01 -0.42200644541E+01  0.43177098219E+02  0.47787270035E+02  0.19999995396E+02 0.  0.
        -12    1    1    2    0    0 -0.12460364811E+01  0.42200644541E+01 -0.43177098219E+02  0.43400729965E+02  0.00000000000E+00 0.  1.
         11    1    3    3    0    0  0.25954800524E+00  0.14246778876E+01  0.13466067163E+02  0.13543708404E+02  0.51100000000E-03 0. -1.
        -11    1    3    3    0    0 -0.33107013596E+01 -0.59699949079E+01  0.29101183389E+02  0.29891143464E+02  0.51100000000E-03 0.  1.
        -12    1    3    3    0    0  0.42971898354E+01  0.32525256618E+00  0.60984766719E+00  0.43524181659E+01  0.00000000000E+00 0.  1.
</event>
<event>
 7    1  0.2714068E-010  0.4778727E+02  0.7816164E-02  0.1312668E+00
        -11   -1    0    0    0    0  0.00000000000E+00  0.00000000000E+00  0.45593999997E+02  0.45594000000E+02  0.51100000000E-03 0. -1.
         11   -1    0    0    0    0 -0.00000000000E+00 -0.00000000000E+00 -0.45593999997E+02  0.45594000000E+02  0.51100000000E-03 0.  1.
    9900012    2    1    2    0    0  0.40448771168E+02 -0.12997814749E+02 -0.88643559909E+01  0.47787273227E+02  0.20000009953E+02 0.  0.
        -12    1    1    2    0    0 -0.40448771168E+02  0.12997814749E+02  0.88643559909E+01  0.43400726773E+02  0.00000000000E+00 0.  1.
         11    1    3    3    0    0  0.30899661946E+02 -0.13485657099E+02 -0.64941079709E+01  0.34334028228E+02  0.51100000000E-03 0. -1.
        -11    1    3    3    0    0  0.27826749770E+01  0.43829537384E+01  0.30375215340E+00  0.52005604633E+01  0.51100000000E-03 0.  1.
        -12    1    3    3    0    0  0.67664342448E+01 -0.38951113883E+01 -0.26740001734E+01  0.82526845356E+01  0.00000000000E+00 0.  1.
</event>
<event>
 7    1  0.2714068E-010  0.4778727E+02  0.7816164E-02  0.1312668E+00
        -11   -1    0    0    0    0  0.00000000000E+00  0.00000000000E+00  0.45593999997E+02  0.45594000000E+02  0.51100000000E-03 0.  1.
         11   -1    0    0    0    0 -0.00000000000E+00 -0.00000000000E+00 -0.45593999997E+02  0.45594000000E+02  0.51100000000E-03 0. -1.
    9900012    2    1    2    0    0  0.13016010186E+02  0.27915132842E+02 -0.30576981541E+02  0.47787274626E+02  0.20000016332E+02 0.  0.
        -12    1    1    2    0    0 -0.13016010186E+02 -0.27915132842E+02  0.30576981541E+02  0.43400725374E+02  0.00000000000E+00 0.  1.
         11    1    3    3    0    0  0.99782816647E+01  0.22229552758E+02 -0.26239042226E+02  0.35807910550E+02  0.51100000000E-03 0. -1.
        -11    1    3    3    0    0  0.60389730269E+01  0.42279334040E+01 -0.45037133778E+01  0.86387528347E+01  0.51100000000E-03 0.  1.
         12    1    3    3    0    0 -0.30012445056E+01  0.14576466803E+01  0.16577406213E+00  0.33406112414E+01  0.00000000000E+00 0. -1.
</event>
<event>
 7    1  0.2714068E-010  0.4778727E+02  0.7816164E-02  0.1312668E+00
        -11   -1    0    0    0    0  0.00000000000E+00  0.00000000000E+00  0.45593999997E+02  0.45594000000E+02  0.51100000000E-03 0.  1.
         11   -1    0    0    0    0 -0.00000000000E+00 -0.00000000000E+00 -0.45593999997E+02  0.45594000000E+02  0.51100000000E-03 0. -1.
    9900012    2    1    2    0    0  0.73262903630E+01  0.26324428071E+02 -0.33719038360E+02  0.47787267383E+02  0.19999983305E+02 0.  0.
        -12    1    1    2    0    0 -0.73262903630E+01 -0.26324428071E+02  0.33719038360E+02  0.43400732617E+02  0.00000000000E+00 0.  1.
         11    1    3    3    0    0  0.65961607580E+01  0.89506639745E+00 -0.11113469517E+02  0.12954523749E+02  0.51100000000E-03 0. -1.
        -11    1    3    3    0    0 -0.20766603987E+01  0.18290336967E+02 -0.12977923137E+02  0.22522775894E+02  0.51100000000E-03 0.  1.
         12    1    3    3    0    0  0.28067900037E+01  0.71390247070E+01 -0.96276457069E+01  0.12309967740E+02  0.00000000000E+00 0. -1.
</event>
<event>
 7    1  0.2714068E-010  0.4778727E+02  0.7816164E-02  0.1312668E+00
        -11   -1    0    0    0    0  0.00000000000E+00  0.00000000000E+00  0.45593999997E+02  0.45594000000E+02  0.51100000000E-03 0.  1.
         11   -1    0    0    0    0 -0.00000000000E+00 -0.00000000000E+00 -0.45593999997E+02  0.45594000000E+02  0.51100000000E-03 0. -1.
    9900012    2    1    2    0    0 -0.43095293607E+02 -0.93511483553E+00  0.50541233268E+01  0.47787274967E+02  0.20000017884E+02 0.  0.
        -12    1    1    2    0    0  0.43095293607E+02  0.93511483553E+00 -0.50541233268E+01  0.43400725033E+02  0.00000000000E+00 0.  1.
         11    1    3    3    0    0 -0.14895005510E+02  0.74435216964E+01  0.16964827249E+01  0.16737540389E+02  0.51100000000E-03 0. -1.
        -11    1    3    3    0    0 -0.44554331444E+01 -0.24245443647E+01 -0.28182385781E+01  0.58027380456E+01  0.51100000000E-03 0.  1.
         12    1    3    3    0    0 -0.23744854953E+02 -0.59540921672E+01  0.61758791800E+01  0.25246996532E+02  0.00000000000E+00 0. -1.
</event>
<event>
 7    1  0.2714068E-010  0.4778726E+02  0.7816164E-02  0.1312668E+00
        -11   -1    0    0    0    0  0.00000000000E+00  0.00000000000E+00  0.45593999997E+02  0.45594000000E+02  0.51100000000E-03 0. -1.
         11   -1    0    0    0    0 -0.00000000000E+00 -0.00000000000E+00 -0.45593999997E+02  0.45594000000E+02  0.51100000000E-03 0.  1.
    9900012    2    1    2    0    0 -0.41422252128E+02  0.11966022054E+02  0.49633825519E+01  0.47787264736E+02  0.19999971235E+02 0.  0.
        -12    1    1    2    0    0  0.41422252128E+02 -0.11966022054E+02 -0.49633825519E+01  0.43400735264E+02  0.00000000000E+00 0.  1.
         11    1    3    3    0    0 -0.83062092105E+00  0.11237289237E+01  0.47556726344E+01  0.49567247528E+01  0.51100000000E-03 0.  1.
        -11    1    3    3    0    0 -0.32356398690E+02  0.50407806149E+01 -0.22946598456E+00  0.32747498535E+02  0.51100000000E-03 0. -1.
        -12    1    3    3    0    0 -0.82352325167E+01  0.58015125151E+01  0.43717590211E+00  0.10083041448E+02  0.00000000000E+00 0.  1.
</event>
<event>
 7    1  0.2714068E-010  0.4778727E+02  0.7816164E-02  0.1312668E+00
        -11   -1    0    0    0    0  0.00000000000E+00  0.00000000000E+00  0.45593999997E+02  0.45594000000E+02  0.51100000000E-03 0. -1.
         11   -1    0    0    0    0 -0.00000000000E+00 -0.00000000000E+00 -0.45593999997E+02  0.45594000000E+02  0.51100000000E-03 0.  1.
    9900012    2    1    2    0    0 -0.22763808178E+02  0.28825083766E+02  0.23120272541E+02  0.47787269370E+02  0.19999992364E+02 0.  0.
        -12    1    1    2    0    0  0.22763808178E+02 -0.28825083766E+02 -0.23120272541E+02  0.43400730630E+02  0.00000000000E+00 0.  1.
         11    1    3    3    0    0 -0.18707018732E+02  0.21634645720E+02  0.93980062635E+01  0.30105364426E+02  0.51100000000E-03 0. -1.
        -11    1    3    3    0    0  0.15991877592E+01  0.46199819411E+01  0.52233028698E+01  0.71543362904E+01  0.51100000000E-03 0.  1.
         12    1    3    3    0    0 -0.56559772057E+01  0.25704561054E+01  0.84989634077E+01  0.10527568653E+02  0.00000000000E+00 0. -1.
</event>
<event>
 7    1  0.2714068E-010  0.4778727E+02  0.7816164E-02  0.1312668E+00
        -11   -1    0    0    0    0  0.00000000000E+00  0.00000000000E+00  0.45593999997E+02  0.45594000000E+02  0.51100000000E-03 0.  1.
         11   -1    0    0    0    0 -0.00000000000E+00 -0.00000000000E+00 -0.45593999997E+02  0.45594000000E+02  0.51100000000E-03 0. -1.
    9900012    2    1    2    0    0 -0.59099384826E+01  0.83161217605E+01 -0.42184568483E+02  0.47787273369E+02  0.20000010599E+02 0.  0.
        -12    1    1    2    0    0  0.59099384826E+01 -0.83161217605E+01  0.42184568483E+02  0.43400726631E+02  0.00000000000E+00 0.  1.
         11    1    3    3    0    0 -0.21456190342E+01  0.10412085130E+02 -0.14970108177E+02  0.18360809810E+02  0.51100000000E-03 0. -1.
        -11    1    3    3    0    0 -0.73376670126E+01 -0.20447938628E+01 -0.18241802056E+02  0.19768304977E+02  0.51100000000E-03 0.  1.
         12    1    3    3    0    0  0.35733475642E+01 -0.51169507059E-01 -0.89726582497E+01  0.96581585822E+01  0.00000000000E+00 0. -1.
</event>
<event>
 7    1  0.2714068E-010  0.4778727E+02  0.7816164E-02  0.1312668E+00
        -11   -1    0    0    0    0  0.00000000000E+00  0.00000000000E+00  0.45593999997E+02  0.45594000000E+02  0.51100000000E-03 0. -1.
         11   -1    0    0    0    0 -0.00000000000E+00 -0.00000000000E+00 -0.45593999997E+02  0.45594000000E+02  0.51100000000E-03 0.  1.
    9900012    2    1    2    0    0 -0.28870971887E+02  0.20970833086E+02  0.24704541916E+02  0.47787271327E+02  0.20000001289E+02 0.  0.
        -12    1    1    2    0    0  0.28870971887E+02 -0.20970833086E+02 -0.24704541916E+02  0.43400728673E+02  0.00000000000E+00 0.  1.
         11    1    3    3    0    0 -0.16556685461E+02  0.98685566498E+00  0.11590423599E+02  0.20234515982E+02  0.51100000000E-03 0. -1.
        -11    1    3    3    0    0 -0.40526100069E+01  0.97263602434E+01  0.86918690061E+01  0.13659221008E+02  0.51100000000E-03 0.  1.
        -12    1    3    3    0    0 -0.82616764192E+01  0.10257617177E+02  0.44222493108E+01  0.13893534337E+02  0.00000000000E+00 0.  1.
</event>
<event>
 7    1  0.2714068E-010  0.4778727E+02  0.7816164E-02  0.1312668E+00
        -11   -1    0    0    0    0  0.00000000000E+00  0.00000000000E+00  0.45593999997E+02  0.45594000000E+02  0.51100000000E-03 0.  1.
         11   -1    0    0    0    0 -0.00000000000E+00 -0.00000000000E+00 -0.45593999997E+02  0.45594000000E+02  0.51100000000E-03 0. -1.
    9900012    2    1    2    0    0  0.23138381076E+02 -0.76903129922E+01 -0.35904008368E+02  0.47787269481E+02  0.19999992870E+02 0.  0.
        -12    1    1    2    0    0 -0.23138381076E+02  0.76903129922E+01  0.35904008368E+02  0.43400730519E+02  0.00000000000E+00 0.  1.
         11    1    3    3    0    0  0.16438299928E+02 -0.46310549535E+01 -0.31161158776E+02  0.35534239700E+02  0.51100000000E-03 0. -1.
        -11    1    3    3    0    0 -0.51719847930E+00  0.20746269021E+01 -0.21315924219E+01  0.30191484832E+01  0.51100000000E-03 0.  1.
         12    1    3    3    0    0  0.72172796281E+01 -0.51338849408E+01 -0.26112571693E+01  0.92338812977E+01  0.00000000000E+00 0. -1.
</event>
<event>
 7    1  0.2714068E-010  0.4778727E+02  0.7816164E-02  0.1312668E+00
        -11   -1    0    0    0    0  0.00000000000E+00  0.00000000000E+00  0.45593999997E+02  0.45594000000E+02  0.51100000000E-03 0. -1.
         11   -1    0    0    0    0 -0.00000000000E+00 -0.00000000000E+00 -0.45593999997E+02  0.45594000000E+02  0.51100000000E-03 0.  1.
    9900012    2    1    2    0    0  0.32898275415E+02 -0.12762653358E+02  0.25267395055E+02  0.47787273061E+02  0.20000009192E+02 0.  0.
        -12    1    1    2    0    0 -0.32898275415E+02  0.12762653358E+02 -0.25267395055E+02  0.43400726939E+02  0.00000000000E+00 0.  1.
         11    1    3    3    0    0  0.58257909560E+01 -0.81648060602E+01  0.64190982450E+01  0.11908346686E+02  0.51100000000E-03 0. -1.
        -11    1    3    3    0    0  0.13234203324E+02  0.44867259890E+01  0.88027446942E+01  0.16515543047E+02  0.51100000000E-03 0.  1.
        -12    1    3    3    0    0  0.13838281135E+02 -0.90845732869E+01  0.10045552116E+02  0.19363383327E+02  0.00000000000E+00 0.  1.
</event>
<event>
 7    1  0.2714068E-010  0.4778727E+02  0.7816164E-02  0.1312668E+00
        -11   -1    0    0    0    0  0.00000000000E+00  0.00000000000E+00  0.45593999997E+02  0.45594000000E+02  0.51100000000E-03 0.  1.
         11   -1    0    0    0    0 -0.00000000000E+00 -0.00000000000E+00 -0.45593999997E+02  0.45594000000E+02  0.51100000000E-03 0. -1.
    9900012    2    1    2    0    0  0.20050210011E+02  0.38479897121E+02  0.95370702247E+00  0.47787274649E+02  0.20000016435E+02 0.  0.
        -12    1    1    2    0    0 -0.20050210011E+02 -0.38479897121E+02 -0.95370702247E+00  0.43400725351E+02  0.00000000000E+00 0.  1.
         11    1    3    3    0    0  0.98145500889E+01  0.24494632134E+02 -0.21725747574E+01  0.26477017924E+02  0.51100000000E-03 0. -1.
        -11    1    3    3    0    0 -0.20337605191E+01 -0.52845004187E-01  0.16285219215E+01  0.26059659156E+01  0.51100000000E-03 0.  1.
        -12    1    3    3    0    0  0.12269420441E+02  0.14038109991E+02  0.14977598584E+01  0.18704290809E+02  0.00000000000E+00 0.  1.
</event>
<event>
 7    1  0.2714068E-010  0.4778727E+02  0.7816164E-02  0.1312668E+00
        -11   -1    0    0    0    0  0.00000000000E+00  0.00000000000E+00  0.45593999997E+02  0.45594000000E+02  0.51100000000E-03 0. -1.
         11   -1    0    0    0    0 -0.00000000000E+00 -0.00000000000E+00 -0.45593999997E+02  0.45594000000E+02  0.51100000000E-03 0.  1.
    9900012    2    1    2    0    0 -0.54365214870E+01  0.38947463772E+02  0.18361993846E+02  0.47787268231E+02  0.19999987171E+02 0.  0.
        -12    1    1    2    0    0  0.54365214870E+01 -0.38947463772E+02 -0.18361993846E+02  0.43400731769E+02  0.00000000000E+00 0.  1.
         11    1    3    3    0    0  0.34287551793E+01  0.12449859142E+02  0.68191420048E+01  0.14603289105E+02  0.51100000000E-03 0. -1.
        -11    1    3    3    0    0 -0.91461578820E+01  0.13775868504E+02  0.84071852598E+00  0.16556979342E+02  0.51100000000E-03 0.  1.
        -12    1    3    3    0    0  0.28088121572E+00  0.12721736126E+02  0.10702133315E+02  0.16626999784E+02  0.00000000000E+00 0.  1.
</event>
<event>
 7    1  0.2714068E-010  0.4778722E+02  0.7816164E-02  0.1312668E+00
        -11   -1    0    0    0    0  0.00000000000E+00  0.00000000000E+00  0.45593999997E+02  0.45594000000E+02  0.51100000000E-03 0.  1.
         11   -1    0    0    0    0 -0.00000000000E+00 -0.00000000000E+00 -0.45593999997E+02  0.45594000000E+02  0.51100000000E-03 0. -1.
    9900012    2    1    2    0    0  0.35142321951E+02 -0.21842066625E+02  0.13098437056E+02  0.47787219824E+02  0.19999766465E+02 0.  0.
        -12    1    1    2    0    0 -0.35142321951E+02  0.21842066625E+02 -0.13098437056E+02  0.43400780176E+02  0.00000000000E+00 0.  1.
         11    1    3    3    0    0  0.20179821491E+01 -0.13740874827E+01 -0.10435878218E+01  0.26550789380E+01  0.51100000000E-03 0. -1.
        -11    1    3    3    0    0 -0.64308647926E+00  0.17295602328E+01  0.24451993644E+01  0.30633215652E+01  0.51100000000E-03 0.  1.
        -12    1    3    3    0    0  0.33767426282E+02 -0.22197539375E+02  0.11696825513E+02  0.42068819321E+02  0.00000000000E+00 0.  1.
</event>
<event>
 7    1  0.2714068E-010  0.4778727E+02  0.7816164E-02  0.1312668E+00
        -11   -1    0    0    0    0  0.00000000000E+00  0.00000000000E+00  0.45593999997E+02  0.45594000000E+02  0.51100000000E-03 0. -1.
         11   -1    0    0    0    0 -0.00000000000E+00 -0.00000000000E+00 -0.45593999997E+02  0.45594000000E+02  0.51100000000E-03 0.  1.
    9900012    2    1    2    0    0  0.16234149995E+02 -0.34533969211E+02  0.20675613898E+02  0.47787266532E+02  0.19999979427E+02 0.  0.
        -12    1    1    2    0    0 -0.16234149995E+02  0.34533969211E+02 -0.20675613898E+02  0.43400733468E+02  0.00000000000E+00 0.  1.
         11    1    3    3    0    0  0.87910436668E+01 -0.29008892425E+01  0.41788882836E+01  0.10156806324E+02  0.51100000000E-03 0. -1.
        -11    1    3    3    0    0  0.80515560921E+01 -0.31766901478E+02  0.16915791980E+02  0.36879636706E+02  0.51100000000E-03 0.  1.
         12    1    3    3    0    0 -0.60844976432E+00  0.13382150991E+00 -0.41906636580E+00  0.75082350200E+00  0.00000000000E+00 0. -1.
</event>
<event>
 7    1  0.2714068E-010  0.4778727E+02  0.7816164E-02  0.1312668E+00
        -11   -1    0    0    0    0  0.00000000000E+00  0.00000000000E+00  0.45593999997E+02  0.45594000000E+02  0.51100000000E-03 0.  1.
         11   -1    0    0    0    0 -0.00000000000E+00 -0.00000000000E+00 -0.45593999997E+02  0.45594000000E+02  0.51100000000E-03 0. -1.
    9900012    2    1    2    0    0  0.21742618849E+02  0.21436152134E+02 -0.30844336650E+02  0.47787271940E+02  0.20000004085E+02 0.  0.
        -12    1    1    2    0    0 -0.21742618849E+02 -0.21436152134E+02  0.30844336650E+02  0.43400728060E+02  0.00000000000E+00 0.  1.
         11    1    3    3    0    0  0.73676834267E-01  0.10118471467E+02 -0.15478632985E+02  0.18492619405E+02  0.51100000000E-03 0. -1.
        -11    1    3    3    0    0  0.11195136358E+02  0.38489106347E+01 -0.53485445623E+01  0.12990462668E+02  0.51100000000E-03 0.  1.
         12    1    3    3    0    0  0.10473805657E+02  0.74687700329E+01 -0.10017159102E+02  0.16304189867E+02  0.00000000000E+00 0. -1.
</event>
<event>
 7    1  0.2714068E-010  0.4778727E+02  0.7816164E-02  0.1312668E+00
        -11   -1    0    0    0    0  0.00000000000E+00  0.00000000000E+00  0.45593999997E+02  0.45594000000E+02  0.51100000000E-03 0.  1.
         11   -1    0    0    0    0 -0.00000000000E+00 -0.00000000000E+00 -0.45593999997E+02  0.45594000000E+02  0.51100000000E-03 0. -1.
    9900012    2    1    2    0    0  0.27816807320E+02 -0.25173227161E+01 -0.33219147618E+02  0.47787268997E+02  0.19999990664E+02 0.  0.
        -12    1    1    2    0    0 -0.27816807320E+02  0.25173227161E+01  0.33219147618E+02  0.43400731003E+02  0.00000000000E+00 0.  1.
         11    1    3    3    0    0  0.17798563181E+02  0.35222836573E+01 -0.23672929089E+02  0.29826211717E+02  0.51100000000E-03 0. -1.
        -11    1    3    3    0    0  0.85472041361E+01  0.17423781753E+00 -0.37431594877E+01  0.93325398779E+01  0.51100000000E-03 0.  1.
         12    1    3    3    0    0  0.14710400035E+01 -0.62138441910E+01 -0.58030590413E+01  0.86285174021E+01  0.00000000000E+00 0. -1.
</event>
<event>
 7    1  0.2714068E-010  0.4778728E+02  0.7816164E-02  0.1312668E+00
        -11   -1    0    0    0    0  0.00000000000E+00  0.00000000000E+00  0.45593999997E+02  0.45594000000E+02  0.51100000000E-03 0.  1.
         11   -1    0    0    0    0 -0.00000000000E+00 -0.00000000000E+00 -0.45593999997E+02  0.45594000000E+02  0.51100000000E-03 0. -1.
    9900012    2    1    2    0    0  0.41349745491E+02 -0.12672449256E+01  0.13123085978E+02  0.47787277109E+02  0.20000027650E+02 0.  0.
        -12    1    1    2    0    0 -0.41349745491E+02  0.12672449256E+01 -0.13123085978E+02  0.43400722891E+02  0.00000000000E+00 0.  1.
         11    1    3    3    0    0  0.65205992515E+01  0.21373725641E+01 -0.25121069392E+01  0.73073427189E+01  0.51100000000E-03 0. -1.
        -11    1    3    3    0    0 -0.54267559989E+00 -0.17629055378E+01  0.21111270285E+00  0.18565833072E+01  0.51100000000E-03 0.  1.
         12    1    3    3    0    0  0.35371821840E+02 -0.16417119519E+01  0.15424080214E+02  0.38623351083E+02  0.00000000000E+00 0. -1.
</event>
<event>
 7    1  0.2714068E-010  0.4778726E+02  0.7816164E-02  0.1312668E+00
        -11   -1    0    0    0    0  0.00000000000E+00  0.00000000000E+00  0.45593999997E+02  0.45594000000E+02  0.51100000000E-03 0.  1.
         11   -1    0    0    0    0 -0.00000000000E+00 -0.00000000000E+00 -0.45593999997E+02  0.45594000000E+02  0.51100000000E-03 0. -1.
    9900012    2    1    2    0    0 -0.11066755283E+02 -0.16953780800E+02 -0.38389067896E+02  0.47787259341E+02  0.19999946637E+02 0.  0.
        -12    1    1    2    0    0  0.11066755283E+02  0.16953780800E+02  0.38389067896E+02  0.43400740659E+02  0.00000000000E+00 0.  1.
         11    1    3    3    0    0  0.31318478614E+01 -0.70105790018E+01 -0.11807354010E+02  0.14084399098E+02  0.51100000000E-03 0. -1.
        -11    1    3    3    0    0 -0.15763012356E+02 -0.10499412228E+02 -0.23314007189E+02  0.30037528978E+02  0.51100000000E-03 0.  1.
        -12    1    3    3    0    0  0.15644092116E+01  0.55621042987E+00 -0.32677066966E+01  0.36653312645E+01  0.00000000000E+00 0.  1.
</event>
<event>
 7    1  0.2714068E-010  0.4778727E+02  0.7816164E-02  0.1312668E+00
        -11   -1    0    0    0    0  0.00000000000E+00  0.00000000000E+00  0.45593999997E+02  0.45594000000E+02  0.51100000000E-03 0.  1.
         11   -1    0    0    0    0 -0.00000000000E+00 -0.00000000000E+00 -0.45593999997E+02  0.45594000000E+02  0.51100000000E-03 0. -1.
    9900012    2    1    2    0    0  0.20692120738E+02 -0.36872867226E+02  0.97903555149E+01  0.47787271214E+02  0.20000000772E+02 0.  0.
        -12    1    1    2    0    0 -0.20692120738E+02  0.36872867226E+02 -0.97903555149E+01  0.43400728786E+02  0.00000000000E+00 0.  1.
         11    1    3    3    0    0 -0.21413664812E+01 -0.24759137339E+01 -0.22791319622E+01  0.39887393982E+01  0.51100000000E-03 0. -1.
        -11    1    3    3    0    0  0.17706718853E+02 -0.21065245283E+02  0.10398183280E+02  0.29417591117E+02  0.51100000000E-03 0.  1.
         12    1    3    3    0    0  0.51267683663E+01 -0.13331708209E+02  0.16713041974E+01  0.14380940699E+02  0.00000000000E+00 0. -1.
</event>
<event>
 7    1  0.2714068E-010  0.4778727E+02  0.7816164E-02  0.1312668E+00
        -11   -1    0    0    0    0  0.00000000000E+00  0.00000000000E+00  0.45593999997E+02  0.45594000000E+02  0.51100000000E-03 0.  1.
         11   -1    0    0    0    0 -0.00000000000E+00 -0.00000000000E+00 -0.45593999997E+02  0.45594000000E+02  0.51100000000E-03 0. -1.
    9900012    2    1    2    0    0  0.17545871540E+02 -0.38487761411E+02 -0.97189298771E+01  0.47787274378E+02  0.20000015199E+02 0.  0.
        -12    1    1    2    0    0 -0.17545871540E+02  0.38487761411E+02  0.97189298771E+01  0.43400725622E+02  0.00000000000E+00 0.  1.
         11    1    3    3    0    0  0.40619655652E+01 -0.20453357192E+02  0.30453294120E+01  0.21073998581E+02  0.51100000000E-03 0. -1.
        -11    1    3    3    0    0  0.14084967080E+02 -0.17814340940E+02 -0.11902888954E+02  0.25640121031E+02  0.51100000000E-03 0.  1.
         12    1    3    3    0    0 -0.60106110507E+00 -0.22006327904E+00 -0.86137033487E+00  0.10731547664E+01  0.00000000000E+00 0. -1.
</event>
<event>
 7    1  0.2714068E-010  0.4778727E+02  0.7816164E-02  0.1312668E+00
        -11   -1    0    0    0    0  0.00000000000E+00  0.00000000000E+00  0.45593999997E+02  0.45594000000E+02  0.51100000000E-03 0.  1.
         11   -1    0    0    0    0 -0.00000000000E+00 -0.00000000000E+00 -0.45593999997E+02  0.45594000000E+02  0.51100000000E-03 0. -1.
    9900012    2    1    2    0    0  0.21090303177E+02 -0.14991463734E+02 -0.34843629334E+02  0.47787269843E+02  0.19999994522E+02 0.  0.
        -12    1    1    2    0    0 -0.21090303177E+02  0.14991463734E+02  0.34843629334E+02  0.43400730157E+02  0.00000000000E+00 0.  1.
         11    1    3    3    0    0  0.72656164630E+01 -0.11252668102E+02 -0.18139191415E+02  0.22548658218E+02  0.51100000000E-03 0. -1.
        -11    1    3    3    0    0  0.13496792306E+02  0.11320898234E+01 -0.95309726278E+01  0.16561535841E+02  0.51100000000E-03 0.  1.
        -12    1    3    3    0    0  0.32789440817E+00 -0.48708854556E+01 -0.71734652915E+01  0.86770757835E+01  0.00000000000E+00 0.  1.
</event>
<event>
 7    1  0.2714068E-010  0.4778727E+02  0.7816164E-02  0.1312668E+00
        -11   -1    0    0    0    0  0.00000000000E+00  0.00000000000E+00  0.45593999997E+02  0.45594000000E+02  0.51100000000E-03 0.  1.
         11   -1    0    0    0    0 -0.00000000000E+00 -0.00000000000E+00 -0.45593999997E+02  0.45594000000E+02  0.51100000000E-03 0. -1.
    9900012    2    1    2    0    0 -0.15649012689E+02  0.36107475348E+02 -0.18302507489E+02  0.47787272419E+02  0.20000006269E+02 0.  0.
        -12    1    1    2    0    0  0.15649012689E+02 -0.36107475348E+02  0.18302507489E+02  0.43400727581E+02  0.00000000000E+00 0.  1.
         11    1    3    3    0    0 -0.61359283011E+01  0.25597123936E+00 -0.49362589051E+00  0.61610716741E+01  0.51100000000E-03 0. -1.
        -11    1    3    3    0    0 -0.24164225370E+01  0.21065455936E+02 -0.10709174628E+02  0.23754556471E+02  0.51100000000E-03 0.  1.
         12    1    3    3    0    0 -0.70966618513E+01  0.14786048173E+02 -0.70997069700E+01  0.17871644274E+02  0.00000000000E+00 0. -1.
</event>
<event>
 7    1  0.2714068E-010  0.4778727E+02  0.7816164E-02  0.1312668E+00
        -11   -1    0    0    0    0  0.00000000000E+00  0.00000000000E+00  0.45593999997E+02  0.45594000000E+02  0.51100000000E-03 0.  1.
         11   -1    0    0    0    0 -0.00000000000E+00 -0.00000000000E+00 -0.45593999997E+02  0.45594000000E+02  0.51100000000E-03 0. -1.
    9900012    2    1    2    0    0 -0.19225980336E+02  0.38783283227E+02 -0.31372339503E+01  0.47787267119E+02  0.19999982102E+02 0.  0.
        -12    1    1    2    0    0  0.19225980336E+02 -0.38783283227E+02  0.31372339503E+01  0.43400732881E+02  0.00000000000E+00 0.  1.
         11    1    3    3    0    0 -0.12605859692E+02  0.17471586092E+02  0.19269248340E+01  0.21630465985E+02  0.51100000000E-03 0. -1.
        -11    1    3    3    0    0 -0.25846144251E+01  0.72676766774E+01 -0.81507628006E+01  0.11222044845E+02  0.51100000000E-03 0.  1.
        -12    1    3    3    0    0 -0.40355062191E+01  0.14044020457E+02  0.30866040163E+01  0.14934756289E+02  0.00000000000E+00 0.  1.
</event>
<event>
 7    1  0.2714068E-010  0.4778727E+02  0.7816164E-02  0.1312668E+00
        -11   -1    0    0    0    0  0.00000000000E+00  0.00000000000E+00  0.45593999997E+02  0.45594000000E+02  0.51100000000E-03 0. -1.
         11   -1    0    0    0    0 -0.00000000000E+00 -0.00000000000E+00 -0.45593999997E+02  0.45594000000E+02  0.51100000000E-03 0.  1.
    9900012    2    1    2    0    0  0.36564688359E+02 -0.20008319866E+02 -0.12096030368E+02  0.47787271327E+02  0.20000001290E+02 0.  0.
        -12    1    1    2    0    0 -0.36564688359E+02  0.20008319866E+02  0.12096030368E+02  0.43400728673E+02  0.00000000000E+00 0.  1.
         11    1    3    3    0    0  0.31075013582E+02 -0.18340104631E+02 -0.85599671761E+01  0.37084888369E+02  0.51100000000E-03 0. -1.
        -11    1    3    3    0    0  0.54763868667E-01  0.97872149172E+00  0.21752481230E+01  0.23859169091E+01  0.51100000000E-03 0.  1.
         12    1    3    3    0    0  0.54349109079E+01 -0.26469367268E+01 -0.57113113152E+01  0.83164660495E+01  0.00000000000E+00 0. -1.
</event>
<event>
 7    1  0.2714068E-010  0.4778727E+02  0.7816164E-02  0.1312668E+00
        -11   -1    0    0    0    0  0.00000000000E+00  0.00000000000E+00  0.45593999997E+02  0.45594000000E+02  0.51100000000E-03 0.  1.
         11   -1    0    0    0    0 -0.00000000000E+00 -0.00000000000E+00 -0.45593999997E+02  0.45594000000E+02  0.51100000000E-03 0. -1.
    9900012    2    1    2    0    0 -0.25063824672E+02  0.23539601534E+02 -0.26482351793E+02  0.47787273000E+02  0.20000008918E+02 0.  0.
        -12    1    1    2    0    0  0.25063824672E+02 -0.23539601534E+02  0.26482351793E+02  0.43400727000E+02  0.00000000000E+00 0.  1.
         11    1    3    3    0    0 -0.22244807219E+02  0.12067005048E+02 -0.14847423993E+02  0.29340928045E+02  0.51100000000E-03 0. -1.
        -11    1    3    3    0    0  0.12480323764E+01  0.68250582191E+01 -0.24097346262E+01  0.73447822116E+01  0.51100000000E-03 0.  1.
         12    1    3    3    0    0 -0.40670498301E+01  0.46475382667E+01 -0.92251931744E+01  0.11101562744E+02  0.00000000000E+00 0. -1.
</event>
<event>
 7    1  0.2714068E-010  0.4778727E+02  0.7816164E-02  0.1312668E+00
        -11   -1    0    0    0    0  0.00000000000E+00  0.00000000000E+00  0.45593999997E+02  0.45594000000E+02  0.51100000000E-03 0. -1.
         11   -1    0    0    0    0 -0.00000000000E+00 -0.00000000000E+00 -0.45593999997E+02  0.45594000000E+02  0.51100000000E-03 0.  1.
    9900012    2    1    2    0    0 -0.42786499252E+02 -0.70228728762E+01  0.19021165917E+01  0.47787270638E+02  0.19999998145E+02 0.  0.
        -12    1    1    2    0    0  0.42786499252E+02  0.70228728762E+01 -0.19021165917E+01  0.43400729362E+02  0.00000000000E+00 0.  1.
         11    1    3    3    0    0 -0.22305394769E+02 -0.11223702552E+02  0.15568742969E+01  0.25018512998E+02  0.51100000000E-03 0. -1.
        -11    1    3    3    0    0 -0.13087400245E+02  0.25821042392E+01  0.45698574417E+01  0.14100741284E+02  0.51100000000E-03 0.  1.
         12    1    3    3    0    0 -0.73937042384E+01  0.16187254369E+01 -0.42246151469E+01  0.86680163558E+01  0.00000000000E+00 0. -1.
</event>
<event>
 7    1  0.2714068E-010  0.4778727E+02  0.7816164E-02  0.1312668E+00
        -11   -1    0    0    0    0  0.00000000000E+00  0.00000000000E+00  0.45593999997E+02  0.45594000000E+02  0.51100000000E-03 0.  1.
         11   -1    0    0    0    0 -0.00000000000E+00 -0.00000000000E+00 -0.45593999997E+02  0.45594000000E+02  0.51100000000E-03 0. -1.
    9900012    2    1    2    0    0 -0.27595323384E+02  0.33492352616E+02 -0.61922289862E+00  0.47787274276E+02  0.20000014732E+02 0.  0.
        -12    1    1    2    0    0  0.27595323384E+02 -0.33492352616E+02  0.61922289862E+00  0.43400725724E+02  0.00000000000E+00 0.  1.
         11    1    3    3    0    0 -0.17792389602E+02  0.26531411336E+02 -0.14910412149E+01  0.31979807995E+02  0.51100000000E-03 0. -1.
        -11    1    3    3    0    0  0.10319223067E+01 -0.88893123136E+00  0.19565466614E+01  0.23839331955E+01  0.51100000000E-03 0.  1.
         12    1    3    3    0    0 -0.10834856089E+02  0.78498725109E+01 -0.10847283451E+01  0.13423533085E+02  0.00000000000E+00 0. -1.
</event>
<event>
 7    1  0.2714068E-010  0.4778727E+02  0.7816164E-02  0.1312668E+00
        -11   -1    0    0    0    0  0.00000000000E+00  0.00000000000E+00  0.45593999997E+02  0.45594000000E+02  0.51100000000E-03 0.  1.
         11   -1    0    0    0    0 -0.00000000000E+00 -0.00000000000E+00 -0.45593999997E+02  0.45594000000E+02  0.51100000000E-03 0. -1.
    9900012    2    1    2    0    0  0.22746653474E+02 -0.29971349745E+02 -0.21631714401E+02  0.47787272843E+02  0.20000008203E+02 0.  0.
        -12    1    1    2    0    0 -0.22746653474E+02  0.29971349745E+02  0.21631714401E+02  0.43400727157E+02  0.00000000000E+00 0.  1.
         11    1    3    3    0    0  0.17691380533E+02 -0.26228055287E+02 -0.16194025299E+02  0.35540713062E+02  0.51100000000E-03 0. -1.
        -11    1    3    3    0    0  0.43288215722E+01  0.22688710376E+01 -0.19812183767E+01  0.52736797880E+01  0.51100000000E-03 0.  1.
        -12    1    3    3    0    0  0.72645136937E+00 -0.60121654952E+01 -0.34564707246E+01  0.69728799935E+01  0.00000000000E+00 0.  1.
</event>
<event>
 7    1  0.2714068E-010  0.4778727E+02  0.7816164E-02  0.1312668E+00
        -11   -1    0    0    0    0  0.00000000000E+00  0.00000000000E+00  0.45593999997E+02  0.45594000000E+02  0.51100000000E-03 0.  1.
         11   -1    0    0    0    0 -0.00000000000E+00 -0.00000000000E+00 -0.45593999997E+02  0.45594000000E+02  0.51100000000E-03 0. -1.
    9900012    2    1    2    0    0  0.38148973586E+02  0.19894249206E+01 -0.20599058804E+02  0.47787271656E+02  0.20000002787E+02 0.  0.
        -12    1    1    2    0    0 -0.38148973586E+02 -0.19894249206E+01  0.20599058804E+02  0.43400728344E+02  0.00000000000E+00 0.  1.
         11    1    3    3    0    0  0.14089891912E+02 -0.57317089574E+01 -0.38519615046E+01  0.15691244353E+02  0.51100000000E-03 0. -1.
        -11    1    3    3    0    0  0.80519998545E+01  0.75437851654E+01 -0.43967514477E+01  0.11877492153E+02  0.51100000000E-03 0.  1.
         12    1    3    3    0    0  0.16007081820E+02  0.17734871253E+00 -0.12350345852E+02  0.20218535150E+02  0.00000000000E+00 0. -1.
</event>
<event>
 7    1  0.2714068E-010  0.4778727E+02  0.7816164E-02  0.1312668E+00
        -11   -1    0    0    0    0  0.00000000000E+00  0.00000000000E+00  0.45593999997E+02  0.45594000000E+02  0.51100000000E-03 0.  1.
         11   -1    0    0    0    0 -0.00000000000E+00 -0.00000000000E+00 -0.45593999997E+02  0.45594000000E+02  0.51100000000E-03 0. -1.
    9900012    2    1    2    0    0  0.36136942295E+01  0.32597058612E+02 -0.28425271726E+02  0.47787273176E+02  0.20000009720E+02 0.  0.
        -12    1    1    2    0    0 -0.36136942295E+01 -0.32597058612E+02  0.28425271726E+02  0.43400726824E+02  0.00000000000E+00 0.  1.
         11    1    3    3    0    0  0.14466319525E+01  0.11486486168E+02 -0.12386638102E+02  0.16954672283E+02  0.51100000000E-03 0. -1.
        -11    1    3    3    0    0  0.36610491233E+01  0.14835334822E+01 -0.91702710358E+01  0.99848897544E+01  0.51100000000E-03 0.  1.
        -12    1    3    3    0    0 -0.14939868464E+01  0.19627038961E+02 -0.68683625883E+01  0.20847711139E+02  0.00000000000E+00 0.  1.
</event>
<event>
 7    1  0.2714068E-010  0.4778726E+02  0.7816164E-02  0.1312668E+00
        -11   -1    0    0    0    0  0.00000000000E+00  0.00000000000E+00  0.45593999997E+02  0.45594000000E+02  0.51100000000E-03 0. -1.
         11   -1    0    0    0    0 -0.00000000000E+00 -0.00000000000E+00 -0.45593999997E+02  0.45594000000E+02  0.51100000000E-03 0.  1.
    9900012    2    1    2    0    0 -0.18220194749E+02 -0.35655759976E+02 -0.16742613555E+02  0.47787264698E+02  0.19999971062E+02 0.  0.
        -12    1    1    2    0    0  0.18220194749E+02  0.35655759976E+02  0.16742613555E+02  0.43400735302E+02  0.00000000000E+00 0.  1.
         11    1    3    3    0    0 -0.11589062040E+02 -0.26501658732E+02 -0.11199121635E+02  0.31017166217E+02  0.51100000000E-03 0. -1.
        -11    1    3    3    0    0 -0.72767503101E+01 -0.21689987940E+01 -0.60904643199E+01  0.97339306931E+01  0.51100000000E-03 0.  1.
         12    1    3    3    0    0  0.64561760079E+00 -0.69851024499E+01  0.54697240013E+00  0.70361677871E+01  0.00000000000E+00 0. -1.
</event>
<event>
 7    1  0.2714068E-010  0.4778727E+02  0.7816164E-02  0.1312668E+00
        -11   -1    0    0    0    0  0.00000000000E+00  0.00000000000E+00  0.45593999997E+02  0.45594000000E+02  0.51100000000E-03 0. -1.
         11   -1    0    0    0    0 -0.00000000000E+00 -0.00000000000E+00 -0.45593999997E+02  0.45594000000E+02  0.51100000000E-03 0.  1.
    9900012    2    1    2    0    0 -0.82157244754E+01  0.97212456767E+01  0.41492441619E+02  0.47787268927E+02  0.19999990346E+02 0.  0.
        -12    1    1    2    0    0  0.82157244754E+01 -0.97212456767E+01 -0.41492441619E+02  0.43400731073E+02  0.00000000000E+00 0.  1.
         11    1    3    3    0    0 -0.21761899594E+01  0.61546455249E+01  0.69721889340E+01  0.95512765151E+01  0.51100000000E-03 0. -1.
        -11    1    3    3    0    0 -0.71365897706E+01 -0.40277824435E+01  0.22794023780E+02  0.24222334019E+02  0.51100000000E-03 0.  1.
        -12    1    3    3    0    0  0.10970552546E+01  0.75943825954E+01  0.11726228905E+02  0.14013658393E+02  0.00000000000E+00 0.  1.
</event>
<event>
 7    1  0.2714068E-010  0.4778727E+02  0.7816164E-02  0.1312668E+00
        -11   -1    0    0    0    0  0.00000000000E+00  0.00000000000E+00  0.45593999997E+02  0.45594000000E+02  0.51100000000E-03 0.  1.
         11   -1    0    0    0    0 -0.00000000000E+00 -0.00000000000E+00 -0.45593999997E+02  0.45594000000E+02  0.51100000000E-03 0. -1.
    9900012    2    1    2    0    0 -0.38310173005E+02  0.19345093780E+02  0.64592403266E+01  0.47787265045E+02  0.19999972646E+02 0.  0.
        -12    1    1    2    0    0  0.38310173005E+02 -0.19345093780E+02 -0.64592403266E+01  0.43400734955E+02  0.00000000000E+00 0.  1.
         11    1    3    3    0    0 -0.13381400108E+02  0.16601007246E+02  0.33248614840E+01  0.21580315442E+02  0.51100000000E-03 0. -1.
        -11    1    3    3    0    0 -0.13607927762E+02 -0.21837402813E+00  0.47049230339E+01  0.14399989104E+02  0.51100000000E-03 0.  1.
         12    1    3    3    0    0 -0.11320845135E+02  0.29624605621E+01 -0.15705441913E+01  0.11806960498E+02  0.00000000000E+00 0. -1.
</event>
<event>
 7    1  0.2714068E-010  0.4778727E+02  0.7816164E-02  0.1312668E+00
        -11   -1    0    0    0    0  0.00000000000E+00  0.00000000000E+00  0.45593999997E+02  0.45594000000E+02  0.51100000000E-03 0.  1.
         11   -1    0    0    0    0 -0.00000000000E+00 -0.00000000000E+00 -0.45593999997E+02  0.45594000000E+02  0.51100000000E-03 0. -1.
    9900012    2    1    2    0    0 -0.14939299974E+02 -0.24314494602E+01 -0.40675898853E+02  0.47787269849E+02  0.19999994548E+02 0.  0.
        -12    1    1    2    0    0  0.14939299974E+02  0.24314494602E+01  0.40675898853E+02  0.43400730151E+02  0.00000000000E+00 0.  1.
         11    1    3    3    0    0 -0.11223750606E+02  0.24446069939E+01 -0.86966818915E+01  0.14407670082E+02  0.51100000000E-03 0. -1.
        -11    1    3    3    0    0 -0.82109514582E+00 -0.36192397744E+00 -0.22269224610E+02  0.22287295736E+02  0.51100000000E-03 0.  1.
         12    1    3    3    0    0 -0.28944542227E+01 -0.45141324766E+01 -0.97099923508E+01  0.11092304031E+02  0.00000000000E+00 0. -1.
</event>
<event>
 7    1  0.2714068E-010  0.4778726E+02  0.7816164E-02  0.1312668E+00
        -11   -1    0    0    0    0  0.00000000000E+00  0.00000000000E+00  0.45593999997E+02  0.45594000000E+02  0.51100000000E-03 0.  1.
         11   -1    0    0    0    0 -0.00000000000E+00 -0.00000000000E+00 -0.45593999997E+02  0.45594000000E+02  0.51100000000E-03 0. -1.
    9900012    2    1    2    0    0 -0.76937271309E+01  0.41753592507E+02 -0.90037730462E+01  0.47787264367E+02  0.19999969555E+02 0.  0.
        -12    1    1    2    0    0  0.76937271309E+01 -0.41753592507E+02  0.90037730462E+01  0.43400735633E+02  0.00000000000E+00 0.  1.
         11    1    3    3    0    0 -0.10963258089E+01  0.28592961435E+02 -0.51718684036E+01  0.29077613329E+02  0.51100000000E-03 0. -1.
        -11    1    3    3    0    0 -0.89886083230E+01  0.10677109434E+02 -0.57780560560E+00  0.13968879877E+02  0.51100000000E-03 0.  1.
        -12    1    3    3    0    0  0.23912070010E+01  0.24835216382E+01 -0.32540990370E+01  0.47407711601E+01  0.00000000000E+00 0.  1.
</event>
<event>
 7    1  0.2714068E-010  0.4778727E+02  0.7816164E-02  0.1312668E+00
        -11   -1    0    0    0    0  0.00000000000E+00  0.00000000000E+00  0.45593999997E+02  0.45594000000E+02  0.51100000000E-03 0.  1.
         11   -1    0    0    0    0 -0.00000000000E+00 -0.00000000000E+00 -0.45593999997E+02  0.45594000000E+02  0.51100000000E-03 0. -1.
    9900012    2    1    2    0    0  0.17588178275E+02  0.12062435367E+02 -0.37799163060E+02  0.47787273162E+02  0.20000009654E+02 0.  0.
        -12    1    1    2    0    0 -0.17588178275E+02 -0.12062435367E+02  0.37799163060E+02  0.43400726838E+02  0.00000000000E+00 0.  1.
         11    1    3    3    0    0  0.29255973477E+01 -0.75395485019E+00 -0.17021080966E+02  0.17287127155E+02  0.51100000000E-03 0. -1.
        -11    1    3    3    0    0  0.11138437363E+02  0.11341648748E+02 -0.93317010976E+01  0.18433079744E+02  0.51100000000E-03 0.  1.
        -12    1    3    3    0    0  0.35241435643E+01  0.14747414691E+01 -0.11446380997E+02  0.12067066263E+02  0.00000000000E+00 0.  1.
</event>
<event>
 7    1  0.2714068E-010  0.4778728E+02  0.7816164E-02  0.1312668E+00
        -11   -1    0    0    0    0  0.00000000000E+00  0.00000000000E+00  0.45593999997E+02  0.45594000000E+02  0.51100000000E-03 0. -1.
         11   -1    0    0    0    0 -0.00000000000E+00 -0.00000000000E+00 -0.45593999997E+02  0.45594000000E+02  0.51100000000E-03 0.  1.
    9900012    2    1    2    0    0 -0.28171433647E+02  0.32323756895E+02 -0.67207090349E+01  0.47787275772E+02  0.20000021556E+02 0.  0.
        -12    1    1    2    0    0  0.28171433647E+02 -0.32323756895E+02  0.67207090349E+01  0.43400724228E+02  0.00000000000E+00 0.  1.
         11    1    3    3    0    0 -0.49207047300E+01  0.18663498838E+02 -0.11341562080E+01  0.19334576139E+02  0.51100000000E-03 0. -1.
        -11    1    3    3    0    0 -0.13871262939E+02  0.79679423557E+01 -0.68632773895E+01  0.17407027825E+02  0.51100000000E-03 0.  1.
         12    1    3    3    0    0 -0.93794659783E+01  0.56923157014E+01  0.12767245626E+01  0.11045671808E+02  0.00000000000E+00 0. -1.
</event>
<event>
 7    1  0.2714068E-010  0.4778727E+02  0.7816164E-02  0.1312668E+00
        -11   -1    0    0    0    0  0.00000000000E+00  0.00000000000E+00  0.45593999997E+02  0.45594000000E+02  0.51100000000E-03 0.  1.
         11   -1    0    0    0    0 -0.00000000000E+00 -0.00000000000E+00 -0.45593999997E+02  0.45594000000E+02  0.51100000000E-03 0. -1.
    9900012    2    1    2    0    0  0.20643656959E+02  0.96617855777E+01 -0.36933897939E+02  0.47787268553E+02  0.19999988639E+02 0.  0.
        -12    1    1    2    0    0 -0.20643656959E+02 -0.96617855777E+01  0.36933897939E+02  0.43400731447E+02  0.00000000000E+00 0.  1.
         11    1    3    3    0    0  0.14231770812E+02  0.27850654693E+01 -0.34714903132E+02  0.37622126334E+02  0.51100000000E-03 0. -1.
        -11    1    3    3    0    0  0.13422867652E+01  0.36979682889E+01 -0.98482474217E+00  0.40554387259E+01  0.51100000000E-03 0.  1.
         12    1    3    3    0    0  0.50695993821E+01  0.31787518196E+01 -0.12341700643E+01  0.61097034931E+01  0.00000000000E+00 0. -1.
</event>
<event>
 7    1  0.2714068E-010  0.4778728E+02  0.7816164E-02  0.1312668E+00
        -11   -1    0    0    0    0  0.00000000000E+00  0.00000000000E+00  0.45593999997E+02  0.45594000000E+02  0.51100000000E-03 0.  1.
         11   -1    0    0    0    0 -0.00000000000E+00 -0.00000000000E+00 -0.45593999997E+02  0.45594000000E+02  0.51100000000E-03 0. -1.
    9900012    2    1    2    0    0 -0.66346391942E+01 -0.15402674357E+02 -0.40029515291E+02  0.47787275247E+02  0.20000019163E+02 0.  0.
        -12    1    1    2    0    0  0.66346391942E+01  0.15402674357E+02  0.40029515291E+02  0.43400724753E+02  0.00000000000E+00 0.  1.
         11    1    3    3    0    0 -0.10178415665E+02 -0.67441645823E+01 -0.13666418069E+02  0.18326344001E+02  0.51100000000E-03 0.  1.
        -11    1    3    3    0    0  0.34337443526E+01 -0.98576754140E+01 -0.26252461323E+02  0.28251656423E+02  0.51100000000E-03 0. -1.
         12    1    3    3    0    0  0.11003211840E+00  0.11991656389E+01 -0.11063589950E+00  0.12092748235E+01  0.00000000000E+00 0. -1.
</event>
<event>
 7    1  0.2714068E-010  0.4778729E+02  0.7816164E-02  0.1312668E+00
        -11   -1    0    0    0    0  0.00000000000E+00  0.00000000000E+00  0.45593999997E+02  0.45594000000E+02  0.51100000000E-03 0. -1.
         11   -1    0    0    0    0 -0.00000000000E+00 -0.00000000000E+00 -0.45593999997E+02  0.45594000000E+02  0.51100000000E-03 0.  1.
    9900012    2    1    2    0    0  0.13037860418E+02 -0.13368019761E+02  0.39178210456E+02  0.47787286513E+02  0.20000070528E+02 0.  0.
        -12    1    1    2    0    0 -0.13037860418E+02  0.13368019761E+02 -0.39178210456E+02  0.43400713487E+02  0.00000000000E+00 0.  1.
         11    1    3    3    0    0  0.12897902450E+02 -0.13224129722E+02  0.39058021886E+02  0.43206047822E+02  0.51100000000E-03 0. -1.
        -11    1    3    3    0    0  0.98587983119E+00 -0.21104719872E+01 -0.43491103099E+00  0.23696410944E+01  0.51100000000E-03 0.  1.
         12    1    3    3    0    0 -0.84592186266E+00  0.19665819491E+01  0.55509960130E+00  0.22115975962E+01  0.00000000000E+00 0. -1.
</event>
<event>
 7    1  0.2714068E-010  0.4778727E+02  0.7816164E-02  0.1312668E+00
        -11   -1    0    0    0    0  0.00000000000E+00  0.00000000000E+00  0.45593999997E+02  0.45594000000E+02  0.51100000000E-03 0. -1.
         11   -1    0    0    0    0 -0.00000000000E+00 -0.00000000000E+00 -0.45593999997E+02  0.45594000000E+02  0.51100000000E-03 0.  1.
    9900012    2    1    2    0    0  0.23970583856E+02  0.29883293194E+02  0.20396648232E+02  0.47787270034E+02  0.19999995391E+02 0.  0.
        -12    1    1    2    0    0 -0.23970583856E+02 -0.29883293194E+02 -0.20396648232E+02  0.43400729966E+02  0.00000000000E+00 0.  1.
         11    1    3    3    0    0  0.18153276424E+02  0.24970182380E+02  0.12912400496E+02  0.33463137029E+02  0.51100000000E-03 0. -1.
        -11    1    3    3    0    0 -0.23834427417E+01  0.80214700987E+00  0.48046803230E-01  0.25152629852E+01  0.51100000000E-03 0.  1.
        -12    1    3    3    0    0  0.82007501736E+01  0.41109638041E+01  0.74362009328E+01  0.11808870019E+02  0.00000000000E+00 0.  1.
</event>
<event>
 7    1  0.2714068E-010  0.4778727E+02  0.7816164E-02  0.1312668E+00
        -11   -1    0    0    0    0  0.00000000000E+00  0.00000000000E+00  0.45593999997E+02  0.45594000000E+02  0.51100000000E-03 0. -1.
         11   -1    0    0    0    0 -0.00000000000E+00 -0.00000000000E+00 -0.45593999997E+02  0.45594000000E+02  0.51100000000E-03 0.  1.
    9900012    2    1    2    0    0 -0.57977046127E+01 -0.29578903186E+02  0.31226564998E+02  0.47787271273E+02  0.20000001041E+02 0.  0.
        -12    1    1    2    0    0  0.57977046127E+01  0.29578903186E+02 -0.31226564998E+02  0.43400728727E+02  0.00000000000E+00 0.  1.
         11    1    3    3    0    0  0.87845870550E+00 -0.11533658444E+02  0.53824463588E+01  0.12758044359E+02  0.51100000000E-03 0. -1.
        -11    1    3    3    0    0  0.23541323620E+01 -0.24079100969E-01  0.13220034803E+00  0.23579644133E+01  0.51100000000E-03 0.  1.
         12    1    3    3    0    0 -0.90302956802E+01 -0.18021165640E+02  0.25711918292E+02  0.32671262500E+02  0.00000000000E+00 0. -1.
</event>
<event>
 7    1  0.2714068E-010  0.4778727E+02  0.7816164E-02  0.1312668E+00
        -11   -1    0    0    0    0  0.00000000000E+00  0.00000000000E+00  0.45593999997E+02  0.45594000000E+02  0.51100000000E-03 0.  1.
         11   -1    0    0    0    0 -0.00000000000E+00 -0.00000000000E+00 -0.45593999997E+02  0.45594000000E+02  0.51100000000E-03 0. -1.
    9900012    2    1    2    0    0 -0.20349155562E+02 -0.26953038393E+02 -0.27259298561E+02  0.47787265344E+02  0.19999974007E+02 0.  0.
        -12    1    1    2    0    0  0.20349155562E+02  0.26953038393E+02  0.27259298561E+02  0.43400734656E+02  0.00000000000E+00 0.  1.
         11    1    3    3    0    0 -0.25037008067E+01 -0.10282253649E+02 -0.67922211968E+01  0.12574876814E+02  0.51100000000E-03 0. -1.
        -11    1    3    3    0    0 -0.13290682007E+02 -0.30233077877E+01 -0.62825996384E+01  0.15008453507E+02  0.51100000000E-03 0.  1.
        -12    1    3    3    0    0 -0.45547727481E+01 -0.13647476956E+02 -0.14184477725E+02  0.20203935023E+02  0.00000000000E+00 0.  1.
</event>
<event>
 7    1  0.2714068E-010  0.4778727E+02  0.7816164E-02  0.1312668E+00
        -11   -1    0    0    0    0  0.00000000000E+00  0.00000000000E+00  0.45593999997E+02  0.45594000000E+02  0.51100000000E-03 0.  1.
         11   -1    0    0    0    0 -0.00000000000E+00 -0.00000000000E+00 -0.45593999997E+02  0.45594000000E+02  0.51100000000E-03 0. -1.
    9900012    2    1    2    0    0  0.43359151667E+02 -0.14660781184E+01 -0.12074297912E+01  0.47787270686E+02  0.19999998366E+02 0.  0.
        -12    1    1    2    0    0 -0.43359151667E+02  0.14660781184E+01  0.12074297912E+01  0.43400729314E+02  0.00000000000E+00 0.  1.
         11    1    3    3    0    0  0.11325203954E+02 -0.52677036176E+01 -0.42560378398E+01  0.13195560024E+02  0.51100000000E-03 0. -1.
        -11    1    3    3    0    0  0.59083839117E+01  0.32872950654E+01  0.49686520216E+01  0.83906383826E+01  0.51100000000E-03 0.  1.
        -12    1    3    3    0    0  0.26125563801E+02  0.51433043392E+00 -0.19200439731E+01  0.26201072279E+02  0.00000000000E+00 0.  1.
</event>
<event>
 7    1  0.2714068E-010  0.4778727E+02  0.7816164E-02  0.1312668E+00
        -11   -1    0    0    0    0  0.00000000000E+00  0.00000000000E+00  0.45593999997E+02  0.45594000000E+02  0.51100000000E-03 0.  1.
         11   -1    0    0    0    0 -0.00000000000E+00 -0.00000000000E+00 -0.45593999997E+02  0.45594000000E+02  0.51100000000E-03 0. -1.
    9900012    2    1    2    0    0  0.24920499583E+02 -0.16808178575E+02 -0.31306187307E+02  0.47787268091E+02  0.19999986536E+02 0.  0.
        -12    1    1    2    0    0 -0.24920499583E+02  0.16808178575E+02  0.31306187307E+02  0.43400731909E+02  0.00000000000E+00 0.  1.
         11    1    3    3    0    0  0.11609276919E+02  0.30451086824E+01 -0.90311471708E+01  0.15020306820E+02  0.51100000000E-03 0. -1.
        -11    1    3    3    0    0  0.14083829578E+01 -0.25480813116E+01 -0.17337726638E+01  0.33885437635E+01  0.51100000000E-03 0.  1.
         12    1    3    3    0    0  0.11902839706E+02 -0.17305205945E+02 -0.20541267473E+02  0.29378417508E+02  0.00000000000E+00 0. -1.
</event>
<event>
 7    1  0.2714068E-010  0.4778727E+02  0.7816164E-02  0.1312668E+00
        -11   -1    0    0    0    0  0.00000000000E+00  0.00000000000E+00  0.45593999997E+02  0.45594000000E+02  0.51100000000E-03 0. -1.
         11   -1    0    0    0    0 -0.00000000000E+00 -0.00000000000E+00 -0.45593999997E+02  0.45594000000E+02  0.51100000000E-03 0.  1.
    9900012    2    1    2    0    0 -0.61262490688E+01 -0.33326992614E+02  0.27118339094E+02  0.47787266371E+02  0.19999978690E+02 0.  0.
        -12    1    1    2    0    0  0.61262490688E+01  0.33326992614E+02 -0.27118339094E+02  0.43400733629E+02  0.00000000000E+00 0.  1.
         11    1    3    3    0    0  0.19838680743E+00 -0.11943361075E+01  0.50037894612E+01  0.51481749481E+01  0.51100000000E-03 0.  1.
        -11    1    3    3    0    0 -0.77765294161E+01 -0.24429424624E+02  0.23381852583E+02  0.34698447050E+02  0.51100000000E-03 0. -1.
        -12    1    3    3    0    0  0.14518935399E+01 -0.77032318828E+01 -0.12673029495E+01  0.79406443729E+01  0.00000000000E+00 0.  1.
</event>
<event>
 7    1  0.2714068E-010  0.4778727E+02  0.7816164E-02  0.1312668E+00
        -11   -1    0    0    0    0  0.00000000000E+00  0.00000000000E+00  0.45593999997E+02  0.45594000000E+02  0.51100000000E-03 0. -1.
         11   -1    0    0    0    0 -0.00000000000E+00 -0.00000000000E+00 -0.45593999997E+02  0.45594000000E+02  0.51100000000E-03 0.  1.
    9900012    2    1    2    0    0  0.68097207927E+01 -0.35107464930E+02  0.24590985835E+02  0.47787274483E+02  0.20000015679E+02 0.  0.
        -12    1    1    2    0    0 -0.68097207927E+01  0.35107464930E+02 -0.24590985835E+02  0.43400725517E+02  0.00000000000E+00 0.  1.
         11    1    3    3    0    0  0.11041122071E+02 -0.24950181516E+02  0.15396480941E+02  0.31328414577E+02  0.51100000000E-03 0. -1.
        -11    1    3    3    0    0 -0.12711937129E+01  0.10091069463E+01 -0.10837045441E+00  0.16266452291E+01  0.51100000000E-03 0.  1.
         12    1    3    3    0    0 -0.29602075650E+01 -0.11166390360E+02  0.93028753478E+01  0.14832214677E+02  0.00000000000E+00 0. -1.
</event>
<event>
 7    1  0.2714068E-010  0.4778727E+02  0.7816164E-02  0.1312668E+00
        -11   -1    0    0    0    0  0.00000000000E+00  0.00000000000E+00  0.45593999997E+02  0.45594000000E+02  0.51100000000E-03 0.  1.
         11   -1    0    0    0    0 -0.00000000000E+00 -0.00000000000E+00 -0.45593999997E+02  0.45594000000E+02  0.51100000000E-03 0. -1.
    9900012    2    1    2    0    0 -0.26570691382E+02  0.33347549990E+02 -0.80970610744E+01  0.47787272715E+02  0.20000007616E+02 0.  0.
        -12    1    1    2    0    0  0.26570691382E+02 -0.33347549990E+02  0.80970610744E+01  0.43400727285E+02  0.00000000000E+00 0.  1.
         11    1    3    3    0    0 -0.13833073330E+02  0.18721605469E+02 -0.46738850309E+01  0.23742317297E+02  0.51100000000E-03 0. -1.
        -11    1    3    3    0    0 -0.12296134256E+02  0.37885427081E+01 -0.28802542847E+01  0.13184985343E+02  0.51100000000E-03 0.  1.
        -12    1    3    3    0    0 -0.44148379662E+00  0.10837401813E+02 -0.54292175880E+00  0.10859970075E+02  0.00000000000E+00 0.  1.
</event>
<event>
 7    1  0.2714068E-010  0.4778728E+02  0.7816164E-02  0.1312668E+00
        -11   -1    0    0    0    0  0.00000000000E+00  0.00000000000E+00  0.45593999997E+02  0.45594000000E+02  0.51100000000E-03 0. -1.
         11   -1    0    0    0    0 -0.00000000000E+00 -0.00000000000E+00 -0.45593999997E+02  0.45594000000E+02  0.51100000000E-03 0.  1.
    9900012    2    1    2    0    0  0.18759390854E+02  0.19650758190E+02  0.33846060349E+02  0.47787275999E+02  0.20000022588E+02 0.  0.
        -12    1    1    2    0    0 -0.18759390854E+02 -0.19650758190E+02 -0.33846060349E+02  0.43400724001E+02  0.00000000000E+00 0.  1.
         11    1    3    3    0    0  0.22008299821E+02  0.18178045778E+02  0.29875225223E+02  0.41319918825E+02  0.51100000000E-03 0. -1.
        -11    1    3    3    0    0  0.68590641824E+00 -0.32765652210E+00  0.79444340925E+00  0.10995303555E+01  0.51100000000E-03 0.  1.
         12    1    3    3    0    0 -0.39348153847E+01  0.18003689342E+01  0.31763917166E+01  0.53678268180E+01  0.00000000000E+00 0. -1.
</event>
<event>
 7    1  0.2714068E-010  0.4778727E+02  0.7816164E-02  0.1312668E+00
        -11   -1    0    0    0    0  0.00000000000E+00  0.00000000000E+00  0.45593999997E+02  0.45594000000E+02  0.51100000000E-03 0. -1.
         11   -1    0    0    0    0 -0.00000000000E+00 -0.00000000000E+00 -0.45593999997E+02  0.45594000000E+02  0.51100000000E-03 0.  1.
    9900012    2    1    2    0    0  0.23181392968E+02  0.35374949398E+02  0.97395767973E+01  0.47787269810E+02  0.19999994372E+02 0.  0.
        -12    1    1    2    0    0 -0.23181392968E+02 -0.35374949398E+02 -0.97395767973E+01  0.43400730190E+02  0.00000000000E+00 0.  1.
         11    1    3    3    0    0  0.53959767349E+01  0.55903980012E+01 -0.15837493940E+00  0.77713703822E+01  0.51100000000E-03 0. -1.
        -11    1    3    3    0    0  0.15891388893E+02  0.14948482792E+02  0.12020512702E+02  0.24909558499E+02  0.51100000000E-03 0.  1.
        -12    1    3    3    0    0  0.18940273398E+01  0.14836068604E+02 -0.21225609656E+01  0.15106340928E+02  0.00000000000E+00 0.  1.
</event>
<event>
 7    1  0.2714068E-010  0.4778727E+02  0.7816164E-02  0.1312668E+00
        -11   -1    0    0    0    0  0.00000000000E+00  0.00000000000E+00  0.45593999997E+02  0.45594000000E+02  0.51100000000E-03 0.  1.
         11   -1    0    0    0    0 -0.00000000000E+00 -0.00000000000E+00 -0.45593999997E+02  0.45594000000E+02  0.51100000000E-03 0. -1.
    9900012    2    1    2    0    0 -0.21384473402E+02  0.26010359931E+02 -0.27382266435E+02  0.47787273721E+02  0.20000012203E+02 0.  0.
        -12    1    1    2    0    0  0.21384473402E+02 -0.26010359931E+02  0.27382266435E+02  0.43400726279E+02  0.00000000000E+00 0.  1.
         11    1    3    3    0    0 -0.97976395153E+01  0.10970772045E+02 -0.12075723246E+02  0.19030887302E+02  0.51100000000E-03 0. -1.
        -11    1    3    3    0    0 -0.68939090118E+01  0.68457372799E+01 -0.16591505060E+02  0.19226755857E+02  0.51100000000E-03 0.  1.
        -12    1    3    3    0    0 -0.46929248754E+01  0.81938506061E+01  0.12849618703E+01  0.95296305620E+01  0.00000000000E+00 0.  1.
</event>
<event>
 7    1  0.2714068E-010  0.4778727E+02  0.7816164E-02  0.1312668E+00
        -11   -1    0    0    0    0  0.00000000000E+00  0.00000000000E+00  0.45593999997E+02  0.45594000000E+02  0.51100000000E-03 0.  1.
         11   -1    0    0    0    0 -0.00000000000E+00 -0.00000000000E+00 -0.45593999997E+02  0.45594000000E+02  0.51100000000E-03 0. -1.
    9900012    2    1    2    0    0  0.19344803747E+02  0.17065328171E+02 -0.34902385505E+02  0.47787269920E+02  0.19999994871E+02 0.  0.
        -12    1    1    2    0    0 -0.19344803747E+02 -0.17065328171E+02  0.34902385505E+02  0.43400730080E+02  0.00000000000E+00 0.  1.
         11    1    3    3    0    0  0.14783300813E+02  0.15353161123E+02 -0.28720419459E+02  0.35764899462E+02  0.51100000000E-03 0. -1.
        -11    1    3    3    0    0 -0.19510812043E+01 -0.28401002053E+00  0.92532147532E+00  0.21779806361E+01  0.51100000000E-03 0.  1.
        -12    1    3    3    0    0  0.65125841375E+01  0.19961770685E+01 -0.71072875218E+01  0.98443898213E+01  0.00000000000E+00 0.  1.
</event>
<event>
 7    1  0.2714068E-010  0.4778728E+02  0.7816164E-02  0.1312668E+00
        -11   -1    0    0    0    0  0.00000000000E+00  0.00000000000E+00  0.45593999997E+02  0.45594000000E+02  0.51100000000E-03 0. -1.
         11   -1    0    0    0    0 -0.00000000000E+00 -0.00000000000E+00 -0.45593999997E+02  0.45594000000E+02  0.51100000000E-03 0.  1.
    9900012    2    1    2    0    0  0.43022865888E+01  0.42068205604E+02 -0.97662100334E+01  0.47787280524E+02  0.20000043221E+02 0.  0.
        -12    1    1    2    0    0 -0.43022865888E+01 -0.42068205604E+02  0.97662100334E+01  0.43400719476E+02  0.00000000000E+00 0.  1.
         11    1    3    3    0    0  0.23645162458E+01  0.69630227926E+01 -0.17166884217E+01  0.75512676344E+01  0.51100000000E-03 0. -1.
        -11    1    3    3    0    0  0.35789772689E-01  0.35684091539E+02 -0.10389185102E+02  0.37165721266E+02  0.51100000000E-03 0.  1.
        -12    1    3    3    0    0  0.19019805703E+01 -0.57890872828E+00  0.23396634902E+01  0.30702916234E+01  0.00000000000E+00 0.  1.
</event>
<event>
 7    1  0.2714068E-010  0.4778727E+02  0.7816164E-02  0.1312668E+00
        -11   -1    0    0    0    0  0.00000000000E+00  0.00000000000E+00  0.45593999997E+02  0.45594000000E+02  0.51100000000E-03 0. -1.
         11   -1    0    0    0    0 -0.00000000000E+00 -0.00000000000E+00 -0.45593999997E+02  0.45594000000E+02  0.51100000000E-03 0.  1.
    9900012    2    1    2    0    0 -0.91569320127E+01 -0.74662150956E+01  0.41761578095E+02  0.47787272163E+02  0.20000005102E+02 0.  0.
        -12    1    1    2    0    0  0.91569320127E+01  0.74662150956E+01 -0.41761578095E+02  0.43400727837E+02  0.00000000000E+00 0.  1.
         11    1    3    3    0    0 -0.38246915889E+01  0.43385411135E+01  0.40202798375E+01  0.70437103132E+01  0.51100000000E-03 0. -1.
        -11    1    3    3    0    0  0.17468746567E+01 -0.54380940284E+01  0.16661906263E+02  0.17613732095E+02  0.51100000000E-03 0.  1.
         12    1    3    3    0    0 -0.70791150805E+01 -0.63666621807E+01  0.21079391995E+02  0.23129829755E+02  0.00000000000E+00 0. -1.
</event>
<event>
 7    1  0.2714068E-010  0.4778727E+02  0.7816164E-02  0.1312668E+00
        -11   -1    0    0    0    0  0.00000000000E+00  0.00000000000E+00  0.45593999997E+02  0.45594000000E+02  0.51100000000E-03 0.  1.
         11   -1    0    0    0    0 -0.00000000000E+00 -0.00000000000E+00 -0.45593999997E+02  0.45594000000E+02  0.51100000000E-03 0. -1.
    9900012    2    1    2    0    0  0.20813674217E+02 -0.31479296208E+02 -0.21435203703E+02  0.47787273255E+02  0.20000010079E+02 0.  0.
        -12    1    1    2    0    0 -0.20813674217E+02  0.31479296208E+02  0.21435203703E+02  0.43400726745E+02  0.00000000000E+00 0.  1.
         11    1    3    3    0    0  0.95735908138E+01 -0.22620700576E+02 -0.82450946981E+01  0.25910062186E+02  0.51100000000E-03 0. -1.
        -11    1    3    3    0    0  0.48586630019E+01 -0.20830232259E+01  0.51387818972E+00  0.53112769632E+01  0.51100000000E-03 0.  1.
         12    1    3    3    0    0  0.63814204017E+01 -0.67755724062E+01 -0.13703987195E+02  0.16565934106E+02  0.00000000000E+00 0. -1.
</event>
<event>
 7    1  0.2714068E-010  0.4778727E+02  0.7816164E-02  0.1312668E+00
        -11   -1    0    0    0    0  0.00000000000E+00  0.00000000000E+00  0.45593999997E+02  0.45594000000E+02  0.51100000000E-03 0.  1.
         11   -1    0    0    0    0 -0.00000000000E+00 -0.00000000000E+00 -0.45593999997E+02  0.45594000000E+02  0.51100000000E-03 0. -1.
    9900012    2    1    2    0    0 -0.35752218494E+02  0.51945966328E+01 -0.24050321790E+02  0.47787274895E+02  0.20000017556E+02 0.  0.
        -12    1    1    2    0    0  0.35752218494E+02 -0.51945966328E+01  0.24050321790E+02  0.43400725105E+02  0.00000000000E+00 0.  1.
         11    1    3    3    0    0 -0.10984630771E+02  0.96302243172E+01 -0.11564757822E+02  0.18631880133E+02  0.51100000000E-03 0. -1.
        -11    1    3    3    0    0 -0.75049475560E+01 -0.47189361369E+01 -0.60363959677E+01  0.10725235318E+02  0.51100000000E-03 0.  1.
         12    1    3    3    0    0 -0.17262640167E+02  0.28330845254E+00 -0.64491680008E+01  0.18430159444E+02  0.00000000000E+00 0. -1.
</event>
<event>
 7    1  0.2714068E-010  0.4778727E+02  0.7816164E-02  0.1312668E+00
        -11   -1    0    0    0    0  0.00000000000E+00  0.00000000000E+00  0.45593999997E+02  0.45594000000E+02  0.51100000000E-03 0.  1.
         11   -1    0    0    0    0 -0.00000000000E+00 -0.00000000000E+00 -0.45593999997E+02  0.45594000000E+02  0.51100000000E-03 0. -1.
    9900012    2    1    2    0    0 -0.94298421617E+01 -0.35531130282E+01 -0.42214651616E+02  0.47787270208E+02  0.19999996188E+02 0.  0.
        -12    1    1    2    0    0  0.94298421617E+01  0.35531130282E+01  0.42214651616E+02  0.43400729792E+02  0.00000000000E+00 0.  1.
         11    1    3    3    0    0 -0.56407433347E+01 -0.30061475452E+01 -0.20215462924E+02  0.21201883170E+02  0.51100000000E-03 0. -1.
        -11    1    3    3    0    0  0.19920083434E+01  0.37256511304E+01 -0.93315604248E+00  0.43265868818E+01  0.51100000000E-03 0.  1.
        -12    1    3    3    0    0 -0.57811071704E+01 -0.42726166134E+01 -0.21066032649E+02  0.22258800157E+02  0.00000000000E+00 0.  1.
</event>
<event>
 7    1  0.2714068E-010  0.4778727E+02  0.7816164E-02  0.1312668E+00
        -11   -1    0    0    0    0  0.00000000000E+00  0.00000000000E+00  0.45593999997E+02  0.45594000000E+02  0.51100000000E-03 0.  1.
         11   -1    0    0    0    0 -0.00000000000E+00 -0.00000000000E+00 -0.45593999997E+02  0.45594000000E+02  0.51100000000E-03 0. -1.
    9900012    2    1    2    0    0 -0.27913716887E+02 -0.10218753749E+02 -0.31623164811E+02  0.47787273378E+02  0.20000010641E+02 0.  0.
        -12    1    1    2    0    0  0.27913716887E+02  0.10218753749E+02  0.31623164811E+02  0.43400726622E+02  0.00000000000E+00 0.  1.
         11    1    3    3    0    0 -0.20723401044E+02 -0.56474828165E+01 -0.29014445696E+02  0.36099743382E+02  0.51100000000E-03 0. -1.
        -11    1    3    3    0    0  0.16186429475E+01 -0.77393185716E+00 -0.54955703517E+00  0.18764297767E+01  0.51100000000E-03 0.  1.
         12    1    3    3    0    0 -0.88089587911E+01 -0.37973390754E+01 -0.20591620799E+01  0.98111002191E+01  0.00000000000E+00 0. -1.
</event>
<event>
 7    1  0.2714068E-010  0.4778727E+02  0.7816164E-02  0.1312668E+00
        -11   -1    0    0    0    0  0.00000000000E+00  0.00000000000E+00  0.45593999997E+02  0.45594000000E+02  0.51100000000E-03 0.  1.
         11   -1    0    0    0    0 -0.00000000000E+00 -0.00000000000E+00 -0.45593999997E+02  0.45594000000E+02  0.51100000000E-03 0. -1.
    9900012    2    1    2    0    0  0.11969472554E+02 -0.38059812581E+02 -0.17082310342E+02  0.47787274965E+02  0.20000017875E+02 0.  0.
        -12    1    1    2    0    0 -0.11969472554E+02  0.38059812581E+02  0.17082310342E+02  0.43400725035E+02  0.00000000000E+00 0.  1.
         11    1    3    3    0    0  0.31729982093E+01 -0.73923999171E+01 -0.36632639210E+01  0.88394002617E+01  0.51100000000E-03 0. -1.
        -11    1    3    3    0    0  0.60862644923E+00 -0.21008196404E+02 -0.15501288317E+02  0.26115219357E+02  0.51100000000E-03 0.  1.
        -12    1    3    3    0    0  0.81878478955E+01 -0.96592162605E+01  0.20822418960E+01  0.12832655346E+02  0.00000000000E+00 0.  1.
</event>
<event>
 7    1  0.2714068E-010  0.4778729E+02  0.7816164E-02  0.1312668E+00
        -11   -1    0    0    0    0  0.00000000000E+00  0.00000000000E+00  0.45593999997E+02  0.45594000000E+02  0.51100000000E-03 0.  1.
         11   -1    0    0    0    0 -0.00000000000E+00 -0.00000000000E+00 -0.45593999997E+02  0.45594000000E+02  0.51100000000E-03 0. -1.
    9900012    2    1    2    0    0  0.13574818086E+02  0.31477136890E+02 -0.26618339912E+02  0.47787287419E+02  0.20000074659E+02 0.  0.
        -12    1    1    2    0    0 -0.13574818086E+02 -0.31477136890E+02  0.26618339912E+02  0.43400712581E+02  0.00000000000E+00 0.  1.
         11    1    3    3    0    0  0.12592760616E+02  0.15921319526E+02 -0.22891352994E+02  0.30595425762E+02  0.51100000000E-03 0. -1.
        -11    1    3    3    0    0 -0.20144681185E+01  0.65219761841E+01  0.35585312502E+00  0.68352678700E+01  0.51100000000E-03 0.  1.
        -12    1    3    3    0    0  0.29965255892E+01  0.90338411793E+01 -0.40828400423E+01  0.10356593787E+02  0.00000000000E+00 0.  1.
</event>
<event>
 7    1  0.2714068E-010  0.4778727E+02  0.7816164E-02  0.1312668E+00
        -11   -1    0    0    0    0  0.00000000000E+00  0.00000000000E+00  0.45593999997E+02  0.45594000000E+02  0.51100000000E-03 0.  1.
         11   -1    0    0    0    0 -0.00000000000E+00 -0.00000000000E+00 -0.45593999997E+02  0.45594000000E+02  0.51100000000E-03 0. -1.
    9900012    2    1    2    0    0  0.75637527034E+01  0.26359208624E+02 -0.33639340809E+02  0.47787268620E+02  0.19999988947E+02 0.  0.
        -12    1    1    2    0    0 -0.75637527034E+01 -0.26359208624E+02  0.33639340809E+02  0.43400731380E+02  0.00000000000E+00 0.  1.
         11    1    3    3    0    0  0.36863206303E+01  0.11076687533E+02 -0.40465842612E+01  0.12355436493E+02  0.51100000000E-03 0. -1.
        -11    1    3    3    0    0  0.93047169940E+00  0.14224299518E+02 -0.28900880602E+02  0.32225104720E+02  0.51100000000E-03 0.  1.
        -12    1    3    3    0    0  0.29469603737E+01  0.10582215727E+01 -0.69187594612E+00  0.32067274075E+01  0.00000000000E+00 0.  1.
</event>
<event>
 7    1  0.2714068E-010  0.4778727E+02  0.7816164E-02  0.1312668E+00
        -11   -1    0    0    0    0  0.00000000000E+00  0.00000000000E+00  0.45593999997E+02  0.45594000000E+02  0.51100000000E-03 0.  1.
         11   -1    0    0    0    0 -0.00000000000E+00 -0.00000000000E+00 -0.45593999997E+02  0.45594000000E+02  0.51100000000E-03 0. -1.
    9900012    2    1    2    0    0  0.25112220242E+02 -0.25759714509E+02 -0.24278316624E+02  0.47787272412E+02  0.20000006236E+02 0.  0.
        -12    1    1    2    0    0 -0.25112220242E+02  0.25759714509E+02  0.24278316624E+02  0.43400727588E+02  0.00000000000E+00 0.  1.
         11    1    3    3    0    0 -0.24035849980E+01 -0.82885467610E+00 -0.11015385538E+01  0.27708497547E+01  0.51100000000E-03 0.  1.
        -11    1    3    3    0    0  0.23140766718E+02 -0.24964921604E+02 -0.19081594477E+02  0.39023706167E+02  0.51100000000E-03 0. -1.
         12    1    3    3    0    0  0.43750385222E+01  0.34061770428E-01 -0.40951835929E+01  0.59927164904E+01  0.00000000000E+00 0. -1.
</event>
<event>
 7    1  0.2714068E-010  0.4778727E+02  0.7816164E-02  0.1312668E+00
        -11   -1    0    0    0    0  0.00000000000E+00  0.00000000000E+00  0.45593999997E+02  0.45594000000E+02  0.51100000000E-03 0.  1.
         11   -1    0    0    0    0 -0.00000000000E+00 -0.00000000000E+00 -0.45593999997E+02  0.45594000000E+02  0.51100000000E-03 0. -1.
    9900012    2    1    2    0    0  0.31828198117E+02  0.11260847067E+02 -0.27272373414E+02  0.47787271623E+02  0.20000002636E+02 0.  0.
        -12    1    1    2    0    0 -0.31828198117E+02 -0.11260847067E+02  0.27272373414E+02  0.43400728377E+02  0.00000000000E+00 0.  1.
         11    1    3    3    0    0  0.22991245683E+02  0.17186438401E+01 -0.20350190645E+02  0.30751932854E+02  0.51100000000E-03 0. -1.
        -11    1    3    3    0    0  0.12849180142E+01 -0.91886927874E+00 -0.32614158151E+01  0.36238333895E+01  0.51100000000E-03 0.  1.
         12    1    3    3    0    0  0.75520344203E+01  0.10461072505E+02 -0.36607669540E+01  0.13411505379E+02  0.00000000000E+00 0. -1.
</event>
<event>
 7    1  0.2714068E-010  0.4778730E+02  0.7816164E-02  0.1312668E+00
        -11   -1    0    0    0    0  0.00000000000E+00  0.00000000000E+00  0.45593999997E+02  0.45594000000E+02  0.51100000000E-03 0.  1.
         11   -1    0    0    0    0 -0.00000000000E+00 -0.00000000000E+00 -0.45593999997E+02  0.45594000000E+02  0.51100000000E-03 0. -1.
    9900012    2    1    2    0    0  0.24705163731E+02 -0.35533523978E+02 -0.32625639881E+01  0.47787299948E+02  0.20000131781E+02 0.  0.
        -12    1    1    2    0    0 -0.24705163731E+02  0.35533523978E+02  0.32625639881E+01  0.43400700052E+02  0.00000000000E+00 0.  1.
         11    1    3    3    0    0  0.15842919749E+02 -0.18195640303E+02 -0.94216560377E+01  0.25900714951E+02  0.51100000000E-03 0. -1.
        -11    1    3    3    0    0 -0.66034151045E+00 -0.28819265675E+01  0.31433218911E+01  0.43153243706E+01  0.51100000000E-03 0.  1.
         12    1    3    3    0    0  0.95225854924E+01 -0.14455957107E+02  0.30157701585E+01  0.17571260626E+02  0.00000000000E+00 0. -1.
</event>
<event>
 7    1  0.2714068E-010  0.4778726E+02  0.7816164E-02  0.1312668E+00
        -11   -1    0    0    0    0  0.00000000000E+00  0.00000000000E+00  0.45593999997E+02  0.45594000000E+02  0.51100000000E-03 0.  1.
         11   -1    0    0    0    0 -0.00000000000E+00 -0.00000000000E+00 -0.45593999997E+02  0.45594000000E+02  0.51100000000E-03 0. -1.
    9900012    2    1    2    0    0  0.11675091763E+02  0.31877350772E+02 -0.27039803120E+02  0.47787260229E+02  0.19999950688E+02 0.  0.
        -12    1    1    2    0    0 -0.11675091763E+02 -0.31877350772E+02  0.27039803120E+02  0.43400739771E+02  0.00000000000E+00 0.  1.
         11    1    3    3    0    0  0.10267961550E+01  0.28047179489E+01 -0.85597259288E+01  0.90658513860E+01  0.51100000000E-03 0. -1.
        -11    1    3    3    0    0  0.25921400361E+01 -0.10601527042E+01 -0.20244174966E+01  0.34556302152E+01  0.51100000000E-03 0.  1.
         12    1    3    3    0    0  0.80561555722E+01  0.30132785527E+02 -0.16455659695E+02  0.35265778628E+02  0.00000000000E+00 0. -1.
</event>
<event>
 7    1  0.2714068E-010  0.4778727E+02  0.7816164E-02  0.1312668E+00
        -11   -1    0    0    0    0  0.00000000000E+00  0.00000000000E+00  0.45593999997E+02  0.45594000000E+02  0.51100000000E-03 0.  1.
         11   -1    0    0    0    0 -0.00000000000E+00 -0.00000000000E+00 -0.45593999997E+02  0.45594000000E+02  0.51100000000E-03 0. -1.
    9900012    2    1    2    0    0 -0.42141617756E+02  0.95708302503E+01 -0.40132848301E+01  0.47787271966E+02  0.20000004201E+02 0.  0.
        -12    1    1    2    0    0  0.42141617756E+02 -0.95708302503E+01  0.40132848301E+01  0.43400728034E+02  0.00000000000E+00 0.  1.
         11    1    3    3    0    0 -0.15985202973E+02  0.74995932169E+01 -0.10510593839E+02  0.20548557021E+02  0.51100000000E-03 0. -1.
        -11    1    3    3    0    0 -0.56066229549E+01  0.20191282529E-01  0.27683315816E+01  0.62528624367E+01  0.51100000000E-03 0.  1.
         12    1    3    3    0    0 -0.20549791828E+02  0.20510457509E+01  0.37289774277E+01  0.20985852508E+02  0.00000000000E+00 0. -1.
</event>
<event>
 7    1  0.2714068E-010  0.4778727E+02  0.7816164E-02  0.1312668E+00
        -11   -1    0    0    0    0  0.00000000000E+00  0.00000000000E+00  0.45593999997E+02  0.45594000000E+02  0.51100000000E-03 0.  1.
         11   -1    0    0    0    0 -0.00000000000E+00 -0.00000000000E+00 -0.45593999997E+02  0.45594000000E+02  0.51100000000E-03 0. -1.
    9900012    2    1    2    0    0  0.41139738869E+02 -0.13740138815E+02 -0.15342230851E+01  0.47787269944E+02  0.19999994984E+02 0.  0.
        -12    1    1    2    0    0 -0.41139738869E+02  0.13740138815E+02  0.15342230851E+01  0.43400730056E+02  0.00000000000E+00 0.  1.
         11    1    3    3    0    0  0.79102208191E+01 -0.17239021554E+01 -0.31517350343E+01  0.86877422865E+01  0.51100000000E-03 0. -1.
        -11    1    3    3    0    0 -0.41851238539E+00 -0.25615041280E+01 -0.28607210012E+01  0.38626650026E+01  0.51100000000E-03 0.  1.
        -12    1    3    3    0    0  0.33648030436E+02 -0.94547325314E+01  0.44782329503E+01  0.35236862655E+02  0.00000000000E+00 0.  1.
</event>
<event>
 7    1  0.2714068E-010  0.4778730E+02  0.7816164E-02  0.1312668E+00
        -11   -1    0    0    0    0  0.00000000000E+00  0.00000000000E+00  0.45593999997E+02  0.45594000000E+02  0.51100000000E-03 0.  1.
         11   -1    0    0    0    0 -0.00000000000E+00 -0.00000000000E+00 -0.45593999997E+02  0.45594000000E+02  0.51100000000E-03 0. -1.
    9900012    2    1    2    0    0 -0.22921784919E+02 -0.13450795410E+02 -0.34311644732E+02  0.47787296258E+02  0.20000114959E+02 0.  0.
        -12    1    1    2    0    0  0.22921784919E+02  0.13450795410E+02  0.34311644732E+02  0.43400703742E+02  0.00000000000E+00 0.  1.
         11    1    3    3    0    0 -0.93874819779E+01 -0.18808890409E+01 -0.12787954072E+02  0.15974803006E+02  0.51100000000E-03 0. -1.
        -11    1    3    3    0    0  0.31834013337E+01 -0.17824489183E+00 -0.32094588634E+01  0.45239851625E+01  0.51100000000E-03 0.  1.
        -12    1    3    3    0    0 -0.16717704275E+02 -0.11391661478E+02 -0.18314231797E+02  0.27288508090E+02  0.00000000000E+00 0.  1.
</event>
<event>
 7    1  0.2714068E-010  0.4778728E+02  0.7816164E-02  0.1312668E+00
        -11   -1    0    0    0    0  0.00000000000E+00  0.00000000000E+00  0.45593999997E+02  0.45594000000E+02  0.51100000000E-03 0.  1.
         11   -1    0    0    0    0 -0.00000000000E+00 -0.00000000000E+00 -0.45593999997E+02  0.45594000000E+02  0.51100000000E-03 0. -1.
    9900012    2    1    2    0    0  0.26350219536E+02 -0.22030769453E+02 -0.26531755562E+02  0.47787275058E+02  0.20000018300E+02 0.  0.
        -12    1    1    2    0    0 -0.26350219536E+02  0.22030769453E+02  0.26531755562E+02  0.43400724942E+02  0.00000000000E+00 0.  1.
         11    1    3    3    0    0  0.15815153217E+02 -0.80937998357E+01 -0.90868380318E+01  0.19954931540E+02  0.51100000000E-03 0. -1.
        -11    1    3    3    0    0  0.29092376310E+01 -0.12841794675E+02 -0.14495423691E+02  0.19582968680E+02  0.51100000000E-03 0.  1.
        -12    1    3    3    0    0  0.76258286870E+01 -0.10951749423E+01 -0.29494938392E+01  0.82493748385E+01  0.00000000000E+00 0.  1.
</event>
<event>
 7    1  0.2714068E-010  0.4778724E+02  0.7816164E-02  0.1312668E+00
        -11   -1    0    0    0    0  0.00000000000E+00  0.00000000000E+00  0.45593999997E+02  0.45594000000E+02  0.51100000000E-03 0.  1.
         11   -1    0    0    0    0 -0.00000000000E+00 -0.00000000000E+00 -0.45593999997E+02  0.45594000000E+02  0.51100000000E-03 0. -1.
    9900012    2    1    2    0    0 -0.10685442891E+02 -0.35518447358E+02 -0.22536353917E+02  0.47787239173E+02  0.19999854685E+02 0.  0.
        -12    1    1    2    0    0  0.10685442891E+02  0.35518447358E+02  0.22536353917E+02  0.43400760827E+02  0.00000000000E+00 0.  1.
         11    1    3    3    0    0 -0.11411431112E+02 -0.18973645989E+02 -0.18240842648E+02  0.28687076236E+02  0.51100000000E-03 0. -1.
        -11    1    3    3    0    0 -0.12134796542E+01 -0.11958135211E+02  0.70858515643E+00  0.12040416263E+02  0.51100000000E-03 0.  1.
         12    1    3    3    0    0  0.19394678757E+01 -0.45866661576E+01 -0.50040964250E+01  0.70597466748E+01  0.00000000000E+00 0. -1.
</event>
<event>
 7    1  0.2714068E-010  0.4778726E+02  0.7816164E-02  0.1312668E+00
        -11   -1    0    0    0    0  0.00000000000E+00  0.00000000000E+00  0.45593999997E+02  0.45594000000E+02  0.51100000000E-03 0.  1.
         11   -1    0    0    0    0 -0.00000000000E+00 -0.00000000000E+00 -0.45593999997E+02  0.45594000000E+02  0.51100000000E-03 0. -1.
    9900012    2    1    2    0    0  0.73455652990E+01 -0.41971787945E+02  0.82483771620E+01  0.47787262233E+02  0.19999959827E+02 0.  0.
        -12    1    1    2    0    0 -0.73455652990E+01  0.41971787945E+02 -0.82483771620E+01  0.43400737767E+02  0.00000000000E+00 0.  1.
         11    1    3    3    0    0 -0.27117043650E+01 -0.22517576843E+02  0.10451641668E+02  0.24972613425E+02  0.51100000000E-03 0. -1.
        -11    1    3    3    0    0  0.16931409491E+01 -0.55096790292E+01 -0.30706896095E+01  0.65308823460E+01  0.51100000000E-03 0.  1.
         12    1    3    3    0    0  0.83641287150E+01 -0.13944532073E+02  0.86742510331E+00  0.16283766462E+02  0.00000000000E+00 0. -1.
</event>
<event>
 7    1  0.2714068E-010  0.4778727E+02  0.7816164E-02  0.1312668E+00
        -11   -1    0    0    0    0  0.00000000000E+00  0.00000000000E+00  0.45593999997E+02  0.45594000000E+02  0.51100000000E-03 0. -1.
         11   -1    0    0    0    0 -0.00000000000E+00 -0.00000000000E+00 -0.45593999997E+02  0.45594000000E+02  0.51100000000E-03 0.  1.
    9900012    2    1    2    0    0 -0.25327396504E+02  0.33428884077E+02  0.11164943819E+02  0.47787271034E+02  0.19999999954E+02 0.  0.
        -12    1    1    2    0    0  0.25327396504E+02 -0.33428884077E+02 -0.11164943819E+02  0.43400728966E+02  0.00000000000E+00 0.  1.
         11    1    3    3    0    0 -0.16793269727E+02  0.11031347971E+02  0.52005967641E+01  0.20754535724E+02  0.51100000000E-03 0. -1.
        -11    1    3    3    0    0 -0.94810458983E+01  0.23021826229E+02  0.65658880830E+01  0.25748895138E+02  0.51100000000E-03 0.  1.
        -12    1    3    3    0    0  0.94691912138E+00 -0.62429012296E+00 -0.60154102818E+00  0.12838401726E+01  0.00000000000E+00 0.  1.
</event>
<event>
 7    1  0.2714068E-010  0.4778727E+02  0.7816164E-02  0.1312668E+00
        -11   -1    0    0    0    0  0.00000000000E+00  0.00000000000E+00  0.45593999997E+02  0.45594000000E+02  0.51100000000E-03 0.  1.
         11   -1    0    0    0    0 -0.00000000000E+00 -0.00000000000E+00 -0.45593999997E+02  0.45594000000E+02  0.51100000000E-03 0. -1.
    9900012    2    1    2    0    0 -0.25803095171E+02 -0.28903768070E+02 -0.19554940581E+02  0.47787271548E+02  0.20000002294E+02 0.  0.
        -12    1    1    2    0    0  0.25803095171E+02  0.28903768070E+02  0.19554940581E+02  0.43400728452E+02  0.00000000000E+00 0.  1.
         11    1    3    3    0    0 -0.14978128911E+02 -0.75152683687E+01 -0.62304996471E+01  0.17878555044E+02  0.51100000000E-03 0. -1.
        -11    1    3    3    0    0 -0.50086412202E+01 -0.19760764744E+02 -0.12223250583E+02  0.23769353487E+02  0.51100000000E-03 0.  1.
        -12    1    3    3    0    0 -0.58163250399E+01 -0.16277349576E+01 -0.11011903509E+01  0.61393630167E+01  0.00000000000E+00 0.  1.
</event>
<event>
 7    1  0.2714068E-010  0.4778727E+02  0.7816164E-02  0.1312668E+00
        -11   -1    0    0    0    0  0.00000000000E+00  0.00000000000E+00  0.45593999997E+02  0.45594000000E+02  0.51100000000E-03 0.  1.
         11   -1    0    0    0    0 -0.00000000000E+00 -0.00000000000E+00 -0.45593999997E+02  0.45594000000E+02  0.51100000000E-03 0. -1.
    9900012    2    1    2    0    0  0.12529738403E+02 -0.38165040106E+02 -0.16433467475E+02  0.47787268623E+02  0.19999988961E+02 0.  0.
        -12    1    1    2    0    0 -0.12529738403E+02  0.38165040106E+02  0.16433467475E+02  0.43400731377E+02  0.00000000000E+00 0.  1.
         11    1    3    3    0    0  0.57661231424E+01 -0.14626598583E+02 -0.14155435068E+02  0.21155658922E+02  0.51100000000E-03 0. -1.
        -11    1    3    3    0    0  0.85634596318E+01 -0.19608453763E+02  0.65680466090E+00  0.21406907587E+02  0.51100000000E-03 0.  1.
        -12    1    3    3    0    0 -0.17998443712E+01 -0.39299877613E+01 -0.29348370682E+01  0.52247021141E+01  0.00000000000E+00 0.  1.
</event>
<event>
 7    1  0.2714068E-010  0.4778727E+02  0.7816164E-02  0.1312668E+00
        -11   -1    0    0    0    0  0.00000000000E+00  0.00000000000E+00  0.45593999997E+02  0.45594000000E+02  0.51100000000E-03 0.  1.
         11   -1    0    0    0    0 -0.00000000000E+00 -0.00000000000E+00 -0.45593999997E+02  0.45594000000E+02  0.51100000000E-03 0. -1.
    9900012    2    1    2    0    0  0.20163556063E+01  0.42750821635E+02 -0.72058888937E+01  0.47787271030E+02  0.19999999935E+02 0.  0.
        -12    1    1    2    0    0 -0.20163556063E+01 -0.42750821635E+02  0.72058888937E+01  0.43400728970E+02  0.00000000000E+00 0.  1.
         11    1    3    3    0    0  0.31730393657E+01  0.35423991164E+01 -0.36615837291E+01  0.60019968329E+01  0.51100000000E-03 0. -1.
        -11    1    3    3    0    0  0.25298247367E+01  0.19734920148E+02  0.44943737384E+01  0.20397707764E+02  0.51100000000E-03 0.  1.
        -12    1    3    3    0    0 -0.36865084961E+01  0.19473502370E+02 -0.80386789030E+01  0.21387566434E+02  0.00000000000E+00 0.  1.
</event>
<event>
 7    1  0.2714068E-010  0.4778726E+02  0.7816164E-02  0.1312668E+00
        -11   -1    0    0    0    0  0.00000000000E+00  0.00000000000E+00  0.45593999997E+02  0.45594000000E+02  0.51100000000E-03 0.  1.
         11   -1    0    0    0    0 -0.00000000000E+00 -0.00000000000E+00 -0.45593999997E+02  0.45594000000E+02  0.51100000000E-03 0. -1.
    9900012    2    1    2    0    0 -0.80473222298E+01  0.76537232547E+01 -0.41955758306E+02  0.47787256575E+02  0.19999934030E+02 0.  0.
        -12    1    1    2    0    0  0.80473222298E+01 -0.76537232547E+01  0.41955758306E+02  0.43400743425E+02  0.00000000000E+00 0.  1.
         11    1    3    3    0    0 -0.61465736043E+01  0.63154839491E+01 -0.93644492603E+01  0.12859184064E+02  0.51100000000E-03 0. -1.
        -11    1    3    3    0    0  0.18959990277E+01 -0.47395485083E+01 -0.10002636297E+02  0.11229909417E+02  0.51100000000E-03 0.  1.
        -12    1    3    3    0    0 -0.37967476533E+01  0.60777878139E+01 -0.22588672750E+02  0.23698163094E+02  0.00000000000E+00 0.  1.
</event>
<event>
 7    1  0.2714068E-010  0.4778727E+02  0.7816164E-02  0.1312668E+00
        -11   -1    0    0    0    0  0.00000000000E+00  0.00000000000E+00  0.45593999997E+02  0.45594000000E+02  0.51100000000E-03 0. -1.
         11   -1    0    0    0    0 -0.00000000000E+00 -0.00000000000E+00 -0.45593999997E+02  0.45594000000E+02  0.51100000000E-03 0.  1.
    9900012    2    1    2    0    0 -0.13702649063E+02  0.27655277530E+02  0.30513050482E+02  0.47787271707E+02  0.20000003021E+02 0.  0.
        -12    1    1    2    0    0  0.13702649063E+02 -0.27655277530E+02 -0.30513050482E+02  0.43400728293E+02  0.00000000000E+00 0.  1.
         11    1    3    3    0    0 -0.43371935796E+00  0.90835431437E+01  0.58753290476E+01  0.10826742825E+02  0.51100000000E-03 0. -1.
        -11    1    3    3    0    0 -0.67765821240E+01  0.14548978978E+02  0.24539798408E+02  0.29322287781E+02  0.51100000000E-03 0.  1.
        -12    1    3    3    0    0 -0.64923475812E+01  0.40227554087E+01  0.97923027130E-01  0.76382411007E+01  0.00000000000E+00 0.  1.
</event>
<event>
 7    1  0.2714068E-010  0.4778727E+02  0.7816164E-02  0.1312668E+00
        -11   -1    0    0    0    0  0.00000000000E+00  0.00000000000E+00  0.45593999997E+02  0.45594000000E+02  0.51100000000E-03 0. -1.
         11   -1    0    0    0    0 -0.00000000000E+00 -0.00000000000E+00 -0.45593999997E+02  0.45594000000E+02  0.51100000000E-03 0.  1.
    9900012    2    1    2    0    0  0.40690297012E+01 -0.42657342322E+02 -0.68860331650E+01  0.47787270635E+02  0.19999998133E+02 0.  0.
        -12    1    1    2    0    0 -0.40690297012E+01  0.42657342322E+02  0.68860331650E+01  0.43400729365E+02  0.00000000000E+00 0.  1.
         11    1    3    3    0    0 -0.56114907494E+01 -0.60300283304E+01  0.13281271103E+01  0.83434999837E+01  0.51100000000E-03 0. -1.
        -11    1    3    3    0    0  0.29791571842E+01 -0.14018758266E+02 -0.66827136015E+01  0.15813273608E+02  0.51100000000E-03 0.  1.
         12    1    3    3    0    0  0.67013632664E+01 -0.22608555725E+02 -0.15314466738E+01  0.23630497043E+02  0.00000000000E+00 0. -1.
</event>
<event>
 7    1  0.2714068E-010  0.4778725E+02  0.7816164E-02  0.1312668E+00
        -11   -1    0    0    0    0  0.00000000000E+00  0.00000000000E+00  0.45593999997E+02  0.45594000000E+02  0.51100000000E-03 0.  1.
         11   -1    0    0    0    0 -0.00000000000E+00 -0.00000000000E+00 -0.45593999997E+02  0.45594000000E+02  0.51100000000E-03 0. -1.
    9900012    2    1    2    0    0  0.41525022661E+02 -0.17777690992E+01 -0.12495476550E+02  0.47787252263E+02  0.19999914368E+02 0.  0.
        -12    1    1    2    0    0 -0.41525022661E+02  0.17777690992E+01  0.12495476550E+02  0.43400747737E+02  0.00000000000E+00 0.  1.
         11    1    3    3    0    0  0.33652400271E+02 -0.55131014250E+01 -0.41835943564E+01  0.34356670289E+02  0.51100000000E-03 0. -1.
        -11    1    3    3    0    0  0.34112562589E+00  0.31486951871E+00 -0.41405820358E+01  0.41665248545E+01  0.51100000000E-03 0.  1.
         12    1    3    3    0    0  0.75314967635E+01  0.34204628071E+01 -0.41713001574E+01  0.92640571197E+01  0.00000000000E+00 0. -1.
</event>
<event>
 7    1  0.2714068E-010  0.4778727E+02  0.7816164E-02  0.1312668E+00
        -11   -1    0    0    0    0  0.00000000000E+00  0.00000000000E+00  0.45593999997E+02  0.45594000000E+02  0.51100000000E-03 0.  1.
         11   -1    0    0    0    0 -0.00000000000E+00 -0.00000000000E+00 -0.45593999997E+02  0.45594000000E+02  0.51100000000E-03 0. -1.
    9900012    2    1    2    0    0  0.39006938829E+02 -0.10821749809E+02 -0.15651569777E+02  0.47787272101E+02  0.20000004815E+02 0.  0.
        -12    1    1    2    0    0 -0.39006938829E+02  0.10821749809E+02  0.15651569777E+02  0.43400727899E+02  0.00000000000E+00 0.  1.
         11    1    3    3    0    0  0.30915068532E+02 -0.11362317026E+02 -0.15021642037E+02  0.36200738118E+02  0.51100000000E-03 0. -1.
        -11    1    3    3    0    0  0.19556768862E+01 -0.15410309092E+01 -0.36654162057E+01  0.44311087291E+01  0.51100000000E-03 0.  1.
         12    1    3    3    0    0  0.61361934106E+01  0.20815981261E+01  0.30354884660E+01  0.71554252534E+01  0.00000000000E+00 0. -1.
</event>
<event>
 7    1  0.2714068E-010  0.4778727E+02  0.7816164E-02  0.1312668E+00
        -11   -1    0    0    0    0  0.00000000000E+00  0.00000000000E+00  0.45593999997E+02  0.45594000000E+02  0.51100000000E-03 0. -1.
         11   -1    0    0    0    0 -0.00000000000E+00 -0.00000000000E+00 -0.45593999997E+02  0.45594000000E+02  0.51100000000E-03 0.  1.
    9900012    2    1    2    0    0 -0.19304084502E+02 -0.37250715093E+02  0.11106759809E+02  0.47787267669E+02  0.19999984610E+02 0.  0.
        -12    1    1    2    0    0  0.19304084502E+02  0.37250715093E+02 -0.11106759809E+02  0.43400732331E+02  0.00000000000E+00 0.  1.
         11    1    3    3    0    0 -0.70050350245E+01 -0.16993543551E+02  0.32665710278E+01  0.18668731201E+02  0.51100000000E-03 0. -1.
        -11    1    3    3    0    0 -0.12248980541E+02 -0.81616968211E+01  0.85142091802E+01  0.17004192939E+02  0.51100000000E-03 0.  1.
        -12    1    3    3    0    0 -0.50068936366E-01 -0.12095474721E+02 -0.67402039909E+00  0.12114343528E+02  0.00000000000E+00 0.  1.
</event>
<event>
 7    1  0.2714068E-010  0.4778727E+02  0.7816164E-02  0.1312668E+00
        -11   -1    0    0    0    0  0.00000000000E+00  0.00000000000E+00  0.45593999997E+02  0.45594000000E+02  0.51100000000E-03 0.  1.
         11   -1    0    0    0    0 -0.00000000000E+00 -0.00000000000E+00 -0.45593999997E+02  0.45594000000E+02  0.51100000000E-03 0. -1.
    9900012    2    1    2    0    0  0.18889892066E+02  0.82952409073E+01 -0.38183560045E+02  0.47787270724E+02  0.19999998539E+02 0.  0.
        -12    1    1    2    0    0 -0.18889892066E+02 -0.82952409073E+01  0.38183560045E+02  0.43400729276E+02  0.00000000000E+00 0.  1.
         11    1    3    3    0    0  0.11900779671E+01  0.40861162997E+01 -0.19664738150E+02  0.20120003945E+02  0.51100000000E-03 0. -1.
        -11    1    3    3    0    0  0.84784911954E+01  0.59982728914E+01 -0.59276567785E+01  0.11958311159E+02  0.51100000000E-03 0.  1.
         12    1    3    3    0    0  0.92213229031E+01 -0.17891482839E+01 -0.12591165116E+02  0.15708955619E+02  0.00000000000E+00 0. -1.
</event>
<event>
 7    1  0.2714068E-010  0.4778727E+02  0.7816164E-02  0.1312668E+00
        -11   -1    0    0    0    0  0.00000000000E+00  0.00000000000E+00  0.45593999997E+02  0.45594000000E+02  0.51100000000E-03 0.  1.
         11   -1    0    0    0    0 -0.00000000000E+00 -0.00000000000E+00 -0.45593999997E+02  0.45594000000E+02  0.51100000000E-03 0. -1.
    9900012    2    1    2    0    0  0.31905817812E+02  0.19952731602E+02 -0.21622455296E+02  0.47787270955E+02  0.19999999590E+02 0.  0.
        -12    1    1    2    0    0 -0.31905817812E+02 -0.19952731602E+02  0.21622455296E+02  0.43400729045E+02  0.00000000000E+00 0.  1.
         11    1    3    3    0    0  0.24612601306E+02  0.12730320224E+02 -0.23934677505E+02  0.36615706788E+02  0.51100000000E-03 0. -1.
        -11    1    3    3    0    0  0.74533965360E+01  0.70307263114E+01  0.28014446043E+01  0.10622256094E+02  0.51100000000E-03 0.  1.
         12    1    3    3    0    0 -0.16018002967E+00  0.19168506615E+00 -0.48922239571E+00  0.54930807290E+00  0.00000000000E+00 0. -1.
</event>
<event>
 7    1  0.2714068E-010  0.4778727E+02  0.7816164E-02  0.1312668E+00
        -11   -1    0    0    0    0  0.00000000000E+00  0.00000000000E+00  0.45593999997E+02  0.45594000000E+02  0.51100000000E-03 0. -1.
         11   -1    0    0    0    0 -0.00000000000E+00 -0.00000000000E+00 -0.45593999997E+02  0.45594000000E+02  0.51100000000E-03 0.  1.
    9900012    2    1    2    0    0 -0.33540268258E+02 -0.69129118026E+01  0.26662430457E+02  0.47787272560E+02  0.20000006912E+02 0.  0.
        -12    1    1    2    0    0  0.33540268258E+02  0.69129118026E+01 -0.26662430457E+02  0.43400727440E+02  0.00000000000E+00 0.  1.
         11    1    3    3    0    0 -0.15056109193E+02  0.19096022199E+01  0.96983846300E+01  0.18010876419E+02  0.51100000000E-03 0. -1.
        -11    1    3    3    0    0 -0.32792793395E+01 -0.79733165241E+01  0.30395889364E+01  0.91414741997E+01  0.51100000000E-03 0.  1.
        -12    1    3    3    0    0 -0.15204879725E+02 -0.84919749833E+00  0.13924456891E+02  0.20634921942E+02  0.00000000000E+00 0.  1.
</event>
<event>
 7    1  0.2714068E-010  0.4778727E+02  0.7816164E-02  0.1312668E+00
        -11   -1    0    0    0    0  0.00000000000E+00  0.00000000000E+00  0.45593999997E+02  0.45594000000E+02  0.51100000000E-03 0.  1.
         11   -1    0    0    0    0 -0.00000000000E+00 -0.00000000000E+00 -0.45593999997E+02  0.45594000000E+02  0.51100000000E-03 0. -1.
    9900012    2    1    2    0    0  0.13266190426E+02 -0.31388245512E+02 -0.26877675825E+02  0.47787271637E+02  0.20000002700E+02 0.  0.
        -12    1    1    2    0    0 -0.13266190426E+02  0.31388245512E+02  0.26877675825E+02  0.43400728363E+02  0.00000000000E+00 0.  1.
         11    1    3    3    0    0  0.45671855646E+01 -0.22470976011E+02 -0.23345609716E+02  0.32723408137E+02  0.51100000000E-03 0. -1.
        -11    1    3    3    0    0  0.19842323738E+00  0.60547591234E+00  0.12737895910E+01  0.14242587703E+01  0.51100000000E-03 0.  1.
         12    1    3    3    0    0  0.85005816238E+01 -0.95227454130E+01 -0.48058557006E+01  0.13639604729E+02  0.00000000000E+00 0. -1.
</event>
<event>
 7    1  0.2714068E-010  0.4778727E+02  0.7816164E-02  0.1312668E+00
        -11   -1    0    0    0    0  0.00000000000E+00  0.00000000000E+00  0.45593999997E+02  0.45594000000E+02  0.51100000000E-03 0.  1.
         11   -1    0    0    0    0 -0.00000000000E+00 -0.00000000000E+00 -0.45593999997E+02  0.45594000000E+02  0.51100000000E-03 0. -1.
    9900012    2    1    2    0    0  0.20657964631E+02  0.37683713046E+02 -0.60670811750E+01  0.47787271831E+02  0.20000003584E+02 0.  0.
        -12    1    1    2    0    0 -0.20657964631E+02 -0.37683713046E+02  0.60670811750E+01  0.43400728169E+02  0.00000000000E+00 0.  1.
         11    1    3    3    0    0  0.48152902074E+01  0.15420668513E+02 -0.82273650147E+01  0.18129356650E+02  0.51100000000E-03 0. -1.
        -11    1    3    3    0    0  0.14426746592E+02  0.17291313076E+02  0.58978521977E+01  0.23278857058E+02  0.51100000000E-03 0.  1.
        -12    1    3    3    0    0  0.14159278315E+01  0.49717314569E+01 -0.37375683580E+01  0.63790581228E+01  0.00000000000E+00 0.  1.
</event>
<event>
 7    1  0.2714068E-010  0.4778727E+02  0.7816164E-02  0.1312668E+00
        -11   -1    0    0    0    0  0.00000000000E+00  0.00000000000E+00  0.45593999997E+02  0.45594000000E+02  0.51100000000E-03 0. -1.
         11   -1    0    0    0    0 -0.00000000000E+00 -0.00000000000E+00 -0.45593999997E+02  0.45594000000E+02  0.51100000000E-03 0.  1.
    9900012    2    1    2    0    0  0.25192250791E+02 -0.32063205139E+02  0.14863534554E+02  0.47787270938E+02  0.19999999513E+02 0.  0.
        -12    1    1    2    0    0 -0.25192250791E+02  0.32063205139E+02 -0.14863534554E+02  0.43400729062E+02  0.00000000000E+00 0.  1.
         11    1    3    3    0    0  0.11064187933E+02 -0.95192502768E+01  0.12928675609E+02  0.19498282840E+02  0.51100000000E-03 0. -1.
        -11    1    3    3    0    0  0.12273115595E+02 -0.17827247972E+02 -0.21903699279E+01  0.21754030830E+02  0.51100000000E-03 0.  1.
        -12    1    3    3    0    0  0.18549472634E+01 -0.47167068898E+01  0.41252288724E+01  0.65349572672E+01  0.00000000000E+00 0.  1.
</event>
<event>
 7    1  0.2714068E-010  0.4778727E+02  0.7816164E-02  0.1312668E+00
        -11   -1    0    0    0    0  0.00000000000E+00  0.00000000000E+00  0.45593999997E+02  0.45594000000E+02  0.51100000000E-03 0. -1.
         11   -1    0    0    0    0 -0.00000000000E+00 -0.00000000000E+00 -0.45593999997E+02  0.45594000000E+02  0.51100000000E-03 0.  1.
    9900012    2    1    2    0    0 -0.59966027263E+00 -0.42989541669E+02  0.59298404386E+01  0.47787270824E+02  0.19999998997E+02 0.  0.
        -12    1    1    2    0    0  0.59966027263E+00  0.42989541669E+02 -0.59298404386E+01  0.43400729176E+02  0.00000000000E+00 0.  1.
         11    1    3    3    0    0  0.19213007027E+01 -0.10237151503E+02  0.92212624456E+01  0.13911231025E+02  0.51100000000E-03 0.  1.
        -11    1    3    3    0    0  0.14800944315E+01 -0.24145868020E+02 -0.16832878735E+01  0.24249682066E+02  0.51100000000E-03 0. -1.
        -12    1    3    3    0    0 -0.40010554069E+01 -0.86065221466E+01 -0.16081341335E+01  0.96263577339E+01  0.00000000000E+00 0.  1.
</event>
<event>
 7    1  0.2714068E-010  0.4778727E+02  0.7816164E-02  0.1312668E+00
        -11   -1    0    0    0    0  0.00000000000E+00  0.00000000000E+00  0.45593999997E+02  0.45594000000E+02  0.51100000000E-03 0.  1.
         11   -1    0    0    0    0 -0.00000000000E+00 -0.00000000000E+00 -0.45593999997E+02  0.45594000000E+02  0.51100000000E-03 0. -1.
    9900012    2    1    2    0    0 -0.21501548647E+02  0.24628247338E+02 -0.28543932044E+02  0.47787271692E+02  0.20000002953E+02 0.  0.
        -12    1    1    2    0    0  0.21501548647E+02 -0.24628247338E+02  0.28543932044E+02  0.43400728308E+02  0.00000000000E+00 0.  1.
         11    1    3    3    0    0 -0.99397842179E+01  0.13478386027E+02 -0.15880365112E+02  0.23079259012E+02  0.51100000000E-03 0. -1.
        -11    1    3    3    0    0  0.19987386143E+01  0.10806808901E+01  0.14516469842E+01  0.26963134949E+01  0.51100000000E-03 0.  1.
        -12    1    3    3    0    0 -0.13560503043E+02  0.10069180420E+02 -0.14115213916E+02  0.22011699185E+02  0.00000000000E+00 0.  1.
</event>
<event>
 7    1  0.2714068E-010  0.4778729E+02  0.7816164E-02  0.1312668E+00
        -11   -1    0    0    0    0  0.00000000000E+00  0.00000000000E+00  0.45593999997E+02  0.45594000000E+02  0.51100000000E-03 0. -1.
         11   -1    0    0    0    0 -0.00000000000E+00 -0.00000000000E+00 -0.45593999997E+02  0.45594000000E+02  0.51100000000E-03 0.  1.
    9900012    2    1    2    0    0  0.31238761654E+01  0.40383970914E+02  0.15588398355E+02  0.47787287191E+02  0.20000073619E+02 0.  0.
        -12    1    1    2    0    0 -0.31238761654E+01 -0.40383970914E+02 -0.15588398355E+02  0.43400712809E+02  0.00000000000E+00 0.  1.
         11    1    3    3    0    0  0.28616035354E+01  0.23155852443E+02  0.17108618220E+02  0.28932457462E+02  0.51100000000E-03 0. -1.
        -11    1    3    3    0    0 -0.90914779835E+00  0.17403553924E+02 -0.20684822464E+01  0.17549611334E+02  0.51100000000E-03 0.  1.
        -12    1    3    3    0    0  0.11714204284E+01 -0.17543545346E+00  0.54826238160E+00  0.13052183946E+01  0.00000000000E+00 0.  1.
</event>
<event>
 7    1  0.2714068E-010  0.4778727E+02  0.7816164E-02  0.1312668E+00
        -11   -1    0    0    0    0  0.00000000000E+00  0.00000000000E+00  0.45593999997E+02  0.45594000000E+02  0.51100000000E-03 0.  1.
         11   -1    0    0    0    0 -0.00000000000E+00 -0.00000000000E+00 -0.45593999997E+02  0.45594000000E+02  0.51100000000E-03 0. -1.
    9900012    2    1    2    0    0  0.27016548016E+01 -0.17315292281E+02 -0.39705224633E+02  0.47787272487E+02  0.20000006579E+02 0.  0.
        -12    1    1    2    0    0 -0.27016548016E+01  0.17315292281E+02  0.39705224633E+02  0.43400727513E+02  0.00000000000E+00 0.  1.
         11    1    3    3    0    0  0.72207478053E+01 -0.56114981276E+01 -0.23559226245E+02  0.25271827232E+02  0.51100000000E-03 0. -1.
        -11    1    3    3    0    0 -0.10719017594E+01  0.11108423410E+01 -0.48460078613E+01  0.50859351688E+01  0.51100000000E-03 0.  1.
         12    1    3    3    0    0 -0.34471912443E+01 -0.12814636495E+02 -0.11299990526E+02  0.17429510087E+02  0.00000000000E+00 0. -1.
</event>
<event>
 7    1  0.2714068E-010  0.4778728E+02  0.7816164E-02  0.1312668E+00
        -11   -1    0    0    0    0  0.00000000000E+00  0.00000000000E+00  0.45593999997E+02  0.45594000000E+02  0.51100000000E-03 0. -1.
         11   -1    0    0    0    0 -0.00000000000E+00 -0.00000000000E+00 -0.45593999997E+02  0.45594000000E+02  0.51100000000E-03 0.  1.
    9900012    2    1    2    0    0  0.72386029482E+01 -0.90718505656E+01  0.41820174417E+02  0.47787276117E+02  0.20000023126E+02 0.  0.
        -12    1    1    2    0    0 -0.72386029482E+01  0.90718505656E+01 -0.41820174417E+02  0.43400723883E+02  0.00000000000E+00 0.  1.
         11    1    3    3    0    0  0.10423366073E+02 -0.80934062012E+01  0.25988608605E+02  0.29147170732E+02  0.51100000000E-03 0. -1.
        -11    1    3    3    0    0 -0.32849345420E+01  0.38203921865E+01  0.82477132356E+01  0.96649348307E+01  0.51100000000E-03 0.  1.
        -12    1    3    3    0    0  0.10017141685E+00 -0.47988365510E+01  0.75838525769E+01  0.89751705535E+01  0.00000000000E+00 0.  1.
</event>
<event>
 7    1  0.2714068E-010  0.4778727E+02  0.7816164E-02  0.1312668E+00
        -11   -1    0    0    0    0  0.00000000000E+00  0.00000000000E+00  0.45593999997E+02  0.45594000000E+02  0.51100000000E-03 0.  1.
         11   -1    0    0    0    0 -0.00000000000E+00 -0.00000000000E+00 -0.45593999997E+02  0.45594000000E+02  0.51100000000E-03 0. -1.
    9900012    2    1    2    0    0 -0.13006334974E+02 -0.38599783773E+02  0.14983827339E+02  0.47787272604E+02  0.20000007111E+02 0.  0.
        -12    1    1    2    0    0  0.13006334974E+02  0.38599783773E+02 -0.14983827339E+02  0.43400727396E+02  0.00000000000E+00 0.  1.
         11    1    3    3    0    0 -0.59529309539E+01 -0.13546850386E+02 -0.22469408635E+01  0.14966739319E+02  0.51100000000E-03 0. -1.
        -11    1    3    3    0    0  0.17782131205E+01 -0.39728510647E+01  0.58409229843E+01  0.72843646980E+01  0.51100000000E-03 0.  1.
         12    1    3    3    0    0 -0.88316171405E+01 -0.21080082322E+02  0.11389845218E+02  0.25536168587E+02  0.00000000000E+00 0. -1.
</event>
<event>
 7    1  0.2714068E-010  0.4778727E+02  0.7816164E-02  0.1312668E+00
        -11   -1    0    0    0    0  0.00000000000E+00  0.00000000000E+00  0.45593999997E+02  0.45594000000E+02  0.51100000000E-03 0.  1.
         11   -1    0    0    0    0 -0.00000000000E+00 -0.00000000000E+00 -0.45593999997E+02  0.45594000000E+02  0.51100000000E-03 0. -1.
    9900012    2    1    2    0    0 -0.32772083802E+01  0.43161770444E+02  0.31535405984E+01  0.47787270272E+02  0.19999996478E+02 0.  0.
        -12    1    1    2    0    0  0.32772083802E+01 -0.43161770444E+02 -0.31535405984E+01  0.43400729728E+02  0.00000000000E+00 0.  1.
         11    1    3    3    0    0 -0.12955582488E+00  0.36754982331E+01  0.70882028673E+00  0.37454637140E+01  0.51100000000E-03 0. -1.
        -11    1    3    3    0    0  0.53701807275E+01  0.30551793131E+02  0.50422730570E+01  0.31427303772E+02  0.51100000000E-03 0.  1.
        -12    1    3    3    0    0 -0.85178332828E+01  0.89344790804E+01 -0.25975527453E+01  0.12614502786E+02  0.00000000000E+00 0.  1.
</event>
<event>
 7    1  0.2714068E-010  0.4778727E+02  0.7816164E-02  0.1312668E+00
        -11   -1    0    0    0    0  0.00000000000E+00  0.00000000000E+00  0.45593999997E+02  0.45594000000E+02  0.51100000000E-03 0.  1.
         11   -1    0    0    0    0 -0.00000000000E+00 -0.00000000000E+00 -0.45593999997E+02  0.45594000000E+02  0.51100000000E-03 0. -1.
    9900012    2    1    2    0    0  0.16746520270E+02 -0.39987401859E+02 -0.20457298634E+01  0.47787271213E+02  0.20000000769E+02 0.  0.
        -12    1    1    2    0    0 -0.16746520270E+02  0.39987401859E+02  0.20457298634E+01  0.43400728787E+02  0.00000000000E+00 0.  1.
         11    1    3    3    0    0  0.16401907345E+02 -0.29426420836E+02 -0.10612557336E+01  0.33705534735E+02  0.51100000000E-03 0. -1.
        -11    1    3    3    0    0 -0.27126619798E+01 -0.10532343577E+02 -0.15070751819E+01  0.10979985069E+02  0.51100000000E-03 0.  1.
        -12    1    3    3    0    0  0.30572749049E+01 -0.28637445479E-01  0.52260105214E+00  0.31017514096E+01  0.00000000000E+00 0.  1.
</event>
<event>
 7    1  0.2714068E-010  0.4778726E+02  0.7816164E-02  0.1312668E+00
        -11   -1    0    0    0    0  0.00000000000E+00  0.00000000000E+00  0.45593999997E+02  0.45594000000E+02  0.51100000000E-03 0.  1.
         11   -1    0    0    0    0 -0.00000000000E+00 -0.00000000000E+00 -0.45593999997E+02  0.45594000000E+02  0.51100000000E-03 0. -1.
    9900012    2    1    2    0    0 -0.89297266954E+01 -0.97985993972E+01 -0.41326404294E+02  0.47787259674E+02  0.19999948158E+02 0.  0.
        -12    1    1    2    0    0  0.89297266954E+01  0.97985993972E+01  0.41326404294E+02  0.43400740326E+02  0.00000000000E+00 0.  1.
         11    1    3    3    0    0  0.22291679158E+01 -0.92278466449E+01 -0.20961810830E+02  0.23011298460E+02  0.51100000000E-03 0. -1.
        -11    1    3    3    0    0 -0.79279216058E+01 -0.11444235830E+01 -0.59121567302E+01  0.99556639050E+01  0.51100000000E-03 0.  1.
        -12    1    3    3    0    0 -0.32309730054E+01  0.57367083057E+00 -0.14452436734E+02  0.14820297309E+02  0.00000000000E+00 0.  1.
</event>
<event>
 7    1  0.2714068E-010  0.4778727E+02  0.7816164E-02  0.1312668E+00
        -11   -1    0    0    0    0  0.00000000000E+00  0.00000000000E+00  0.45593999997E+02  0.45594000000E+02  0.51100000000E-03 0. -1.
         11   -1    0    0    0    0 -0.00000000000E+00 -0.00000000000E+00 -0.45593999997E+02  0.45594000000E+02  0.51100000000E-03 0.  1.
    9900012    2    1    2    0    0  0.42693086503E+02  0.77383144537E+01 -0.10208048704E+01  0.47787272030E+02  0.20000004494E+02 0.  0.
        -12    1    1    2    0    0 -0.42693086503E+02 -0.77383144537E+01  0.10208048704E+01  0.43400727970E+02  0.00000000000E+00 0.  1.
         11    1    3    3    0    0  0.12037748988E+02 -0.38415393970E+01 -0.33269952658E+01  0.13066511524E+02  0.51100000000E-03 0. -1.
        -11    1    3    3    0    0  0.65882708479E+00 -0.10918907731E+01 -0.14622313625E+01  0.19402060217E+01  0.51100000000E-03 0.  1.
         12    1    3    3    0    0  0.29996510430E+02  0.12671744624E+02  0.37684217579E+01  0.32780554485E+02  0.00000000000E+00 0. -1.
</event>
<event>
 7    1  0.2714068E-010  0.4778727E+02  0.7816164E-02  0.1312668E+00
        -11   -1    0    0    0    0  0.00000000000E+00  0.00000000000E+00  0.45593999997E+02  0.45594000000E+02  0.51100000000E-03 0. -1.
         11   -1    0    0    0    0 -0.00000000000E+00 -0.00000000000E+00 -0.45593999997E+02  0.45594000000E+02  0.51100000000E-03 0.  1.
    9900012    2    1    2    0    0 -0.21166509513E+02  0.15265587382E+02  0.34678006902E+02  0.47787269064E+02  0.19999990972E+02 0.  0.
        -12    1    1    2    0    0  0.21166509513E+02 -0.15265587382E+02 -0.34678006902E+02  0.43400730936E+02  0.00000000000E+00 0.  1.
         11    1    3    3    0    0 -0.13345173847E+02  0.13022272618E+02  0.27797362548E+02  0.33471877957E+02  0.51100000000E-03 0. -1.
        -11    1    3    3    0    0 -0.94451715043E+01 -0.27754752846E+00  0.43987928632E+01  0.10422939906E+02  0.51100000000E-03 0.  1.
         12    1    3    3    0    0  0.16238358379E+01  0.25208622924E+01  0.24818514909E+01  0.38924512005E+01  0.00000000000E+00 0. -1.
</event>
<event>
 7    1  0.2714068E-010  0.4778727E+02  0.7816164E-02  0.1312668E+00
        -11   -1    0    0    0    0  0.00000000000E+00  0.00000000000E+00  0.45593999997E+02  0.45594000000E+02  0.51100000000E-03 0.  1.
         11   -1    0    0    0    0 -0.00000000000E+00 -0.00000000000E+00 -0.45593999997E+02  0.45594000000E+02  0.51100000000E-03 0. -1.
    9900012    2    1    2    0    0 -0.31412265509E+02 -0.25318316462E+02  0.15996128574E+02  0.47787266110E+02  0.19999977500E+02 0.  0.
        -12    1    1    2    0    0  0.31412265509E+02  0.25318316462E+02 -0.15996128574E+02  0.43400733890E+02  0.00000000000E+00 0.  1.
         11    1    3    3    0    0 -0.22102655455E+02 -0.14702513827E+02  0.16131240637E+02  0.31062971779E+02  0.51100000000E-03 0. -1.
        -11    1    3    3    0    0 -0.36657815207E+01 -0.46731124574E+01  0.43683803079E+01  0.73728339851E+01  0.51100000000E-03 0.  1.
         12    1    3    3    0    0 -0.56438285330E+01 -0.59426901781E+01 -0.45034923707E+01  0.93514603456E+01  0.00000000000E+00 0. -1.
</event>
<event>
 7    1  0.2714068E-010  0.4778727E+02  0.7816164E-02  0.1312668E+00
        -11   -1    0    0    0    0  0.00000000000E+00  0.00000000000E+00  0.45593999997E+02  0.45594000000E+02  0.51100000000E-03 0. -1.
         11   -1    0    0    0    0 -0.00000000000E+00 -0.00000000000E+00 -0.45593999997E+02  0.45594000000E+02  0.51100000000E-03 0.  1.
    9900012    2    1    2    0    0 -0.25271826012E+02  0.34617153152E+02  0.68272154988E+01  0.47787270124E+02  0.19999995803E+02 0.  0.
        -12    1    1    2    0    0  0.25271826012E+02 -0.34617153152E+02 -0.68272154988E+01  0.43400729876E+02  0.00000000000E+00 0.  1.
         11    1    3    3    0    0 -0.52114415694E+01  0.13929363136E+02  0.22456799919E+01  0.15040922827E+02  0.51100000000E-03 0. -1.
        -11    1    3    3    0    0 -0.61950082290E+01 -0.82177140457E+00  0.34312539654E+01  0.71293014549E+01  0.51100000000E-03 0.  1.
        -12    1    3    3    0    0 -0.13865376213E+02  0.21509561420E+02  0.11502815415E+01  0.25617045842E+02  0.00000000000E+00 0.  1.
</event>
<event>
 7    1  0.2714068E-010  0.4778727E+02  0.7816164E-02  0.1312668E+00
        -11   -1    0    0    0    0  0.00000000000E+00  0.00000000000E+00  0.45593999997E+02  0.45594000000E+02  0.51100000000E-03 0.  1.
         11   -1    0    0    0    0 -0.00000000000E+00 -0.00000000000E+00 -0.45593999997E+02  0.45594000000E+02  0.51100000000E-03 0. -1.
    9900012    2    1    2    0    0  0.34905471130E+02 -0.63996985737E+01 -0.24985507277E+02  0.47787266935E+02  0.19999981264E+02 0.  0.
        -12    1    1    2    0    0 -0.34905471130E+02  0.63996985737E+01  0.24985507277E+02  0.43400733065E+02  0.00000000000E+00 0.  1.
         11    1    3    3    0    0  0.22968442797E+02 -0.36740875483E+01 -0.19724583451E+02  0.30497663458E+02  0.51100000000E-03 0. -1.
        -11    1    3    3    0    0  0.81722219822E+01  0.60870737444E+00  0.20205066163E+01  0.84402715621E+01  0.51100000000E-03 0.  1.
        -12    1    3    3    0    0  0.37648063514E+01 -0.33343183998E+01 -0.72814304427E+01  0.88493319153E+01  0.00000000000E+00 0.  1.
</event>
<event>
 7    1  0.2714068E-010  0.4778727E+02  0.7816164E-02  0.1312668E+00
        -11   -1    0    0    0    0  0.00000000000E+00  0.00000000000E+00  0.45593999997E+02  0.45594000000E+02  0.51100000000E-03 0.  1.
         11   -1    0    0    0    0 -0.00000000000E+00 -0.00000000000E+00 -0.45593999997E+02  0.45594000000E+02  0.51100000000E-03 0. -1.
    9900012    2    1    2    0    0  0.24880984544E+02  0.29482544668E+02 -0.19883153504E+02  0.47787266997E+02  0.19999981547E+02 0.  0.
        -12    1    1    2    0    0 -0.24880984544E+02 -0.29482544668E+02  0.19883153504E+02  0.43400733003E+02  0.00000000000E+00 0.  1.
         11    1    3    3    0    0  0.17084621759E+02  0.12168836339E+02 -0.37548396198E+01  0.21308770479E+02  0.51100000000E-03 0. -1.
        -11    1    3    3    0    0 -0.17028145611E+01  0.54753050365E+01 -0.55301759462E+01  0.79662656828E+01  0.51100000000E-03 0.  1.
         12    1    3    3    0    0  0.94991773454E+01  0.11838403292E+02 -0.10598137938E+02  0.18512230835E+02  0.00000000000E+00 0. -1.
</event>
<event>
 7    1  0.2714068E-010  0.4778727E+02  0.7816164E-02  0.1312668E+00
        -11   -1    0    0    0    0  0.00000000000E+00  0.00000000000E+00  0.45593999997E+02  0.45594000000E+02  0.51100000000E-03 0.  1.
         11   -1    0    0    0    0 -0.00000000000E+00 -0.00000000000E+00 -0.45593999997E+02  0.45594000000E+02  0.51100000000E-03 0. -1.
    9900012    2    1    2    0    0  0.24450520269E+01  0.32631903850E+01 -0.43208755203E+02  0.47787271698E+02  0.20000002982E+02 0.  0.
        -12    1    1    2    0    0 -0.24450520269E+01 -0.32631903850E+01  0.43208755203E+02  0.43400728302E+02  0.00000000000E+00 0.  1.
         11    1    3    3    0    0  0.22297914775E+01 -0.32547114814E+01 -0.42878357361E+01  0.58267188383E+01  0.51100000000E-03 0. -1.
        -11    1    3    3    0    0 -0.39576539159E+01  0.96560851041E+01 -0.26987147373E+02  0.28934566312E+02  0.51100000000E-03 0.  1.
        -12    1    3    3    0    0  0.41729144653E+01 -0.31381832376E+01 -0.11933772094E+02  0.13025986548E+02  0.00000000000E+00 0.  1.
</event>
<event>
 7    1  0.2714068E-010  0.4778728E+02  0.7816164E-02  0.1312668E+00
        -11   -1    0    0    0    0  0.00000000000E+00  0.00000000000E+00  0.45593999997E+02  0.45594000000E+02  0.51100000000E-03 0.  1.
         11   -1    0    0    0    0 -0.00000000000E+00 -0.00000000000E+00 -0.45593999997E+02  0.45594000000E+02  0.51100000000E-03 0. -1.
    9900012    2    1    2    0    0  0.37679141245E+02  0.21474555448E+02 -0.16577528764E+01  0.47787281558E+02  0.20000047937E+02 0.  0.
        -12    1    1    2    0    0 -0.37679141245E+02 -0.21474555448E+02  0.16577528764E+01  0.43400718442E+02  0.00000000000E+00 0.  1.
         11    1    3    3    0    0  0.32149708582E+01  0.45180942857E+01  0.24048777784E+00  0.55504097350E+01  0.51100000000E-03 0. -1.
        -11    1    3    3    0    0  0.32545418742E+02  0.17487258411E+02  0.28823855875E+01  0.37058286992E+02  0.51100000000E-03 0.  1.
        -12    1    3    3    0    0  0.19187516444E+01 -0.53079724849E+00 -0.47806262418E+01  0.51785848314E+01  0.00000000000E+00 0.  1.
</event>
<event>
 7    1  0.2714068E-010  0.4778727E+02  0.7816164E-02  0.1312668E+00
        -11   -1    0    0    0    0  0.00000000000E+00  0.00000000000E+00  0.45593999997E+02  0.45594000000E+02  0.51100000000E-03 0. -1.
         11   -1    0    0    0    0 -0.00000000000E+00 -0.00000000000E+00 -0.45593999997E+02  0.45594000000E+02  0.51100000000E-03 0.  1.
    9900012    2    1    2    0    0 -0.34520431589E+02 -0.19269780033E+02  0.17906386544E+02  0.47787270758E+02  0.19999998696E+02 0.  0.
        -12    1    1    2    0    0  0.34520431589E+02  0.19269780033E+02 -0.17906386544E+02  0.43400729242E+02  0.00000000000E+00 0.  1.
         11    1    3    3    0    0 -0.59559351025E+01 -0.85489922663E+01  0.12156161297E+02  0.16010330710E+02  0.51100000000E-03 0. -1.
        -11    1    3    3    0    0 -0.24990434767E+02 -0.11432949514E+02  0.41356264911E+01  0.27790962041E+02  0.51100000000E-03 0.  1.
        -12    1    3    3    0    0 -0.35740617203E+01  0.71216174664E+00  0.16145987554E+01  0.39859780073E+01  0.00000000000E+00 0.  1.
</event>
<event>
 7    1  0.2714068E-010  0.4778727E+02  0.7816164E-02  0.1312668E+00
        -11   -1    0    0    0    0  0.00000000000E+00  0.00000000000E+00  0.45593999997E+02  0.45594000000E+02  0.51100000000E-03 0. -1.
         11   -1    0    0    0    0 -0.00000000000E+00 -0.00000000000E+00 -0.45593999997E+02  0.45594000000E+02  0.51100000000E-03 0.  1.
    9900012    2    1    2    0    0  0.24152128856E+02  0.35701620216E+02 -0.50687374813E+01  0.47787272887E+02  0.20000008400E+02 0.  0.
        -12    1    1    2    0    0 -0.24152128856E+02 -0.35701620216E+02  0.50687374813E+01  0.43400727113E+02  0.00000000000E+00 0.  1.
         11    1    3    3    0    0  0.53116835779E+01  0.82767496175E+01  0.78160306789E+00  0.98655699419E+01  0.51100000000E-03 0. -1.
        -11    1    3    3    0    0  0.11590277750E+02  0.53480881815E+01  0.29034592393E+01  0.13090708969E+02  0.51100000000E-03 0.  1.
        -12    1    3    3    0    0  0.72501675281E+01  0.22076782417E+02 -0.87537997884E+01  0.24830993975E+02  0.00000000000E+00 0.  1.
</event>
<event>
 7    1  0.2714068E-010  0.4778727E+02  0.7816164E-02  0.1312668E+00
        -11   -1    0    0    0    0  0.00000000000E+00  0.00000000000E+00  0.45593999997E+02  0.45594000000E+02  0.51100000000E-03 0.  1.
         11   -1    0    0    0    0 -0.00000000000E+00 -0.00000000000E+00 -0.45593999997E+02  0.45594000000E+02  0.51100000000E-03 0. -1.
    9900012    2    1    2    0    0  0.70459479609E+01 -0.39594550053E+02 -0.16317153270E+02  0.47787271119E+02  0.20000000341E+02 0.  0.
        -12    1    1    2    0    0 -0.70459479609E+01  0.39594550053E+02  0.16317153270E+02  0.43400728881E+02  0.00000000000E+00 0.  1.
         11    1    3    3    0    0  0.10132326860E+01 -0.21663852514E+02 -0.84284955042E+01  0.23267760591E+02  0.51100000000E-03 0. -1.
        -11    1    3    3    0    0  0.88176092141E+01 -0.76659894724E+01 -0.74593746880E+00  0.11707862735E+02  0.51100000000E-03 0.  1.
        -12    1    3    3    0    0 -0.27848939392E+01 -0.10264708067E+02 -0.71427202966E+01  0.12811647793E+02  0.00000000000E+00 0.  1.
</event>
<event>
 7    1  0.2714068E-010  0.4778727E+02  0.7816164E-02  0.1312668E+00
        -11   -1    0    0    0    0  0.00000000000E+00  0.00000000000E+00  0.45593999997E+02  0.45594000000E+02  0.51100000000E-03 0.  1.
         11   -1    0    0    0    0 -0.00000000000E+00 -0.00000000000E+00 -0.45593999997E+02  0.45594000000E+02  0.51100000000E-03 0. -1.
    9900012    2    1    2    0    0 -0.67483605801E+01  0.54384204391E+01 -0.42526539706E+02  0.47787269975E+02  0.19999995123E+02 0.  0.
        -12    1    1    2    0    0  0.67483605801E+01 -0.54384204391E+01  0.42526539706E+02  0.43400730025E+02  0.00000000000E+00 0.  1.
         11    1    3    3    0    0 -0.44156831974E+01  0.18271733168E+01 -0.16648819929E+02  0.17321086158E+02  0.51100000000E-03 0. -1.
        -11    1    3    3    0    0 -0.89086550582E+00  0.74431178819E+01 -0.45933277220E+01  0.87916042322E+01  0.51100000000E-03 0.  1.
        -12    1    3    3    0    0 -0.14418118768E+01 -0.38318707597E+01 -0.21284392055E+02  0.21674579584E+02  0.00000000000E+00 0.  1.
</event>
<event>
 7    1  0.2714068E-010  0.4778727E+02  0.7816164E-02  0.1312668E+00
        -11   -1    0    0    0    0  0.00000000000E+00  0.00000000000E+00  0.45593999997E+02  0.45594000000E+02  0.51100000000E-03 0. -1.
         11   -1    0    0    0    0 -0.00000000000E+00 -0.00000000000E+00 -0.45593999997E+02  0.45594000000E+02  0.51100000000E-03 0.  1.
    9900012    2    1    2    0    0  0.32167731756E+02  0.18870333925E+02  0.22198447889E+02  0.47787267778E+02  0.19999985105E+02 0.  0.
        -12    1    1    2    0    0 -0.32167731756E+02 -0.18870333925E+02 -0.22198447889E+02  0.43400732222E+02  0.00000000000E+00 0.  1.
         11    1    3    3    0    0  0.25450499022E+02  0.16120974123E+02  0.23424431071E+02  0.38161730548E+02  0.51100000000E-03 0. -1.
        -11    1    3    3    0    0  0.31821841360E+01  0.38390006604E+01 -0.26679194015E+01  0.56552644624E+01  0.51100000000E-03 0.  1.
         12    1    3    3    0    0  0.35350485978E+01 -0.10896408578E+01  0.14419362195E+01  0.39702727676E+01  0.00000000000E+00 0. -1.
</event>
<event>
 7    1  0.2714068E-010  0.4778727E+02  0.7816164E-02  0.1312668E+00
        -11   -1    0    0    0    0  0.00000000000E+00  0.00000000000E+00  0.45593999997E+02  0.45594000000E+02  0.51100000000E-03 0.  1.
         11   -1    0    0    0    0 -0.00000000000E+00 -0.00000000000E+00 -0.45593999997E+02  0.45594000000E+02  0.51100000000E-03 0. -1.
    9900012    2    1    2    0    0 -0.34031235041E+02 -0.11482571847E+02 -0.24364907319E+02  0.47787272779E+02  0.20000007908E+02 0.  0.
        -12    1    1    2    0    0  0.34031235041E+02  0.11482571847E+02  0.24364907319E+02  0.43400727221E+02  0.00000000000E+00 0.  1.
         11    1    3    3    0    0 -0.15462403052E+02 -0.14763820177E+02 -0.16567474483E+02  0.27046950020E+02  0.51100000000E-03 0. -1.
        -11    1    3    3    0    0 -0.60545564438E+01  0.14222019338E+01 -0.76677319190E+00  0.62664386585E+01  0.51100000000E-03 0.  1.
         12    1    3    3    0    0 -0.12514275545E+02  0.18590463959E+01 -0.70306596435E+01  0.14473884100E+02  0.00000000000E+00 0. -1.
</event>
<event>
 7    1  0.3435039E-010  0.4778727E+02  0.7816164E-02  0.1312668E+00
        -11   -1    0    0    0    0  0.00000000000E+00  0.00000000000E+00  0.45593999997E+02  0.45594000000E+02  0.51100000000E-03 0. -1.
         11   -1    0    0    0    0 -0.00000000000E+00 -0.00000000000E+00 -0.45593999997E+02  0.45594000000E+02  0.51100000000E-03 0.  1.
    9900012    2    1    2    0    0  0.18842920846E+01  0.28968561290E+02  0.32262909461E+02  0.47787269283E+02  0.19999991969E+02 0.  0.
        -12    1    1    2    0    0 -0.18842920846E+01 -0.28968561290E+02 -0.32262909461E+02  0.43400730717E+02  0.00000000000E+00 0.  1.
         11    1    3    3    0    0 -0.46471498982E+00  0.12512902062E+02  0.11001690651E+02  0.16668109535E+02  0.51100000000E-03 0. -1.
        -11    1    3    3    0    0  0.12318481170E+01  0.10498664751E+02  0.22566282292E+02  0.24919400235E+02  0.51100000000E-03 0.  1.
        -12    1    3    3    0    0  0.11171589575E+01  0.59569944764E+01 -0.13050634810E+01  0.61997595129E+01  0.00000000000E+00 0.  1.
</event>
<event>
 7    1  0.2714068E-010  0.4778729E+02  0.7816164E-02  0.1312668E+00
        -11   -1    0    0    0    0  0.00000000000E+00  0.00000000000E+00  0.45593999997E+02  0.45594000000E+02  0.51100000000E-03 0.  1.
         11   -1    0    0    0    0 -0.00000000000E+00 -0.00000000000E+00 -0.45593999997E+02  0.45594000000E+02  0.51100000000E-03 0. -1.
    9900012    2    1    2    0    0 -0.19881571594E+02 -0.18129046167E+02 -0.34054115242E+02  0.47787286079E+02  0.20000068547E+02 0.  0.
        -12    1    1    2    0    0  0.19881571594E+02  0.18129046167E+02  0.34054115242E+02  0.43400713921E+02  0.00000000000E+00 0.  1.
         11    1    3    3    0    0 -0.12207688260E+02 -0.15071266572E+02 -0.33626668107E+02  0.38819113037E+02  0.51100000000E-03 0. -1.
        -11    1    3    3    0    0 -0.73765777138E+01 -0.35555516769E+01 -0.87549028652E+00  0.82354313790E+01  0.51100000000E-03 0.  1.
         12    1    3    3    0    0 -0.29730562035E+00  0.49777208202E+00  0.44804315210E+00  0.73274166231E+00  0.00000000000E+00 0. -1.
</event>
<event>
 7    1  0.2714068E-010  0.4778732E+02  0.7816164E-02  0.1312668E+00
        -11   -1    0    0    0    0  0.00000000000E+00  0.00000000000E+00  0.45593999997E+02  0.45594000000E+02  0.51100000000E-03 0.  1.
         11   -1    0    0    0    0 -0.00000000000E+00 -0.00000000000E+00 -0.45593999997E+02  0.45594000000E+02  0.51100000000E-03 0. -1.
    9900012    2    1    2    0    0  0.12695552281E+02 -0.18761014708E+02 -0.37019815074E+02  0.47787315343E+02  0.20000201973E+02 0.  0.
        -12    1    1    2    0    0 -0.12695552281E+02  0.18761014708E+02  0.37019815074E+02  0.43400684657E+02  0.00000000000E+00 0.  1.
         11    1    3    3    0    0  0.43899462361E+01 -0.53269056194E+01 -0.20095163362E+02  0.21247662042E+02  0.51100000000E-03 0. -1.
        -11    1    3    3    0    0  0.11094141183E+02 -0.86304844168E+01 -0.84289562807E+01  0.16389403104E+02  0.51100000000E-03 0.  1.
        -12    1    3    3    0    0 -0.27885351380E+01 -0.48036246717E+01 -0.84956954316E+01  0.10150250197E+02  0.00000000000E+00 0.  1.
</event>
<event>
 7    1  0.2714068E-010  0.4778727E+02  0.7816164E-02  0.1312668E+00
        -11   -1    0    0    0    0  0.00000000000E+00  0.00000000000E+00  0.45593999997E+02  0.45594000000E+02  0.51100000000E-03 0.  1.
         11   -1    0    0    0    0 -0.00000000000E+00 -0.00000000000E+00 -0.45593999997E+02  0.45594000000E+02  0.51100000000E-03 0. -1.
    9900012    2    1    2    0    0  0.25831088445E+01  0.86080007595E+01 -0.42460019919E+02  0.47787269362E+02  0.19999992328E+02 0.  0.
        -12    1    1    2    0    0 -0.25831088445E+01 -0.86080007595E+01  0.42460019919E+02  0.43400730638E+02  0.00000000000E+00 0.  1.
         11    1    3    3    0    0  0.31812613793E-01  0.87276004879E+01 -0.40598959289E+02  0.41526467680E+02  0.51100000000E-03 0. -1.
        -11    1    3    3    0    0  0.38085275436E+01 -0.31254269434E+00  0.21357250581E+00  0.38272938824E+01  0.51100000000E-03 0.  1.
         12    1    3    3    0    0 -0.12572313129E+01  0.19294296586E+00 -0.20746331359E+01  0.24335077996E+01  0.00000000000E+00 0. -1.
</event>
<event>
 7    1  0.2714068E-010  0.4778727E+02  0.7816164E-02  0.1312668E+00
        -11   -1    0    0    0    0  0.00000000000E+00  0.00000000000E+00  0.45593999997E+02  0.45594000000E+02  0.51100000000E-03 0.  1.
         11   -1    0    0    0    0 -0.00000000000E+00 -0.00000000000E+00 -0.45593999997E+02  0.45594000000E+02  0.51100000000E-03 0. -1.
    9900012    2    1    2    0    0 -0.20260086806E+02 -0.37408220290E+02 -0.85893628753E+01  0.47787271697E+02  0.20000002975E+02 0.  0.
        -12    1    1    2    0    0  0.20260086806E+02  0.37408220290E+02  0.85893628753E+01  0.43400728303E+02  0.00000000000E+00 0.  1.
         11    1    3    3    0    0 -0.14867055203E+02 -0.15481928230E+02 -0.76433695950E+01  0.22784655608E+02  0.51100000000E-03 0. -1.
        -11    1    3    3    0    0  0.18876075304E+01 -0.45880794555E+00  0.11163668542E+01  0.22405004205E+01  0.51100000000E-03 0.  1.
         12    1    3    3    0    0 -0.72806391325E+01 -0.21467484114E+02 -0.20623601345E+01  0.22762115668E+02  0.00000000000E+00 0. -1.
</event>
<event>
 7    1  0.2714068E-010  0.4778728E+02  0.7816164E-02  0.1312668E+00
        -11   -1    0    0    0    0  0.00000000000E+00  0.00000000000E+00  0.45593999997E+02  0.45594000000E+02  0.51100000000E-03 0.  1.
         11   -1    0    0    0    0 -0.00000000000E+00 -0.00000000000E+00 -0.45593999997E+02  0.45594000000E+02  0.51100000000E-03 0. -1.
    9900012    2    1    2    0    0 -0.35579293732E+02  0.23661959451E+02 -0.76058055417E+01  0.47787277132E+02  0.20000027757E+02 0.  0.
        -12    1    1    2    0    0  0.35579293732E+02 -0.23661959451E+02  0.76058055417E+01  0.43400722868E+02  0.00000000000E+00 0.  1.
         11    1    3    3    0    0 -0.84972112547E+00  0.14804854527E+00 -0.29843398968E+01  0.31064818112E+01  0.51100000000E-03 0. -1.
        -11    1    3    3    0    0 -0.16684789475E+02  0.84340946138E+01 -0.90186051557E+01  0.20756960061E+02  0.51100000000E-03 0.  1.
        -12    1    3    3    0    0 -0.18044783132E+02  0.15079816292E+02  0.43971395107E+01  0.23923835260E+02  0.00000000000E+00 0.  1.
</event>
<event>
 7    1  0.2714068E-010  0.4778727E+02  0.7816164E-02  0.1312668E+00
        -11   -1    0    0    0    0  0.00000000000E+00  0.00000000000E+00  0.45593999997E+02  0.45594000000E+02  0.51100000000E-03 0. -1.
         11   -1    0    0    0    0 -0.00000000000E+00 -0.00000000000E+00 -0.45593999997E+02  0.45594000000E+02  0.51100000000E-03 0.  1.
    9900012    2    1    2    0    0 -0.99205421782E+01 -0.16181749531E+02  0.39030207323E+02  0.47787271220E+02  0.20000000799E+02 0.  0.
        -12    1    1    2    0    0  0.99205421782E+01  0.16181749531E+02 -0.39030207323E+02  0.43400728780E+02  0.00000000000E+00 0.  1.
         11    1    3    3    0    0  0.13956453790E+01 -0.11996627828E+02  0.10458886402E+02  0.15976708368E+02  0.51100000000E-03 0. -1.
        -11    1    3    3    0    0  0.99614889820E+00 -0.43534113451E+00  0.28107866409E+01  0.30136947975E+01  0.51100000000E-03 0.  1.
         12    1    3    3    0    0 -0.12312336455E+02 -0.37497805692E+01  0.25760534280E+02  0.28796868054E+02  0.00000000000E+00 0. -1.
</event>
<event>
 7    1  0.2714068E-010  0.4778727E+02  0.7816164E-02  0.1312668E+00
        -11   -1    0    0    0    0  0.00000000000E+00  0.00000000000E+00  0.45593999997E+02  0.45594000000E+02  0.51100000000E-03 0. -1.
         11   -1    0    0    0    0 -0.00000000000E+00 -0.00000000000E+00 -0.45593999997E+02  0.45594000000E+02  0.51100000000E-03 0.  1.
    9900012    2    1    2    0    0  0.22152873131E+02 -0.35585602052E+02 -0.11248925811E+02  0.47787271973E+02  0.20000004235E+02 0.  0.
        -12    1    1    2    0    0 -0.22152873131E+02  0.35585602052E+02  0.11248925811E+02  0.43400728027E+02  0.00000000000E+00 0.  1.
         11    1    3    3    0    0  0.38177682796E+01 -0.54562208435E+01 -0.83987520472E+00  0.67120109617E+01  0.51100000000E-03 0. -1.
        -11    1    3    3    0    0  0.18385673246E+02 -0.23438089567E+02 -0.13587218075E+01  0.29819844877E+02  0.51100000000E-03 0.  1.
        -12    1    3    3    0    0 -0.50568395351E-01 -0.66912916414E+01 -0.90503287991E+01  0.11255416135E+02  0.00000000000E+00 0.  1.
</event>
<event>
 7    1  0.2714068E-010  0.4778727E+02  0.7816164E-02  0.1312668E+00
        -11   -1    0    0    0    0  0.00000000000E+00  0.00000000000E+00  0.45593999997E+02  0.45594000000E+02  0.51100000000E-03 0.  1.
         11   -1    0    0    0    0 -0.00000000000E+00 -0.00000000000E+00 -0.45593999997E+02  0.45594000000E+02  0.51100000000E-03 0. -1.
    9900012    2    1    2    0    0  0.32994262663E+02 -0.10207720782E+00 -0.28195590118E+02  0.47787273156E+02  0.20000009629E+02 0.  0.
        -12    1    1    2    0    0 -0.32994262663E+02  0.10207720782E+00  0.28195590118E+02  0.43400726844E+02  0.00000000000E+00 0.  1.
         11    1    3    3    0    0  0.46809975457E+01 -0.29603014544E+01 -0.12786941268E+02  0.13934883924E+02  0.51100000000E-03 0. -1.
        -11    1    3    3    0    0  0.41604432897E+01 -0.29623805608E+01 -0.12548668100E+01  0.52592468972E+01  0.51100000000E-03 0.  1.
         12    1    3    3    0    0  0.24152821827E+02  0.58206048073E+01 -0.14153782040E+02  0.28593142335E+02  0.00000000000E+00 0. -1.
</event>
<event>
 7    1  0.2714068E-010  0.4778726E+02  0.7816164E-02  0.1312668E+00
        -11   -1    0    0    0    0  0.00000000000E+00  0.00000000000E+00  0.45593999997E+02  0.45594000000E+02  0.51100000000E-03 0.  1.
         11   -1    0    0    0    0 -0.00000000000E+00 -0.00000000000E+00 -0.45593999997E+02  0.45594000000E+02  0.51100000000E-03 0. -1.
    9900012    2    1    2    0    0  0.21068063082E+02 -0.11311089382E+02 -0.36219057072E+02  0.47787261294E+02  0.19999955545E+02 0.  0.
        -12    1    1    2    0    0 -0.21068063082E+02  0.11311089382E+02  0.36219057072E+02  0.43400738706E+02  0.00000000000E+00 0.  1.
         11    1    3    3    0    0  0.22412705925E+02 -0.88993575313E+01 -0.34073971648E+02  0.41744023470E+02  0.51100000000E-03 0. -1.
        -11    1    3    3    0    0 -0.16430309601E+01 -0.42661231995E+00  0.12437999109E+01  0.21044208910E+01  0.51100000000E-03 0.  1.
        -12    1    3    3    0    0  0.29838811682E+00 -0.19851195311E+01 -0.33888853344E+01  0.39388169329E+01  0.00000000000E+00 0.  1.
</event>
<event>
 7    1  0.2714068E-010  0.4778728E+02  0.7816164E-02  0.1312668E+00
        -11   -1    0    0    0    0  0.00000000000E+00  0.00000000000E+00  0.45593999997E+02  0.45594000000E+02  0.51100000000E-03 0. -1.
         11   -1    0    0    0    0 -0.00000000000E+00 -0.00000000000E+00 -0.45593999997E+02  0.45594000000E+02  0.51100000000E-03 0.  1.
    9900012    2    1    2    0    0  0.19770839180E+02  0.38615108480E+02  0.12688561171E+01  0.47787277879E+02  0.20000031161E+02 0.  0.
        -12    1    1    2    0    0 -0.19770839180E+02 -0.38615108480E+02 -0.12688561171E+01  0.43400722121E+02  0.00000000000E+00 0.  1.
         11    1    3    3    0    0  0.86980207813E+01  0.95266408649E+01  0.73090984460E+01  0.14826846328E+02  0.51100000000E-03 0. -1.
        -11    1    3    3    0    0 -0.67222365763E+00  0.19831469717E+01 -0.24179330974E+01  0.31986180268E+01  0.51100000000E-03 0.  1.
         12    1    3    3    0    0  0.11745042057E+02  0.27105320643E+02 -0.36223092315E+01  0.29761813524E+02  0.00000000000E+00 0. -1.
</event>
<event>
 7    1  0.2714068E-010  0.4778727E+02  0.7816164E-02  0.1312668E+00
        -11   -1    0    0    0    0  0.00000000000E+00  0.00000000000E+00  0.45593999997E+02  0.45594000000E+02  0.51100000000E-03 0. -1.
         11   -1    0    0    0    0 -0.00000000000E+00 -0.00000000000E+00 -0.45593999997E+02  0.45594000000E+02  0.51100000000E-03 0.  1.
    9900012    2    1    2    0    0  0.16130898288E+02 -0.40039576393E+02  0.44999685119E+01  0.47787271044E+02  0.19999999996E+02 0.  0.
        -12    1    1    2    0    0 -0.16130898288E+02  0.40039576393E+02 -0.44999685119E+01  0.43400728956E+02  0.00000000000E+00 0.  1.
         11    1    3    3    0    0  0.16504432841E+02 -0.27058849297E+02 -0.67784855087E+00  0.31702320224E+02  0.51100000000E-03 0. -1.
        -11    1    3    3    0    0 -0.39805335820E+01 -0.49689652057E+01  0.13885365071E+01  0.65163867830E+01  0.51100000000E-03 0.  1.
        -12    1    3    3    0    0  0.36069990291E+01 -0.80117618910E+01  0.37892805557E+01  0.95685640367E+01  0.00000000000E+00 0.  1.
</event>
<event>
 7    1  0.2714068E-010  0.4778727E+02  0.7816164E-02  0.1312668E+00
        -11   -1    0    0    0    0  0.00000000000E+00  0.00000000000E+00  0.45593999997E+02  0.45594000000E+02  0.51100000000E-03 0. -1.
         11   -1    0    0    0    0 -0.00000000000E+00 -0.00000000000E+00 -0.45593999997E+02  0.45594000000E+02  0.51100000000E-03 0.  1.
    9900012    2    1    2    0    0 -0.20618626446E+02 -0.18875706782E+02  0.33199445804E+02  0.47787271150E+02  0.20000000480E+02 0.  0.
        -12    1    1    2    0    0  0.20618626446E+02  0.18875706782E+02 -0.33199445804E+02  0.43400728850E+02  0.00000000000E+00 0.  1.
         11    1    3    3    0    0 -0.12031385647E+02 -0.73178876382E+01  0.82123372230E+01  0.16301785270E+02  0.51100000000E-03 0. -1.
        -11    1    3    3    0    0 -0.42077943057E+01 -0.10225692152E+02  0.24502900052E+02  0.26882381296E+02  0.51100000000E-03 0.  1.
        -12    1    3    3    0    0 -0.43794464927E+01 -0.13321269914E+01  0.48420852915E+00  0.46031045831E+01  0.00000000000E+00 0.  1.
</event>
<event>
 7    1  0.2714068E-010  0.4778726E+02  0.7816164E-02  0.1312668E+00
        -11   -1    0    0    0    0  0.00000000000E+00  0.00000000000E+00  0.45593999997E+02  0.45594000000E+02  0.51100000000E-03 0.  1.
         11   -1    0    0    0    0 -0.00000000000E+00 -0.00000000000E+00 -0.45593999997E+02  0.45594000000E+02  0.51100000000E-03 0. -1.
    9900012    2    1    2    0    0  0.15302275967E+02 -0.39379772593E+02 -0.99346831379E+01  0.47787261892E+02  0.19999958270E+02 0.  0.
        -12    1    1    2    0    0 -0.15302275967E+02  0.39379772593E+02  0.99346831379E+01  0.43400738108E+02  0.00000000000E+00 0.  1.
         11    1    3    3    0    0  0.13788180221E+02 -0.24657022303E+02 -0.56089690429E+00  0.28255924480E+02  0.51100000000E-03 0. -1.
        -11    1    3    3    0    0 -0.13483364085E+01 -0.76277831012E+00 -0.40204389032E+01  0.43085694907E+01  0.51100000000E-03 0.  1.
         12    1    3    3    0    0  0.28624321550E+01 -0.13959971981E+02 -0.53533473304E+01  0.15222767921E+02  0.00000000000E+00 0. -1.
</event>
<event>
 7    1  0.2714068E-010  0.4778727E+02  0.7816164E-02  0.1312668E+00
        -11   -1    0    0    0    0  0.00000000000E+00  0.00000000000E+00  0.45593999997E+02  0.45594000000E+02  0.51100000000E-03 0.  1.
         11   -1    0    0    0    0 -0.00000000000E+00 -0.00000000000E+00 -0.45593999997E+02  0.45594000000E+02  0.51100000000E-03 0. -1.
    9900012    2    1    2    0    0  0.16469176027E+02  0.38971294392E+02 -0.96761590117E+01  0.47787267301E+02  0.19999982930E+02 0.  0.
        -12    1    1    2    0    0 -0.16469176027E+02 -0.38971294392E+02  0.96761590117E+01  0.43400732699E+02  0.00000000000E+00 0.  1.
         11    1    3    3    0    0  0.10827595770E+02  0.25653553935E+02 -0.33127613151E+01  0.28041327491E+02  0.51100000000E-03 0. -1.
        -11    1    3    3    0    0 -0.24824737982E+01  0.72054669826E+01 -0.57755439248E+01  0.95623395926E+01  0.51100000000E-03 0.  1.
        -12    1    3    3    0    0  0.81240540556E+01  0.61122734749E+01 -0.58785377188E+00  0.10183600217E+02  0.00000000000E+00 0.  1.
</event>
<event>
 7    1  0.2714068E-010  0.4778727E+02  0.7816164E-02  0.1312668E+00
        -11   -1    0    0    0    0  0.00000000000E+00  0.00000000000E+00  0.45593999997E+02  0.45594000000E+02  0.51100000000E-03 0.  1.
         11   -1    0    0    0    0 -0.00000000000E+00 -0.00000000000E+00 -0.45593999997E+02  0.45594000000E+02  0.51100000000E-03 0. -1.
    9900012    2    1    2    0    0 -0.40654978122E+01  0.21827588439E+02 -0.37291436866E+02  0.47787272437E+02  0.20000006347E+02 0.  0.
        -12    1    1    2    0    0  0.40654978122E+01 -0.21827588439E+02  0.37291436866E+02  0.43400727563E+02  0.00000000000E+00 0.  1.
         11    1    3    3    0    0  0.26891069705E+01  0.17118365978E+02 -0.29750821971E+02  0.34429364767E+02  0.51100000000E-03 0. -1.
        -11    1    3    3    0    0 -0.65111680949E+01  0.23822457145E+00 -0.39586914160E+01  0.76238637773E+01  0.51100000000E-03 0.  1.
        -12    1    3    3    0    0 -0.24343668789E+00  0.44709978894E+01 -0.35819234789E+01  0.57340438921E+01  0.00000000000E+00 0.  1.
</event>
<event>
 7    1  0.2714068E-010  0.4778726E+02  0.7816164E-02  0.1312668E+00
        -11   -1    0    0    0    0  0.00000000000E+00  0.00000000000E+00  0.45593999997E+02  0.45594000000E+02  0.51100000000E-03 0. -1.
         11   -1    0    0    0    0 -0.00000000000E+00 -0.00000000000E+00 -0.45593999997E+02  0.45594000000E+02  0.51100000000E-03 0.  1.
    9900012    2    1    2    0    0 -0.25161613969E+00 -0.88888229611E+01  0.42479991702E+02  0.47787260613E+02  0.19999952440E+02 0.  0.
        -12    1    1    2    0    0  0.25161613969E+00  0.88888229611E+01 -0.42479991702E+02  0.43400739387E+02  0.00000000000E+00 0.  1.
         11    1    3    3    0    0 -0.27307726721E+01 -0.37268699181E+01  0.38430875917E+02  0.38707607815E+02  0.51100000000E-03 0. -1.
        -11    1    3    3    0    0  0.34530697858E+01 -0.59380711831E+01  0.32426985741E+01  0.75960170238E+01  0.51100000000E-03 0.  1.
        -12    1    3    3    0    0 -0.97391325341E+00  0.77611814009E+00  0.80641721063E+00  0.14836357741E+01  0.00000000000E+00 0.  1.
</event>
<event>
 7    1  0.2714068E-010  0.4778728E+02  0.7816164E-02  0.1312668E+00
        -11   -1    0    0    0    0  0.00000000000E+00  0.00000000000E+00  0.45593999997E+02  0.45594000000E+02  0.51100000000E-03 0.  1.
         11   -1    0    0    0    0 -0.00000000000E+00 -0.00000000000E+00 -0.45593999997E+02  0.45594000000E+02  0.51100000000E-03 0. -1.
    9900012    2    1    2    0    0 -0.10760312478E+02 -0.36166539475E+02 -0.21443413573E+02  0.47787275492E+02  0.20000020276E+02 0.  0.
        -12    1    1    2    0    0  0.10760312478E+02  0.36166539475E+02  0.21443413573E+02  0.43400724508E+02  0.00000000000E+00 0.  1.
         11    1    3    3    0    0 -0.51915871172E+01 -0.86515622099E+01 -0.76763384228E+01  0.12677865645E+02  0.51100000000E-03 0. -1.
        -11    1    3    3    0    0  0.18363222513E+01 -0.13612673719E+02 -0.13639386850E+02  0.19357423358E+02  0.51100000000E-03 0.  1.
        -12    1    3    3    0    0 -0.74050476125E+01 -0.13902303546E+02 -0.12768830052E+00  0.15751986488E+02  0.00000000000E+00 0.  1.
</event>
<event>
 7    1  0.2714068E-010  0.4778727E+02  0.7816164E-02  0.1312668E+00
        -11   -1    0    0    0    0  0.00000000000E+00  0.00000000000E+00  0.45593999997E+02  0.45594000000E+02  0.51100000000E-03 0.  1.
         11   -1    0    0    0    0 -0.00000000000E+00 -0.00000000000E+00 -0.45593999997E+02  0.45594000000E+02  0.51100000000E-03 0. -1.
    9900012    2    1    2    0    0 -0.38775573804E+02 -0.74118478053E+01 -0.18031713374E+02  0.47787270756E+02  0.19999998685E+02 0.  0.
        -12    1    1    2    0    0  0.38775573804E+02  0.74118478053E+01  0.18031713374E+02  0.43400729244E+02  0.00000000000E+00 0.  1.
         11    1    3    3    0    0 -0.13308324691E+02  0.56795404681E+01 -0.82764743916E+01  0.16669394549E+02  0.51100000000E-03 0. -1.
        -11    1    3    3    0    0 -0.21265066082E+02 -0.91884132244E+01 -0.10310008933E+02  0.25355990565E+02  0.51100000000E-03 0.  1.
         12    1    3    3    0    0 -0.42021830301E+01 -0.39029750490E+01  0.55476995034E+00  0.57618856418E+01  0.00000000000E+00 0. -1.
</event>
<event>
 7    1  0.2714068E-010  0.4778727E+02  0.7816164E-02  0.1312668E+00
        -11   -1    0    0    0    0  0.00000000000E+00  0.00000000000E+00  0.45593999997E+02  0.45594000000E+02  0.51100000000E-03 0.  1.
         11   -1    0    0    0    0 -0.00000000000E+00 -0.00000000000E+00 -0.45593999997E+02  0.45594000000E+02  0.51100000000E-03 0. -1.
    9900012    2    1    2    0    0  0.36111149287E+02  0.21782068663E+01 -0.23976308989E+02  0.47787273270E+02  0.20000010148E+02 0.  0.
        -12    1    1    2    0    0 -0.36111149287E+02 -0.21782068663E+01  0.23976308989E+02  0.43400726730E+02  0.00000000000E+00 0.  1.
         11    1    3    3    0    0  0.15654773314E+02 -0.58506864731E+01 -0.10421954663E+02  0.19695674626E+02  0.51100000000E-03 0.  1.
        -11    1    3    3    0    0  0.21697018749E+02  0.83537772135E+01 -0.12322367883E+02  0.26313246984E+02  0.51100000000E-03 0. -1.
         12    1    3    3    0    0 -0.12406427768E+01 -0.32488387411E+00 -0.12319864428E+01  0.17783516599E+01  0.00000000000E+00 0. -1.
</event>
<event>
 7    1  0.2714068E-010  0.4778727E+02  0.7816164E-02  0.1312668E+00
        -11   -1    0    0    0    0  0.00000000000E+00  0.00000000000E+00  0.45593999997E+02  0.45594000000E+02  0.51100000000E-03 0.  1.
         11   -1    0    0    0    0 -0.00000000000E+00 -0.00000000000E+00 -0.45593999997E+02  0.45594000000E+02  0.51100000000E-03 0. -1.
    9900012    2    1    2    0    0  0.82399657346E+01 -0.34845113115E+02 -0.24526397084E+02  0.47787273079E+02  0.20000009278E+02 0.  0.
        -12    1    1    2    0    0 -0.82399657346E+01  0.34845113115E+02  0.24526397084E+02  0.43400726921E+02  0.00000000000E+00 0.  1.
         11    1    3    3    0    0  0.53580270572E+01 -0.11319165585E+02 -0.64243212860E+01  0.14074937575E+02  0.51100000000E-03 0. -1.
        -11    1    3    3    0    0 -0.60476168365E+01 -0.14642865971E+02 -0.98860144918E+01  0.18674058906E+02  0.51100000000E-03 0.  1.
        -12    1    3    3    0    0  0.89295555139E+01 -0.88830815594E+01 -0.82160613060E+01  0.15038276598E+02  0.00000000000E+00 0.  1.
</event>
<event>
 7    1  0.2714068E-010  0.4778727E+02  0.7816164E-02  0.1312668E+00
        -11   -1    0    0    0    0  0.00000000000E+00  0.00000000000E+00  0.45593999997E+02  0.45594000000E+02  0.51100000000E-03 0.  1.
         11   -1    0    0    0    0 -0.00000000000E+00 -0.00000000000E+00 -0.45593999997E+02  0.45594000000E+02  0.51100000000E-03 0. -1.
    9900012    2    1    2    0    0  0.98452069199E+01 -0.72266678643E+01 -0.41646973918E+02  0.47787271155E+02  0.20000000506E+02 0.  0.
        -12    1    1    2    0    0 -0.98452069199E+01  0.72266678643E+01  0.41646973918E+02  0.43400728845E+02  0.00000000000E+00 0.  1.
         11    1    3    3    0    0  0.12961396744E+02 -0.70353556959E+01 -0.31648582582E+02  0.34915996549E+02  0.51100000000E-03 0. -1.
        -11    1    3    3    0    0 -0.65080804037E+00 -0.12787801923E+01  0.86719346097E+00  0.16765603614E+01  0.51100000000E-03 0.  1.
         12    1    3    3    0    0 -0.24653817833E+01  0.10874680239E+01 -0.10865584797E+02  0.11194714245E+02  0.00000000000E+00 0. -1.
</event>
<event>
 7    1  0.2714068E-010  0.4778727E+02  0.7816164E-02  0.1312668E+00
        -11   -1    0    0    0    0  0.00000000000E+00  0.00000000000E+00  0.45593999997E+02  0.45594000000E+02  0.51100000000E-03 0.  1.
         11   -1    0    0    0    0 -0.00000000000E+00 -0.00000000000E+00 -0.45593999997E+02  0.45594000000E+02  0.51100000000E-03 0. -1.
    9900012    2    1    2    0    0 -0.33995146972E+02 -0.65284562015E+01 -0.26178856232E+02  0.47787271070E+02  0.20000000118E+02 0.  0.
        -12    1    1    2    0    0  0.33995146972E+02  0.65284562015E+01  0.26178856232E+02  0.43400728930E+02  0.00000000000E+00 0.  1.
         11    1    3    3    0    0 -0.11175177501E+02 -0.95905771078E+01 -0.14105950252E+02  0.20392194443E+02  0.51100000000E-03 0. -1.
        -11    1    3    3    0    0 -0.13739463412E+01  0.27278960203E+01 -0.23074558012E+01  0.38279887385E+01  0.51100000000E-03 0.  1.
         12    1    3    3    0    0 -0.21446023130E+02  0.33422488597E+00 -0.97654501785E+01  0.23567087888E+02  0.00000000000E+00 0. -1.
</event>
<event>
 7    1  0.2714068E-010  0.4778727E+02  0.7816164E-02  0.1312668E+00
        -11   -1    0    0    0    0  0.00000000000E+00  0.00000000000E+00  0.45593999997E+02  0.45594000000E+02  0.51100000000E-03 0.  1.
         11   -1    0    0    0    0 -0.00000000000E+00 -0.00000000000E+00 -0.45593999997E+02  0.45594000000E+02  0.51100000000E-03 0. -1.
    9900012    2    1    2    0    0 -0.27353663879E+02 -0.78047469242E+01 -0.32779356264E+02  0.47787271904E+02  0.20000003921E+02 0.  0.
        -12    1    1    2    0    0  0.27353663879E+02  0.78047469242E+01  0.32779356264E+02  0.43400728096E+02  0.00000000000E+00 0.  1.
         11    1    3    3    0    0 -0.21486141585E+02 -0.60584668597E+01 -0.25466717785E+02  0.33866104233E+02  0.51100000000E-03 0. -1.
        -11    1    3    3    0    0  0.20002945225E+01 -0.11491525413E+01 -0.52967075513E+01  0.57772693278E+01  0.51100000000E-03 0.  1.
        -12    1    3    3    0    0 -0.78678168163E+01 -0.59712752324E+00 -0.20159309278E+01  0.81438983442E+01  0.00000000000E+00 0.  1.
</event>
<event>
 7    1  0.2714068E-010  0.4778727E+02  0.7816164E-02  0.1312668E+00
        -11   -1    0    0    0    0  0.00000000000E+00  0.00000000000E+00  0.45593999997E+02  0.45594000000E+02  0.51100000000E-03 0.  1.
         11   -1    0    0    0    0 -0.00000000000E+00 -0.00000000000E+00 -0.45593999997E+02  0.45594000000E+02  0.51100000000E-03 0. -1.
    9900012    2    1    2    0    0  0.22022050564E+01 -0.16188189262E+02 -0.40208409343E+02  0.47787270045E+02  0.19999995444E+02 0.  0.
        -12    1    1    2    0    0 -0.22022050564E+01  0.16188189262E+02  0.40208409343E+02  0.43400729955E+02  0.00000000000E+00 0.  1.
         11    1    3    3    0    0 -0.20056605415E+01 -0.14704415351E+02 -0.39562304990E+02  0.42254212587E+02  0.51100000000E-03 0. -1.
        -11    1    3    3    0    0  0.13994883741E+01 -0.14421720657E+01  0.10342303408E+01  0.22601019082E+01  0.51100000000E-03 0.  1.
         12    1    3    3    0    0  0.28083772238E+01 -0.41601844965E-01 -0.16803346946E+01  0.32729555497E+01  0.00000000000E+00 0. -1.
</event>
<event>
 7    1  0.2714068E-010  0.4778726E+02  0.7816164E-02  0.1312668E+00
        -11   -1    0    0    0    0  0.00000000000E+00  0.00000000000E+00  0.45593999997E+02  0.45594000000E+02  0.51100000000E-03 0. -1.
         11   -1    0    0    0    0 -0.00000000000E+00 -0.00000000000E+00 -0.45593999997E+02  0.45594000000E+02  0.51100000000E-03 0.  1.
    9900012    2    1    2    0    0 -0.18814583565E+02 -0.18564875927E+02  0.34423549040E+02  0.47787263815E+02  0.19999967039E+02 0.  0.
        -12    1    1    2    0    0  0.18814583565E+02  0.18564875927E+02 -0.34423549040E+02  0.43400736185E+02  0.00000000000E+00 0.  1.
         11    1    3    3    0    0 -0.61880654197E+01 -0.12519677950E+02  0.21197300093E+02  0.25384247499E+02  0.51100000000E-03 0. -1.
        -11    1    3    3    0    0 -0.14123280219E+02 -0.45851539403E+01  0.13760875251E+02  0.20244810909E+02  0.51100000000E-03 0.  1.
        -12    1    3    3    0    0  0.14967620743E+01 -0.14600440370E+01 -0.53462630342E+00  0.21582054076E+01  0.00000000000E+00 0.  1.
</event>
<event>
 7    1  0.2714068E-010  0.4778727E+02  0.7816164E-02  0.1312668E+00
        -11   -1    0    0    0    0  0.00000000000E+00  0.00000000000E+00  0.45593999997E+02  0.45594000000E+02  0.51100000000E-03 0.  1.
         11   -1    0    0    0    0 -0.00000000000E+00 -0.00000000000E+00 -0.45593999997E+02  0.45594000000E+02  0.51100000000E-03 0. -1.
    9900012    2    1    2    0    0  0.39513540296E+02 -0.16107996891E+02 -0.79268985768E+01  0.47787272453E+02  0.20000006422E+02 0.  0.
        -12    1    1    2    0    0 -0.39513540296E+02  0.16107996891E+02  0.79268985768E+01  0.43400727547E+02  0.00000000000E+00 0.  1.
         11    1    3    3    0    0  0.60463897634E+01 -0.15041774055E+01 -0.10959088562E+01  0.63263255781E+01  0.51100000000E-03 0. -1.
        -11    1    3    3    0    0  0.48067710959E+01 -0.46398208185E+01  0.55537734817E+01  0.86877721968E+01  0.51100000000E-03 0.  1.
        -12    1    3    3    0    0  0.28660379437E+02 -0.99639986666E+01 -0.12384763202E+02  0.32773174678E+02  0.00000000000E+00 0.  1.
</event>
<event>
 7    1  0.2714068E-010  0.4778728E+02  0.7816164E-02  0.1312668E+00
        -11   -1    0    0    0    0  0.00000000000E+00  0.00000000000E+00  0.45593999997E+02  0.45594000000E+02  0.51100000000E-03 0.  1.
         11   -1    0    0    0    0 -0.00000000000E+00 -0.00000000000E+00 -0.45593999997E+02  0.45594000000E+02  0.51100000000E-03 0. -1.
    9900012    2    1    2    0    0  0.17793608608E+02 -0.17664576843E+02 -0.35425592875E+02  0.47787280964E+02  0.20000045228E+02 0.  0.
        -12    1    1    2    0    0 -0.17793608608E+02  0.17664576843E+02  0.35425592875E+02  0.43400719036E+02  0.00000000000E+00 0.  1.
         11    1    3    3    0    0  0.12718386598E+02 -0.15242702178E+02 -0.19227966134E+02  0.27637149080E+02  0.51100000000E-03 0. -1.
        -11    1    3    3    0    0  0.13526126026E+01  0.39370245698E+01 -0.86636954510E+01  0.96119374969E+01  0.51100000000E-03 0.  1.
        -12    1    3    3    0    0  0.37226094065E+01 -0.63588992340E+01 -0.75339312899E+01  0.10538194387E+02  0.00000000000E+00 0.  1.
</event>
<event>
 7    1  0.2714068E-010  0.4778727E+02  0.7816164E-02  0.1312668E+00
        -11   -1    0    0    0    0  0.00000000000E+00  0.00000000000E+00  0.45593999997E+02  0.45594000000E+02  0.51100000000E-03 0.  1.
         11   -1    0    0    0    0 -0.00000000000E+00 -0.00000000000E+00 -0.45593999997E+02  0.45594000000E+02  0.51100000000E-03 0. -1.
    9900012    2    1    2    0    0  0.28375551185E+02  0.17880356365E+02 -0.27545315586E+02  0.47787268906E+02  0.19999990250E+02 0.  0.
        -12    1    1    2    0    0 -0.28375551185E+02 -0.17880356365E+02  0.27545315586E+02  0.43400731094E+02  0.00000000000E+00 0.  1.
         11    1    3    3    0    0  0.66341793504E+01  0.71325915325E+01 -0.14349318029E+02  0.17343273214E+02  0.51100000000E-03 0. -1.
        -11    1    3    3    0    0  0.62872827931E+01  0.26175031259E+01  0.22071331555E+01  0.71590980271E+01  0.51100000000E-03 0.  1.
        -12    1    3    3    0    0  0.15454089041E+02  0.81302617066E+01 -0.15403130713E+02  0.23284897665E+02  0.00000000000E+00 0.  1.
</event>
<event>
 7    1  0.2714068E-010  0.4778730E+02  0.7816164E-02  0.1312668E+00
        -11   -1    0    0    0    0  0.00000000000E+00  0.00000000000E+00  0.45593999997E+02  0.45594000000E+02  0.51100000000E-03 0.  1.
         11   -1    0    0    0    0 -0.00000000000E+00 -0.00000000000E+00 -0.45593999997E+02  0.45594000000E+02  0.51100000000E-03 0. -1.
    9900012    2    1    2    0    0  0.76599809862E+01 -0.26196395639E+02 -0.33744546499E+02  0.47787298720E+02  0.20000126183E+02 0.  0.
        -12    1    1    2    0    0 -0.76599809862E+01  0.26196395639E+02  0.33744546499E+02  0.43400701280E+02  0.00000000000E+00 0.  1.
         11    1    3    3    0    0  0.10994623988E+01 -0.14570191636E+01 -0.68265038667E+01  0.70663199554E+01  0.51100000000E-03 0. -1.
        -11    1    3    3    0    0 -0.66371544371E+00  0.23299706325E+01 -0.12609352666E+01  0.27311608056E+01  0.51100000000E-03 0.  1.
        -12    1    3    3    0    0  0.72242340311E+01 -0.27069347108E+02 -0.25657107366E+02  0.37989817959E+02  0.00000000000E+00 0.  1.
</event>
<event>
 7    1  0.2714068E-010  0.4778727E+02  0.7816164E-02  0.1312668E+00
        -11   -1    0    0    0    0  0.00000000000E+00  0.00000000000E+00  0.45593999997E+02  0.45594000000E+02  0.51100000000E-03 0.  1.
         11   -1    0    0    0    0 -0.00000000000E+00 -0.00000000000E+00 -0.45593999997E+02  0.45594000000E+02  0.51100000000E-03 0. -1.
    9900012    2    1    2    0    0  0.20113073959E+01 -0.11076732503E+02 -0.41915200963E+02  0.47787269221E+02  0.19999991685E+02 0.  0.
        -12    1    1    2    0    0 -0.20113073959E+01  0.11076732503E+02  0.41915200963E+02  0.43400730779E+02  0.00000000000E+00 0.  1.
         11    1    3    3    0    0  0.34494057797E+01 -0.16422336026E+02 -0.27300470118E+02  0.32045392643E+02  0.51100000000E-03 0. -1.
        -11    1    3    3    0    0 -0.15877312548E+01  0.31939786716E+01 -0.74551959397E+01  0.82645227965E+01  0.51100000000E-03 0.  1.
         12    1    3    3    0    0  0.14963287103E+00  0.21516248512E+01 -0.71595349059E+01  0.74773537809E+01  0.00000000000E+00 0. -1.
</event>
<event>
 7    1  0.2714068E-010  0.4778727E+02  0.7816164E-02  0.1312668E+00
        -11   -1    0    0    0    0  0.00000000000E+00  0.00000000000E+00  0.45593999997E+02  0.45594000000E+02  0.51100000000E-03 0.  1.
         11   -1    0    0    0    0 -0.00000000000E+00 -0.00000000000E+00 -0.45593999997E+02  0.45594000000E+02  0.51100000000E-03 0. -1.
    9900012    2    1    2    0    0  0.22809849830E+02  0.24170284627E+02 -0.27912926707E+02  0.47787269758E+02  0.19999994134E+02 0.  0.
        -12    1    1    2    0    0 -0.22809849830E+02 -0.24170284627E+02  0.27912926707E+02  0.43400730242E+02  0.00000000000E+00 0.  1.
         11    1    3    3    0    0  0.54834878009E+01  0.12571754560E+02 -0.34304191724E+01  0.14138084281E+02  0.51100000000E-03 0. -1.
        -11    1    3    3    0    0  0.10907346207E+02  0.17319682759E+01 -0.92994856684E+01  0.14437809715E+02  0.51100000000E-03 0.  1.
         12    1    3    3    0    0  0.64190158218E+01  0.98665617915E+01 -0.15183021866E+02  0.19211375762E+02  0.00000000000E+00 0. -1.
</event>
<event>
 7    1  0.2714068E-010  0.4778727E+02  0.7816164E-02  0.1312668E+00
        -11   -1    0    0    0    0  0.00000000000E+00  0.00000000000E+00  0.45593999997E+02  0.45594000000E+02  0.51100000000E-03 0. -1.
         11   -1    0    0    0    0 -0.00000000000E+00 -0.00000000000E+00 -0.45593999997E+02  0.45594000000E+02  0.51100000000E-03 0.  1.
    9900012    2    1    2    0    0  0.35314493657E+02 -0.33231393213E+01  0.25009328447E+02  0.47787271589E+02  0.20000002483E+02 0.  0.
        -12    1    1    2    0    0 -0.35314493657E+02  0.33231393213E+01 -0.25009328447E+02  0.43400728411E+02  0.00000000000E+00 0.  1.
         11    1    3    3    0    0  0.22708990218E+02 -0.78929809858E-01  0.58096809999E+01  0.23440496160E+02  0.51100000000E-03 0. -1.
        -11    1    3    3    0    0  0.27822062915E+01  0.10487803885E+01  0.92667640071E+01  0.97320875241E+01  0.51100000000E-03 0.  1.
         12    1    3    3    0    0  0.98232971481E+01 -0.42929898999E+01  0.99328834401E+01  0.14614687906E+02  0.00000000000E+00 0. -1.
</event>
<event>
 7    1  0.2714068E-010  0.4778728E+02  0.7816164E-02  0.1312668E+00
        -11   -1    0    0    0    0  0.00000000000E+00  0.00000000000E+00  0.45593999997E+02  0.45594000000E+02  0.51100000000E-03 0.  1.
         11   -1    0    0    0    0 -0.00000000000E+00 -0.00000000000E+00 -0.45593999997E+02  0.45594000000E+02  0.51100000000E-03 0. -1.
    9900012    2    1    2    0    0  0.58884966802E+01  0.95506775073E+01 -0.41925325900E+02  0.47787276667E+02  0.20000025637E+02 0.  0.
        -12    1    1    2    0    0 -0.58884966802E+01 -0.95506775073E+01  0.41925325900E+02  0.43400723333E+02  0.00000000000E+00 0.  1.
         11    1    3    3    0    0  0.57018268141E+01  0.14211407506E+00 -0.13806722894E+02  0.14938427720E+02  0.51100000000E-03 0.  1.
        -11    1    3    3    0    0  0.96768326727E+00  0.13106792698E+02 -0.20634192360E+02  0.24464143564E+02  0.51100000000E-03 0. -1.
        -12    1    3    3    0    0 -0.78101340119E+00 -0.36982292656E+01 -0.74844106462E+01  0.83847053826E+01  0.00000000000E+00 0.  1.
</event>
<event>
 7    1  0.2714068E-010  0.4778727E+02  0.7816164E-02  0.1312668E+00
        -11   -1    0    0    0    0  0.00000000000E+00  0.00000000000E+00  0.45593999997E+02  0.45594000000E+02  0.51100000000E-03 0. -1.
         11   -1    0    0    0    0 -0.00000000000E+00 -0.00000000000E+00 -0.45593999997E+02  0.45594000000E+02  0.51100000000E-03 0.  1.
    9900012    2    1    2    0    0  0.34595862243E+02 -0.22976483166E+02  0.12602811704E+02  0.47787270446E+02  0.19999997270E+02 0.  0.
        -12    1    1    2    0    0 -0.34595862243E+02  0.22976483166E+02 -0.12602811704E+02  0.43400729554E+02  0.00000000000E+00 0.  1.
         11    1    3    3    0    0  0.17751865613E+02 -0.13721574148E+02  0.73087339173E+01  0.23597201562E+02  0.51100000000E-03 0. -1.
        -11    1    3    3    0    0  0.27029315522E+01 -0.19797872404E+00  0.68095360310E+01  0.73290392119E+01  0.51100000000E-03 0.  1.
        -12    1    3    3    0    0  0.14141065078E+02 -0.90569302939E+01 -0.15154582446E+01  0.16861029672E+02  0.00000000000E+00 0.  1.
</event>
<event>
 7    1  0.2714068E-010  0.4778727E+02  0.7816164E-02  0.1312668E+00
        -11   -1    0    0    0    0  0.00000000000E+00  0.00000000000E+00  0.45593999997E+02  0.45594000000E+02  0.51100000000E-03 0.  1.
         11   -1    0    0    0    0 -0.00000000000E+00 -0.00000000000E+00 -0.45593999997E+02  0.45594000000E+02  0.51100000000E-03 0. -1.
    9900012    2    1    2    0    0 -0.25878732678E+02 -0.70547580594E+01 -0.34119570565E+02  0.47787268303E+02  0.19999987500E+02 0.  0.
        -12    1    1    2    0    0  0.25878732678E+02  0.70547580594E+01  0.34119570565E+02  0.43400731697E+02  0.00000000000E+00 0.  1.
         11    1    3    3    0    0 -0.64541085634E+01 -0.58474187963E+01 -0.17662506695E+02  0.19692942059E+02  0.51100000000E-03 0. -1.
        -11    1    3    3    0    0  0.12724161837E+00  0.21931168490E+01  0.17117152463E+00  0.22034636132E+01  0.51100000000E-03 0.  1.
        -12    1    3    3    0    0 -0.19551865733E+02 -0.34004561120E+01 -0.16628235394E+02  0.25890862630E+02  0.00000000000E+00 0.  1.
</event>
<event>
 7    1  0.2714068E-010  0.4778727E+02  0.7816164E-02  0.1312668E+00
        -11   -1    0    0    0    0  0.00000000000E+00  0.00000000000E+00  0.45593999997E+02  0.45594000000E+02  0.51100000000E-03 0. -1.
         11   -1    0    0    0    0 -0.00000000000E+00 -0.00000000000E+00 -0.45593999997E+02  0.45594000000E+02  0.51100000000E-03 0.  1.
    9900012    2    1    2    0    0 -0.66493156952E+01  0.12330418724E+02  0.41077617984E+02  0.47787270463E+02  0.19999997348E+02 0.  0.
        -12    1    1    2    0    0  0.66493156952E+01 -0.12330418724E+02 -0.41077617984E+02  0.43400729537E+02  0.00000000000E+00 0.  1.
         11    1    3    3    0    0 -0.15825136513E+01  0.11525251579E+02  0.20190483412E+02  0.23302175737E+02  0.51100000000E-03 0. -1.
        -11    1    3    3    0    0 -0.29711315562E+01  0.55815960974E+01  0.60239541390E+01  0.87332617875E+01  0.51100000000E-03 0.  1.
         12    1    3    3    0    0 -0.20956704876E+01 -0.47764289524E+01  0.14863180433E+02  0.15751832938E+02  0.00000000000E+00 0. -1.
</event>
<event>
 7    1  0.2714068E-010  0.4778727E+02  0.7816164E-02  0.1312668E+00
        -11   -1    0    0    0    0  0.00000000000E+00  0.00000000000E+00  0.45593999997E+02  0.45594000000E+02  0.51100000000E-03 0.  1.
         11   -1    0    0    0    0 -0.00000000000E+00 -0.00000000000E+00 -0.45593999997E+02  0.45594000000E+02  0.51100000000E-03 0. -1.
    9900012    2    1    2    0    0 -0.97175548190E+01  0.51758577613E+01 -0.41980983633E+02  0.47787270029E+02  0.19999995372E+02 0.  0.
        -12    1    1    2    0    0  0.97175548190E+01 -0.51758577613E+01  0.41980983633E+02  0.43400729971E+02  0.00000000000E+00 0.  1.
         11    1    3    3    0    0 -0.64334505518E+01 -0.30514682504E+01 -0.66673960188E+01  0.97547380497E+01  0.51100000000E-03 0. -1.
        -11    1    3    3    0    0 -0.34686755146E+01  0.98738765161E+01 -0.19486621619E+02  0.22119077053E+02  0.51100000000E-03 0.  1.
         12    1    3    3    0    0  0.18457124732E+00 -0.16465505044E+01 -0.15826965995E+02  0.15913454927E+02  0.00000000000E+00 0. -1.
</event>
<event>
 7    1  0.2714068E-010  0.4778727E+02  0.7816164E-02  0.1312668E+00
        -11   -1    0    0    0    0  0.00000000000E+00  0.00000000000E+00  0.45593999997E+02  0.45594000000E+02  0.51100000000E-03 0. -1.
         11   -1    0    0    0    0 -0.00000000000E+00 -0.00000000000E+00 -0.45593999997E+02  0.45594000000E+02  0.51100000000E-03 0.  1.
    9900012    2    1    2    0    0  0.70739429348E+01  0.40507331600E+02  0.13883027554E+02  0.47787273784E+02  0.20000012492E+02 0.  0.
        -12    1    1    2    0    0 -0.70739429348E+01 -0.40507331600E+02 -0.13883027554E+02  0.43400726216E+02  0.00000000000E+00 0.  1.
         11    1    3    3    0    0 -0.42439626813E+00  0.27780663168E+02  0.15041491252E+02  0.31594173792E+02  0.51100000000E-03 0. -1.
        -11    1    3    3    0    0  0.65796098734E+01  0.12753634274E+02  0.43068276678E+00  0.14357295748E+02  0.51100000000E-03 0.  1.
         12    1    3    3    0    0  0.91872932950E+00 -0.26965841690E-01 -0.15891464651E+01  0.18358042448E+01  0.00000000000E+00 0. -1.
</event>
<event>
 7    1  0.2714068E-010  0.4778727E+02  0.7816164E-02  0.1312668E+00
        -11   -1    0    0    0    0  0.00000000000E+00  0.00000000000E+00  0.45593999997E+02  0.45594000000E+02  0.51100000000E-03 0. -1.
         11   -1    0    0    0    0 -0.00000000000E+00 -0.00000000000E+00 -0.45593999997E+02  0.45594000000E+02  0.51100000000E-03 0.  1.
    9900012    2    1    2    0    0  0.21288062601E+01 -0.43064765071E+02  0.49515108666E+01  0.47787271129E+02  0.20000000386E+02 0.  0.
        -12    1    1    2    0    0 -0.21288062601E+01  0.43064765071E+02 -0.49515108666E+01  0.43400728871E+02  0.00000000000E+00 0.  1.
         11    1    3    3    0    0 -0.68447791165E+01 -0.27834007124E+02  0.59764638893E+01  0.29279704141E+02  0.51100000000E-03 0. -1.
        -11    1    3    3    0    0  0.44530317193E+01 -0.12306849175E+02 -0.48293664856E+00  0.13096612393E+02  0.51100000000E-03 0.  1.
         12    1    3    3    0    0  0.45205536573E+01 -0.29239087717E+01 -0.54201637414E+00  0.54109545945E+01  0.00000000000E+00 0. -1.
</event>
<event>
 7    1  0.2714068E-010  0.4778727E+02  0.7816164E-02  0.1312668E+00
        -11   -1    0    0    0    0  0.00000000000E+00  0.00000000000E+00  0.45593999997E+02  0.45594000000E+02  0.51100000000E-03 0.  1.
         11   -1    0    0    0    0 -0.00000000000E+00 -0.00000000000E+00 -0.45593999997E+02  0.45594000000E+02  0.51100000000E-03 0. -1.
    9900012    2    1    2    0    0 -0.36510605587E+02 -0.19166715765E+02 -0.13536472061E+02  0.47787269713E+02  0.19999993931E+02 0.  0.
        -12    1    1    2    0    0  0.36510605587E+02  0.19166715765E+02  0.13536472061E+02  0.43400730287E+02  0.00000000000E+00 0.  1.
         11    1    3    3    0    0 -0.69964747018E+01 -0.71225323141E+01 -0.12162104113E+02  0.15735243930E+02  0.51100000000E-03 0. -1.
        -11    1    3    3    0    0 -0.25633321763E+02 -0.10475208401E+02 -0.15305811587E+00  0.27691525828E+02  0.51100000000E-03 0.  1.
         12    1    3    3    0    0 -0.38808091226E+01 -0.15689750497E+01 -0.12213098323E+01  0.43604999552E+01  0.00000000000E+00 0. -1.
</event>
<event>
 7    1  0.2714068E-010  0.4778728E+02  0.7816164E-02  0.1312668E+00
        -11   -1    0    0    0    0  0.00000000000E+00  0.00000000000E+00  0.45593999997E+02  0.45594000000E+02  0.51100000000E-03 0. -1.
         11   -1    0    0    0    0 -0.00000000000E+00 -0.00000000000E+00 -0.45593999997E+02  0.45594000000E+02  0.51100000000E-03 0.  1.
    9900012    2    1    2    0    0 -0.42106249532E+01 -0.31823664572E+01  0.43078597189E+02  0.47787281636E+02  0.20000048291E+02 0.  0.
        -12    1    1    2    0    0  0.42106249532E+01  0.31823664572E+01 -0.43078597189E+02  0.43400718364E+02  0.00000000000E+00 0.  1.
         11    1    3    3    0    0 -0.10455798600E+02 -0.98105040509E+00  0.28740829368E+02  0.30599370210E+02  0.51100000000E-03 0. -1.
        -11    1    3    3    0    0  0.73034648795E+00 -0.21093339703E+01  0.49450951917E+00  0.22863148769E+01  0.51100000000E-03 0.  1.
         12    1    3    3    0    0  0.55148271590E+01 -0.91982081843E-01  0.13843258302E+02  0.14901596549E+02  0.00000000000E+00 0. -1.
</event>
<event>
 7    1  0.2714068E-010  0.4778726E+02  0.7816164E-02  0.1312668E+00
        -11   -1    0    0    0    0  0.00000000000E+00  0.00000000000E+00  0.45593999997E+02  0.45594000000E+02  0.51100000000E-03 0.  1.
         11   -1    0    0    0    0 -0.00000000000E+00 -0.00000000000E+00 -0.45593999997E+02  0.45594000000E+02  0.51100000000E-03 0. -1.
    9900012    2    1    2    0    0 -0.32654731568E+02 -0.26834197095E+02  0.98599471379E+01  0.47787260547E+02  0.19999952137E+02 0.  0.
        -12    1    1    2    0    0  0.32654731568E+02  0.26834197095E+02 -0.98599471379E+01  0.43400739453E+02  0.00000000000E+00 0.  1.
         11    1    3    3    0    0 -0.33370721358E+02 -0.19316375034E+02  0.90440980899E+01  0.39604584317E+02  0.51100000000E-03 0. -1.
        -11    1    3    3    0    0  0.14198408678E+01 -0.16733066491E+01 -0.21990415998E+00  0.22055070466E+01  0.51100000000E-03 0.  1.
         12    1    3    3    0    0 -0.70385107826E+00 -0.58445154117E+01  0.10357532080E+01  0.59771691833E+01  0.00000000000E+00 0. -1.
</event>
<event>
 7    1  0.2714068E-010  0.4778727E+02  0.7816164E-02  0.1312668E+00
        -11   -1    0    0    0    0  0.00000000000E+00  0.00000000000E+00  0.45593999997E+02  0.45594000000E+02  0.51100000000E-03 0.  1.
         11   -1    0    0    0    0 -0.00000000000E+00 -0.00000000000E+00 -0.45593999997E+02  0.45594000000E+02  0.51100000000E-03 0. -1.
    9900012    2    1    2    0    0  0.33926161422E+02  0.15587216331E+02 -0.22128656767E+02  0.47787271986E+02  0.20000004293E+02 0.  0.
        -12    1    1    2    0    0 -0.33926161422E+02 -0.15587216331E+02  0.22128656767E+02  0.43400728014E+02  0.00000000000E+00 0.  1.
         11    1    3    3    0    0  0.59715573947E+01 -0.37896116327E+00 -0.28788667508E+01  0.66401041642E+01  0.51100000000E-03 0. -1.
        -11    1    3    3    0    0 -0.21685082684E+01  0.13442201204E+01 -0.56406769005E-01  0.25519674424E+01  0.51100000000E-03 0.  1.
        -12    1    3    3    0    0  0.30123112296E+02  0.14621957374E+02 -0.19193383248E+02  0.38595200380E+02  0.00000000000E+00 0.  1.
</event>
<event>
 7    1  0.2714068E-010  0.4778727E+02  0.7816164E-02  0.1312668E+00
        -11   -1    0    0    0    0  0.00000000000E+00  0.00000000000E+00  0.45593999997E+02  0.45594000000E+02  0.51100000000E-03 0.  1.
         11   -1    0    0    0    0 -0.00000000000E+00 -0.00000000000E+00 -0.45593999997E+02  0.45594000000E+02  0.51100000000E-03 0. -1.
    9900012    2    1    2    0    0  0.31805861546E+02  0.45796091229E+01 -0.29172546607E+02  0.47787272772E+02  0.20000007874E+02 0.  0.
        -12    1    1    2    0    0 -0.31805861546E+02 -0.45796091229E+01  0.29172546607E+02  0.43400727228E+02  0.00000000000E+00 0.  1.
         11    1    3    3    0    0  0.12221802887E+02  0.56587790923E+01 -0.15976048095E+01  0.13562691031E+02  0.51100000000E-03 0.  1.
        -11    1    3    3    0    0  0.92484582973E+01 -0.29551891026E+01 -0.11953718797E+02  0.15399951846E+02  0.51100000000E-03 0. -1.
         12    1    3    3    0    0  0.10335600362E+02  0.18760191331E+01 -0.15621223001E+02  0.18824629895E+02  0.00000000000E+00 0. -1.
</event>
<event>
 7    1  0.2714068E-010  0.4778727E+02  0.7816164E-02  0.1312668E+00
        -11   -1    0    0    0    0  0.00000000000E+00  0.00000000000E+00  0.45593999997E+02  0.45594000000E+02  0.51100000000E-03 0.  1.
         11   -1    0    0    0    0 -0.00000000000E+00 -0.00000000000E+00 -0.45593999997E+02  0.45594000000E+02  0.51100000000E-03 0. -1.
    9900012    2    1    2    0    0 -0.21702653019E+02 -0.11718801901E+02 -0.35711178265E+02  0.47787265914E+02  0.19999976610E+02 0.  0.
        -12    1    1    2    0    0  0.21702653019E+02  0.11718801901E+02  0.35711178265E+02  0.43400734086E+02  0.00000000000E+00 0.  1.
         11    1    3    3    0    0 -0.14387005454E+02 -0.51071081976E+01 -0.31171422192E+02  0.34709163657E+02  0.51100000000E-03 0. -1.
        -11    1    3    3    0    0 -0.55354861224E+01 -0.40631626094E+01  0.78595388650E+00  0.69114847011E+01  0.51100000000E-03 0.  1.
        -12    1    3    3    0    0 -0.17801614424E+01 -0.25485310944E+01 -0.53257099603E+01  0.61666175559E+01  0.00000000000E+00 0.  1.
</event>
<event>
 7    1  0.2714068E-010  0.4778727E+02  0.7816164E-02  0.1312668E+00
        -11   -1    0    0    0    0  0.00000000000E+00  0.00000000000E+00  0.45593999997E+02  0.45594000000E+02  0.51100000000E-03 0.  1.
         11   -1    0    0    0    0 -0.00000000000E+00 -0.00000000000E+00 -0.45593999997E+02  0.45594000000E+02  0.51100000000E-03 0. -1.
    9900012    2    1    2    0    0 -0.39695552894E+02  0.12068645423E+02 -0.12737120900E+02  0.47787269929E+02  0.19999994914E+02 0.  0.
        -12    1    1    2    0    0  0.39695552894E+02 -0.12068645423E+02  0.12737120900E+02  0.43400730071E+02  0.00000000000E+00 0.  1.
         11    1    3    3    0    0 -0.36222117602E+02  0.67969648127E+01 -0.60019730183E+01  0.37339847544E+02  0.51100000000E-03 0. -1.
        -11    1    3    3    0    0 -0.81764872206E+00  0.94283571421E+00 -0.48856745043E+01  0.50425493790E+01  0.51100000000E-03 0.  1.
         12    1    3    3    0    0 -0.26557865696E+01  0.43288448958E+01 -0.18494733779E+01  0.54048730059E+01  0.00000000000E+00 0. -1.
</event>
<event>
 7    1  0.2714068E-010  0.4778727E+02  0.7816164E-02  0.1312668E+00
        -11   -1    0    0    0    0  0.00000000000E+00  0.00000000000E+00  0.45593999997E+02  0.45594000000E+02  0.51100000000E-03 0. -1.
         11   -1    0    0    0    0 -0.00000000000E+00 -0.00000000000E+00 -0.45593999997E+02  0.45594000000E+02  0.51100000000E-03 0.  1.
    9900012    2    1    2    0    0  0.39598778343E+02 -0.14075025615E+02  0.10837595692E+02  0.47787273362E+02  0.20000010565E+02 0.  0.
        -12    1    1    2    0    0 -0.39598778343E+02  0.14075025615E+02 -0.10837595692E+02  0.43400726638E+02  0.00000000000E+00 0.  1.
         11    1    3    3    0    0  0.60917411264E+01 -0.24735973821E+01  0.35762811133E+01  0.74845027105E+01  0.51100000000E-03 0.  1.
        -11    1    3    3    0    0  0.29928332702E+02 -0.13252123609E+02  0.11331652628E+02  0.34637122138E+02  0.51100000000E-03 0. -1.
        -12    1    3    3    0    0  0.35787045149E+01  0.16506953756E+01 -0.40703380502E+01  0.56656485128E+01  0.00000000000E+00 0.  1.
</event>
<event>
 7    1  0.2714068E-010  0.4778728E+02  0.7816164E-02  0.1312668E+00
        -11   -1    0    0    0    0  0.00000000000E+00  0.00000000000E+00  0.45593999997E+02  0.45594000000E+02  0.51100000000E-03 0.  1.
         11   -1    0    0    0    0 -0.00000000000E+00 -0.00000000000E+00 -0.45593999997E+02  0.45594000000E+02  0.51100000000E-03 0. -1.
    9900012    2    1    2    0    0 -0.21468692389E+02 -0.36902204573E+02 -0.78067498040E+01  0.47787276530E+02  0.20000025010E+02 0.  0.
        -12    1    1    2    0    0  0.21468692389E+02  0.36902204573E+02  0.78067498040E+01  0.43400723470E+02  0.00000000000E+00 0.  1.
         11    1    3    3    0    0 -0.10845732353E+02 -0.13194856870E+02 -0.42698717726E+01  0.17605850258E+02  0.51100000000E-03 0. -1.
        -11    1    3    3    0    0  0.12316893247E+01 -0.93358721280E+01  0.38058168378E+01  0.10156761740E+02  0.51100000000E-03 0.  1.
        -12    1    3    3    0    0 -0.11854649361E+02 -0.14371475575E+02 -0.73426948691E+01  0.20024664532E+02  0.00000000000E+00 0.  1.
</event>
<event>
 7    1  0.2714068E-010  0.4778726E+02  0.7816164E-02  0.1312668E+00
        -11   -1    0    0    0    0  0.00000000000E+00  0.00000000000E+00  0.45593999997E+02  0.45594000000E+02  0.51100000000E-03 0.  1.
         11   -1    0    0    0    0 -0.00000000000E+00 -0.00000000000E+00 -0.45593999997E+02  0.45594000000E+02  0.51100000000E-03 0. -1.
    9900012    2    1    2    0    0 -0.32625845760E+02 -0.92762514538E+01 -0.27076369207E+02  0.47787257817E+02  0.19999939692E+02 0.  0.
        -12    1    1    2    0    0  0.32625845760E+02  0.92762514538E+01  0.27076369207E+02  0.43400742183E+02  0.00000000000E+00 0.  1.
         11    1    3    3    0    0 -0.11529289189E+02  0.13891279298E+00 -0.16069614983E+02  0.19778178175E+02  0.51100000000E-03 0. -1.
        -11    1    3    3    0    0 -0.94495303351E+01 -0.31182530554E+01  0.11719306385E+01  0.10019508339E+02  0.51100000000E-03 0.  1.
        -12    1    3    3    0    0 -0.11647026236E+02 -0.62969111914E+01 -0.12178684863E+02  0.17989571303E+02  0.00000000000E+00 0.  1.
</event>
<event>
 7    1  0.2714068E-010  0.4778728E+02  0.7816164E-02  0.1312668E+00
        -11   -1    0    0    0    0  0.00000000000E+00  0.00000000000E+00  0.45593999997E+02  0.45594000000E+02  0.51100000000E-03 0.  1.
         11   -1    0    0    0    0 -0.00000000000E+00 -0.00000000000E+00 -0.45593999997E+02  0.45594000000E+02  0.51100000000E-03 0. -1.
    9900012    2    1    2    0    0 -0.30875257805E+02  0.17406763504E+02 -0.25046874156E+02  0.47787275753E+02  0.20000021468E+02 0.  0.
        -12    1    1    2    0    0  0.30875257805E+02 -0.17406763504E+02  0.25046874156E+02  0.43400724247E+02  0.00000000000E+00 0.  1.
         11    1    3    3    0    0 -0.61449929946E+01  0.64197844375E+01 -0.15243047734E+02  0.17644406354E+02  0.51100000000E-03 0. -1.
        -11    1    3    3    0    0 -0.12275268420E+02  0.19338280226E+01 -0.11492707945E+01  0.12479692674E+02  0.51100000000E-03 0.  1.
         12    1    3    3    0    0 -0.12454996390E+02  0.90531510442E+01 -0.86545556274E+01  0.17663176725E+02  0.00000000000E+00 0. -1.
</event>
<event>
 7    1  0.2714068E-010  0.4778727E+02  0.7816164E-02  0.1312668E+00
        -11   -1    0    0    0    0  0.00000000000E+00  0.00000000000E+00  0.45593999997E+02  0.45594000000E+02  0.51100000000E-03 0. -1.
         11   -1    0    0    0    0 -0.00000000000E+00 -0.00000000000E+00 -0.45593999997E+02  0.45594000000E+02  0.51100000000E-03 0.  1.
    9900012    2    1    2    0    0 -0.42724454735E+02 -0.39898516283E+01 -0.65057802358E+01  0.47787272761E+02  0.20000007827E+02 0.  0.
        -12    1    1    2    0    0  0.42724454735E+02  0.39898516283E+01  0.65057802358E+01  0.43400727239E+02  0.00000000000E+00 0.  1.
         11    1    3    3    0    0 -0.19018118780E+02 -0.23302030330E+01 -0.12478446520E+02  0.22865483068E+02  0.51100000000E-03 0. -1.
        -11    1    3    3    0    0 -0.11071732109E+02 -0.72097472211E+00  0.51317730143E+01  0.12224489805E+02  0.51100000000E-03 0.  1.
         12    1    3    3    0    0 -0.12634603845E+02 -0.93867387313E+00  0.84089327038E+00  0.12697299888E+02  0.00000000000E+00 0. -1.
</event>
<event>
 7    1  0.2714068E-010  0.4778727E+02  0.7816164E-02  0.1312668E+00
        -11   -1    0    0    0    0  0.00000000000E+00  0.00000000000E+00  0.45593999997E+02  0.45594000000E+02  0.51100000000E-03 0.  1.
         11   -1    0    0    0    0 -0.00000000000E+00 -0.00000000000E+00 -0.45593999997E+02  0.45594000000E+02  0.51100000000E-03 0. -1.
    9900012    2    1    2    0    0  0.49439002434E+01 -0.17292835060E+02 -0.39498593983E+02  0.47787271658E+02  0.20000002795E+02 0.  0.
        -12    1    1    2    0    0 -0.49439002434E+01  0.17292835060E+02  0.39498593983E+02  0.43400728342E+02  0.00000000000E+00 0.  1.
         11    1    3    3    0    0 -0.11354786775E+01 -0.35852961631E+01 -0.49224171846E+01  0.61946631550E+01  0.51100000000E-03 0. -1.
        -11    1    3    3    0    0 -0.40267477905E+01 -0.11367989434E+02 -0.13502997097E+02  0.18104607491E+02  0.51100000000E-03 0.  1.
        -12    1    3    3    0    0  0.10106126711E+02 -0.23395494629E+01 -0.21073179701E+02  0.23488001011E+02  0.00000000000E+00 0.  1.
</event>
<event>
 7    1  0.2714068E-010  0.4778728E+02  0.7816164E-02  0.1312668E+00
        -11   -1    0    0    0    0  0.00000000000E+00  0.00000000000E+00  0.45593999997E+02  0.45594000000E+02  0.51100000000E-03 0.  1.
         11   -1    0    0    0    0 -0.00000000000E+00 -0.00000000000E+00 -0.45593999997E+02  0.45594000000E+02  0.51100000000E-03 0. -1.
    9900012    2    1    2    0    0  0.16756841777E+02  0.11767368300E+02 -0.38266957432E+02  0.47787277262E+02  0.20000028350E+02 0.  0.
        -12    1    1    2    0    0 -0.16756841777E+02 -0.11767368300E+02  0.38266957432E+02  0.43400722738E+02  0.00000000000E+00 0.  1.
         11    1    3    3    0    0  0.25422423356E+01  0.36693910956E+01 -0.14086990027E+01  0.46810106010E+01  0.51100000000E-03 0. -1.
        -11    1    3    3    0    0  0.14989496154E+02  0.20532398731E+01 -0.19317763766E+02  0.24537253027E+02  0.51100000000E-03 0.  1.
        -12    1    3    3    0    0 -0.77489671247E+00  0.60447373312E+01 -0.17540494664E+02  0.18569013635E+02  0.00000000000E+00 0.  1.
</event>
<event>
 7    1  0.2714068E-010  0.4778727E+02  0.7816164E-02  0.1312668E+00
        -11   -1    0    0    0    0  0.00000000000E+00  0.00000000000E+00  0.45593999997E+02  0.45594000000E+02  0.51100000000E-03 0. -1.
         11   -1    0    0    0    0 -0.00000000000E+00 -0.00000000000E+00 -0.45593999997E+02  0.45594000000E+02  0.51100000000E-03 0.  1.
    9900012    2    1    2    0    0  0.31652049545E+01  0.34250437547E+02  0.26467194314E+02  0.47787269944E+02  0.19999994983E+02 0.  0.
        -12    1    1    2    0    0 -0.31652049545E+01 -0.34250437547E+02 -0.26467194314E+02  0.43400730056E+02  0.00000000000E+00 0.  1.
         11    1    3    3    0    0 -0.11156421260E+01  0.44391962956E+01  0.12523679061E+02  0.13333928851E+02  0.51100000000E-03 0. -1.
        -11    1    3    3    0    0 -0.17984087094E+01  0.12518638988E+02  0.26447687345E+01  0.12920735193E+02  0.51100000000E-03 0.  1.
         12    1    3    3    0    0  0.60792557899E+01  0.17292602263E+02  0.11298746518E+02  0.21532605900E+02  0.00000000000E+00 0. -1.
</event>
<event>
 7    1  0.2714068E-010  0.4778727E+02  0.7816164E-02  0.1312668E+00
        -11   -1    0    0    0    0  0.00000000000E+00  0.00000000000E+00  0.45593999997E+02  0.45594000000E+02  0.51100000000E-03 0.  1.
         11   -1    0    0    0    0 -0.00000000000E+00 -0.00000000000E+00 -0.45593999997E+02  0.45594000000E+02  0.51100000000E-03 0. -1.
    9900012    2    1    2    0    0  0.17850148287E+02 -0.88115707748E+01 -0.38566203302E+02  0.47787267166E+02  0.19999982318E+02 0.  0.
        -12    1    1    2    0    0 -0.17850148287E+02  0.88115707748E+01  0.38566203302E+02  0.43400732834E+02  0.00000000000E+00 0.  1.
         11    1    3    3    0    0  0.80368313103E+01 -0.59641393347E+01 -0.53887197025E+01  0.11366614087E+02  0.51100000000E-03 0. -1.
        -11    1    3    3    0    0 -0.97104807067E+00 -0.15643007067E+01 -0.39101834391E+00  0.18822504251E+01  0.51100000000E-03 0.  1.
         12    1    3    3    0    0  0.10784365047E+02 -0.12831307334E+01 -0.32786465255E+02  0.34538402654E+02  0.00000000000E+00 0. -1.
</event>
<event>
 7    1  0.2714068E-010  0.4778727E+02  0.7816164E-02  0.1312668E+00
        -11   -1    0    0    0    0  0.00000000000E+00  0.00000000000E+00  0.45593999997E+02  0.45594000000E+02  0.51100000000E-03 0.  1.
         11   -1    0    0    0    0 -0.00000000000E+00 -0.00000000000E+00 -0.45593999997E+02  0.45594000000E+02  0.51100000000E-03 0. -1.
    9900012    2    1    2    0    0  0.39198466018E+02  0.18011005516E+02 -0.47651994627E+01  0.47787272082E+02  0.20000004732E+02 0.  0.
        -12    1    1    2    0    0 -0.39198466018E+02 -0.18011005516E+02  0.47651994627E+01  0.43400727918E+02  0.00000000000E+00 0.  1.
         11    1    3    3    0    0  0.17060058217E+02  0.38908357588E+01 -0.91805812292E+01  0.19760244463E+02  0.51100000000E-03 0. -1.
        -11    1    3    3    0    0  0.64592528563E+01  0.88570715653E+01  0.33108400287E+01  0.11451258714E+02  0.51100000000E-03 0.  1.
         12    1    3    3    0    0  0.15679154945E+02  0.52630981923E+01  0.11045417378E+01  0.16575768906E+02  0.00000000000E+00 0. -1.
</event>
<event>
 7    1  0.2714068E-010  0.4778727E+02  0.7816164E-02  0.1312668E+00
        -11   -1    0    0    0    0  0.00000000000E+00  0.00000000000E+00  0.45593999997E+02  0.45594000000E+02  0.51100000000E-03 0. -1.
         11   -1    0    0    0    0 -0.00000000000E+00 -0.00000000000E+00 -0.45593999997E+02  0.45594000000E+02  0.51100000000E-03 0.  1.
    9900012    2    1    2    0    0 -0.31050287336E+02  0.28022446165E+02  0.11586452670E+02  0.47787265926E+02  0.19999976662E+02 0.  0.
        -12    1    1    2    0    0  0.31050287336E+02 -0.28022446165E+02 -0.11586452670E+02  0.43400734074E+02  0.00000000000E+00 0.  1.
         11    1    3    3    0    0 -0.75510468857E+01  0.90276306414E+01 -0.43322641639E+01  0.12541329161E+02  0.51100000000E-03 0. -1.
        -11    1    3    3    0    0 -0.42310292792E+01  0.11323391028E+01 -0.26420165006E+00  0.43878928175E+01  0.51100000000E-03 0.  1.
         12    1    3    3    0    0 -0.19268211171E+02  0.17862476421E+02  0.16182918484E+02  0.30858043948E+02  0.00000000000E+00 0. -1.
</event>
<event>
 7    1  0.2714068E-010  0.4778728E+02  0.7816164E-02  0.1312668E+00
        -11   -1    0    0    0    0  0.00000000000E+00  0.00000000000E+00  0.45593999997E+02  0.45594000000E+02  0.51100000000E-03 0.  1.
         11   -1    0    0    0    0 -0.00000000000E+00 -0.00000000000E+00 -0.45593999997E+02  0.45594000000E+02  0.51100000000E-03 0. -1.
    9900012    2    1    2    0    0  0.16057979988E+02  0.21011137664E+02 -0.34413604646E+02  0.47787276366E+02  0.20000024262E+02 0.  0.
        -12    1    1    2    0    0 -0.16057979988E+02 -0.21011137664E+02  0.34413604646E+02  0.43400723634E+02  0.00000000000E+00 0.  1.
         11    1    3    3    0    0  0.18895539027E+02  0.14798828570E+02 -0.22555194449E+02  0.32936051966E+02  0.51100000000E-03 0. -1.
        -11    1    3    3    0    0 -0.30902866161E+01  0.39901175185E+00 -0.43976674290E+01  0.53896716807E+01  0.51100000000E-03 0.  1.
        -12    1    3    3    0    0  0.25272757706E+00  0.58132973417E+01 -0.74607427682E+01  0.94615527195E+01  0.00000000000E+00 0.  1.
</event>
<event>
 7    1  0.2714068E-010  0.4778727E+02  0.7816164E-02  0.1312668E+00
        -11   -1    0    0    0    0  0.00000000000E+00  0.00000000000E+00  0.45593999997E+02  0.45594000000E+02  0.51100000000E-03 0.  1.
         11   -1    0    0    0    0 -0.00000000000E+00 -0.00000000000E+00 -0.45593999997E+02  0.45594000000E+02  0.51100000000E-03 0. -1.
    9900012    2    1    2    0    0  0.40413111731E+02 -0.23080685146E+01 -0.15654915342E+02  0.47787272420E+02  0.20000006273E+02 0.  0.
        -12    1    1    2    0    0 -0.40413111731E+02  0.23080685146E+01  0.15654915342E+02  0.43400727580E+02  0.00000000000E+00 0.  1.
         11    1    3    3    0    0  0.37301645438E+02  0.29948062052E+01 -0.16679264078E+02  0.40970470671E+02  0.51100000000E-03 0. -1.
        -11    1    3    3    0    0  0.36136106045E+01 -0.42937810606E+01  0.83096013816E+00  0.56732030115E+01  0.51100000000E-03 0.  1.
         12    1    3    3    0    0 -0.50214431140E+00 -0.10090936591E+01  0.19338859751E+00  0.11435987373E+01  0.00000000000E+00 0. -1.
</event>
<event>
 7    1  0.2714068E-010  0.4778727E+02  0.7816164E-02  0.1312668E+00
        -11   -1    0    0    0    0  0.00000000000E+00  0.00000000000E+00  0.45593999997E+02  0.45594000000E+02  0.51100000000E-03 0. -1.
         11   -1    0    0    0    0 -0.00000000000E+00 -0.00000000000E+00 -0.45593999997E+02  0.45594000000E+02  0.51100000000E-03 0.  1.
    9900012    2    1    2    0    0  0.20055192849E+02 -0.22438322763E+02  0.31271942647E+02  0.47787268606E+02  0.19999988883E+02 0.  0.
        -12    1    1    2    0    0 -0.20055192849E+02  0.22438322763E+02 -0.31271942647E+02  0.43400731394E+02  0.00000000000E+00 0.  1.
         11    1    3    3    0    0  0.11118669882E+02 -0.10369253800E+02  0.28444305906E+02  0.32252515918E+02  0.51100000000E-03 0. -1.
        -11    1    3    3    0    0  0.58584159669E+01 -0.83059876635E+01  0.58557894672E+00  0.10181029991E+02  0.51100000000E-03 0.  1.
         12    1    3    3    0    0  0.30781069994E+01 -0.37630812994E+01  0.22420577940E+01  0.53537226970E+01  0.00000000000E+00 0. -1.
</event>
<event>
 7    1  0.2714068E-010  0.4778728E+02  0.7816164E-02  0.1312668E+00
        -11   -1    0    0    0    0  0.00000000000E+00  0.00000000000E+00  0.45593999997E+02  0.45594000000E+02  0.51100000000E-03 0.  1.
         11   -1    0    0    0    0 -0.00000000000E+00 -0.00000000000E+00 -0.45593999997E+02  0.45594000000E+02  0.51100000000E-03 0. -1.
    9900012    2    1    2    0    0  0.14423540588E+02  0.38369993469E+02 -0.14259301061E+02  0.47787278939E+02  0.20000035993E+02 0.  0.
        -12    1    1    2    0    0 -0.14423540588E+02 -0.38369993469E+02  0.14259301061E+02  0.43400721061E+02  0.00000000000E+00 0.  1.
         11    1    3    3    0    0  0.10545477087E+02  0.15632077520E+02 -0.44940588100E+01  0.19384671765E+02  0.51100000000E-03 0. -1.
        -11    1    3    3    0    0 -0.42824768210E+01  0.13787766864E+02 -0.39568885871E+01  0.14969939558E+02  0.51100000000E-03 0.  1.
        -12    1    3    3    0    0  0.81605403225E+01  0.89501490846E+01 -0.58083536636E+01  0.13432667616E+02  0.00000000000E+00 0.  1.
</event>
<event>
 7    1  0.2714068E-010  0.4778727E+02  0.7816164E-02  0.1312668E+00
        -11   -1    0    0    0    0  0.00000000000E+00  0.00000000000E+00  0.45593999997E+02  0.45594000000E+02  0.51100000000E-03 0. -1.
         11   -1    0    0    0    0 -0.00000000000E+00 -0.00000000000E+00 -0.45593999997E+02  0.45594000000E+02  0.51100000000E-03 0.  1.
    9900012    2    1    2    0    0  0.10837849735E+02 -0.17100544059E+02  0.38389261556E+02  0.47787274237E+02  0.20000014555E+02 0.  0.
        -12    1    1    2    0    0 -0.10837849735E+02  0.17100544059E+02 -0.38389261556E+02  0.43400725763E+02  0.00000000000E+00 0.  1.
         11    1    3    3    0    0 -0.36241935206E+01 -0.14971918978E+01  0.12269123149E+02  0.12880518055E+02  0.51100000000E-03 0. -1.
        -11    1    3    3    0    0  0.94678507791E+01 -0.65498621984E+01  0.79171863427E+01  0.13972212890E+02  0.51100000000E-03 0.  1.
         12    1    3    3    0    0  0.49941924765E+01 -0.90534899626E+01  0.18202952064E+02  0.20934543292E+02  0.00000000000E+00 0. -1.
</event>
<event>
 7    1  0.2714068E-010  0.4778727E+02  0.7816164E-02  0.1312668E+00
        -11   -1    0    0    0    0  0.00000000000E+00  0.00000000000E+00  0.45593999997E+02  0.45594000000E+02  0.51100000000E-03 0.  1.
         11   -1    0    0    0    0 -0.00000000000E+00 -0.00000000000E+00 -0.45593999997E+02  0.45594000000E+02  0.51100000000E-03 0. -1.
    9900012    2    1    2    0    0  0.42191063897E+02 -0.29867474038E+01 -0.97271078852E+01  0.47787272349E+02  0.20000005947E+02 0.  0.
        -12    1    1    2    0    0 -0.42191063897E+02  0.29867474038E+01  0.97271078852E+01  0.43400727651E+02  0.00000000000E+00 0.  1.
         11    1    3    3    0    0  0.42940455293E+01 -0.82904845050E+00 -0.37987717235E+01  0.57928244587E+01  0.51100000000E-03 0. -1.
        -11    1    3    3    0    0  0.22323112708E+02  0.61505825959E+01 -0.73299445320E+01  0.24287427084E+02  0.51100000000E-03 0.  1.
        -12    1    3    3    0    0  0.15573905660E+02 -0.83082815493E+01  0.14016083703E+01  0.17707020807E+02  0.00000000000E+00 0.  1.
</event>
<event>
 7    1  0.2714068E-010  0.4778726E+02  0.7816164E-02  0.1312668E+00
        -11   -1    0    0    0    0  0.00000000000E+00  0.00000000000E+00  0.45593999997E+02  0.45594000000E+02  0.51100000000E-03 0.  1.
         11   -1    0    0    0    0 -0.00000000000E+00 -0.00000000000E+00 -0.45593999997E+02  0.45594000000E+02  0.51100000000E-03 0. -1.
    9900012    2    1    2    0    0  0.51006889086E+01 -0.41952406910E+02 -0.98794071667E+01  0.47787260849E+02  0.19999953515E+02 0.  0.
        -12    1    1    2    0    0 -0.51006889086E+01  0.41952406910E+02  0.98794071667E+01  0.43400739151E+02  0.00000000000E+00 0.  1.
         11    1    3    3    0    0 -0.73515219322E+00  0.12007308544E+01  0.10736992987E+01  0.17706026593E+01  0.51100000000E-03 0.  1.
        -11    1    3    3    0    0  0.86990336677E+01 -0.30827917862E+02 -0.82648100463E+01  0.33080822115E+02  0.51100000000E-03 0. -1.
         12    1    3    3    0    0 -0.28631925659E+01 -0.12325219903E+02 -0.26882964190E+01  0.12935836075E+02  0.00000000000E+00 0. -1.
</event>
<event>
 7    1  0.2714068E-010  0.4778727E+02  0.7816164E-02  0.1312668E+00
        -11   -1    0    0    0    0  0.00000000000E+00  0.00000000000E+00  0.45593999997E+02  0.45594000000E+02  0.51100000000E-03 0.  1.
         11   -1    0    0    0    0 -0.00000000000E+00 -0.00000000000E+00 -0.45593999997E+02  0.45594000000E+02  0.51100000000E-03 0. -1.
    9900012    2    1    2    0    0  0.36958250772E+02  0.14671466841E+02 -0.17391350314E+02  0.47787270684E+02  0.19999998357E+02 0.  0.
        -12    1    1    2    0    0 -0.36958250772E+02 -0.14671466841E+02  0.17391350314E+02  0.43400729316E+02  0.00000000000E+00 0.  1.
         11    1    3    3    0    0  0.14393525437E+02  0.10090581589E+02 -0.12808715911E+02  0.21749864709E+02  0.51100000000E-03 0. -1.
        -11    1    3    3    0    0  0.88388828541E+01  0.33799723929E+01  0.34691650221E+01  0.10078946855E+02  0.51100000000E-03 0.  1.
         12    1    3    3    0    0  0.13725842481E+02  0.12009128589E+01 -0.80517994251E+01  0.15958459120E+02  0.00000000000E+00 0. -1.
</event>
<event>
 7    1  0.2714068E-010  0.4778729E+02  0.7816164E-02  0.1312668E+00
        -11   -1    0    0    0    0  0.00000000000E+00  0.00000000000E+00  0.45593999997E+02  0.45594000000E+02  0.51100000000E-03 0.  1.
         11   -1    0    0    0    0 -0.00000000000E+00 -0.00000000000E+00 -0.45593999997E+02  0.45594000000E+02  0.51100000000E-03 0. -1.
    9900012    2    1    2    0    0 -0.27121787078E+02  0.33657549591E+02  0.38987067681E+01  0.47787286950E+02  0.20000072519E+02 0.  0.
        -12    1    1    2    0    0  0.27121787078E+02 -0.33657549591E+02 -0.38987067681E+01  0.43400713050E+02  0.00000000000E+00 0.  1.
         11    1    3    3    0    0 -0.12469293000E+02  0.17451670096E+02  0.53414011263E+01  0.22103724196E+02  0.51100000000E-03 0. -1.
        -11    1    3    3    0    0 -0.77241569590E+01  0.14340007399E+02 -0.57989689646E+01  0.17289489704E+02  0.51100000000E-03 0.  1.
        -12    1    3    3    0    0 -0.69283371193E+01  0.18658720962E+01  0.43562746063E+01  0.83940730497E+01  0.00000000000E+00 0.  1.
</event>
<event>
 7    1  0.2714068E-010  0.4778727E+02  0.7816164E-02  0.1312668E+00
        -11   -1    0    0    0    0  0.00000000000E+00  0.00000000000E+00  0.45593999997E+02  0.45594000000E+02  0.51100000000E-03 0.  1.
         11   -1    0    0    0    0 -0.00000000000E+00 -0.00000000000E+00 -0.45593999997E+02  0.45594000000E+02  0.51100000000E-03 0. -1.
    9900012    2    1    2    0    0  0.12604860990E+02  0.16183962516E+02 -0.38246827831E+02  0.47787274172E+02  0.20000014259E+02 0.  0.
        -12    1    1    2    0    0 -0.12604860990E+02 -0.16183962516E+02  0.38246827831E+02  0.43400725828E+02  0.00000000000E+00 0.  1.
         11    1    3    3    0    0  0.36533516124E+01  0.30874829159E+01 -0.18322345481E+02  0.18936416582E+02  0.51100000000E-03 0. -1.
        -11    1    3    3    0    0 -0.54719675593E+00  0.55787065273E+01 -0.85762326164E-01  0.56061346974E+01  0.51100000000E-03 0.  1.
        -12    1    3    3    0    0  0.94987061339E+01  0.75177730726E+01 -0.19838720023E+02  0.23244722893E+02  0.00000000000E+00 0.  1.
</event>
<event>
 7    1  0.2714068E-010  0.4778727E+02  0.7816164E-02  0.1312668E+00
        -11   -1    0    0    0    0  0.00000000000E+00  0.00000000000E+00  0.45593999997E+02  0.45594000000E+02  0.51100000000E-03 0.  1.
         11   -1    0    0    0    0 -0.00000000000E+00 -0.00000000000E+00 -0.45593999997E+02  0.45594000000E+02  0.51100000000E-03 0. -1.
    9900012    2    1    2    0    0 -0.31468396211E+02 -0.29723958458E+02 -0.31384051581E+01  0.47787271280E+02  0.20000001073E+02 0.  0.
        -12    1    1    2    0    0  0.31468396211E+02  0.29723958458E+02  0.31384051581E+01  0.43400728720E+02  0.00000000000E+00 0.  1.
         11    1    3    3    0    0 -0.10547762303E+02 -0.64289173008E+01 -0.41777894453E+01  0.13039946019E+02  0.51100000000E-03 0. -1.
        -11    1    3    3    0    0 -0.55232097822E+01 -0.17379156452E+02  0.69434365811E+00  0.18248918835E+02  0.51100000000E-03 0.  1.
        -12    1    3    3    0    0 -0.15397424126E+02 -0.59158847058E+01  0.34504062903E+00  0.16498406426E+02  0.00000000000E+00 0.  1.
</event>
<event>
 7    1  0.2714068E-010  0.4778727E+02  0.7816164E-02  0.1312668E+00
        -11   -1    0    0    0    0  0.00000000000E+00  0.00000000000E+00  0.45593999997E+02  0.45594000000E+02  0.51100000000E-03 0.  1.
         11   -1    0    0    0    0 -0.00000000000E+00 -0.00000000000E+00 -0.45593999997E+02  0.45594000000E+02  0.51100000000E-03 0. -1.
    9900012    2    1    2    0    0  0.36095211298E+02  0.21177984550E+02  0.11500105919E+02  0.47787265623E+02  0.19999975283E+02 0.  0.
        -12    1    1    2    0    0 -0.36095211298E+02 -0.21177984550E+02 -0.11500105919E+02  0.43400734377E+02  0.00000000000E+00 0.  1.
         11    1    3    3    0    0  0.13019335064E+01 -0.63381706964E+00  0.50507702376E+01  0.52542397344E+01  0.51100000000E-03 0. -1.
        -11    1    3    3    0    0 -0.82117150480E-01 -0.23434773097E-01  0.10267708261E+01  0.10303159735E+01  0.51100000000E-03 0.  1.
         12    1    3    3    0    0  0.34875394942E+02  0.21835236393E+02  0.54225648558E+01  0.41502709915E+02  0.00000000000E+00 0. -1.
</event>
<event>
 7    1  0.2714068E-010  0.4778727E+02  0.7816164E-02  0.1312668E+00
        -11   -1    0    0    0    0  0.00000000000E+00  0.00000000000E+00  0.45593999997E+02  0.45594000000E+02  0.51100000000E-03 0.  1.
         11   -1    0    0    0    0 -0.00000000000E+00 -0.00000000000E+00 -0.45593999997E+02  0.45594000000E+02  0.51100000000E-03 0. -1.
    9900012    2    1    2    0    0  0.22702000815E+01 -0.41374837281E+02 -0.12907052113E+02  0.47787274630E+02  0.20000016346E+02 0.  0.
        -12    1    1    2    0    0 -0.22702000815E+01  0.41374837281E+02  0.12907052113E+02  0.43400725370E+02  0.00000000000E+00 0.  1.
         11    1    3    3    0    0  0.19580943689E+01 -0.38665583205E+02 -0.76842851037E+01  0.39470364781E+02  0.51100000000E-03 0. -1.
        -11    1    3    3    0    0 -0.26861844562E+01 -0.14323854598E+01 -0.34718425144E+01  0.46174674600E+01  0.51100000000E-03 0.  1.
         12    1    3    3    0    0  0.29982901688E+01 -0.12768686160E+01 -0.17509244950E+01  0.36994423885E+01  0.00000000000E+00 0. -1.
</event>
<event>
 7    1  0.2714068E-010  0.4778727E+02  0.7816164E-02  0.1312668E+00
        -11   -1    0    0    0    0  0.00000000000E+00  0.00000000000E+00  0.45593999997E+02  0.45594000000E+02  0.51100000000E-03 0.  1.
         11   -1    0    0    0    0 -0.00000000000E+00 -0.00000000000E+00 -0.45593999997E+02  0.45594000000E+02  0.51100000000E-03 0. -1.
    9900012    2    1    2    0    0  0.28177314662E+02 -0.93823193037E+01 -0.31648607339E+02  0.47787270471E+02  0.19999997387E+02 0.  0.
        -12    1    1    2    0    0 -0.28177314662E+02  0.93823193037E+01  0.31648607339E+02  0.43400729529E+02  0.00000000000E+00 0.  1.
         11    1    3    3    0    0  0.12443975475E+02 -0.20948004927E+01 -0.66903552348E+01  0.14282911754E+02  0.51100000000E-03 0. -1.
        -11    1    3    3    0    0  0.53696874864E+01 -0.22346846776E+01  0.21097187105E+00  0.58199543556E+01  0.51100000000E-03 0.  1.
        -12    1    3    3    0    0  0.10363651701E+02 -0.50528341333E+01 -0.25169223976E+02  0.27684404362E+02  0.00000000000E+00 0.  1.
</event>
<event>
 7    1  0.2714068E-010  0.4778727E+02  0.7816164E-02  0.1312668E+00
        -11   -1    0    0    0    0  0.00000000000E+00  0.00000000000E+00  0.45593999997E+02  0.45594000000E+02  0.51100000000E-03 0. -1.
         11   -1    0    0    0    0 -0.00000000000E+00 -0.00000000000E+00 -0.45593999997E+02  0.45594000000E+02  0.51100000000E-03 0.  1.
    9900012    2    1    2    0    0  0.55695693488E+01  0.21367947311E+02  0.37363268957E+02  0.47787272562E+02  0.20000006919E+02 0.  0.
        -12    1    1    2    0    0 -0.55695693488E+01 -0.21367947311E+02 -0.37363268957E+02  0.43400727438E+02  0.00000000000E+00 0.  1.
         11    1    3    3    0    0  0.10903000075E+02  0.13341731086E+02  0.20218635185E+02  0.26564457608E+02  0.51100000000E-03 0. -1.
        -11    1    3    3    0    0  0.17736127390E+01  0.10523998639E+01  0.10940104726E+01  0.23345463792E+01  0.51100000000E-03 0.  1.
         12    1    3    3    0    0 -0.71070434652E+01  0.69738163620E+01  0.16050623299E+02  0.18888268575E+02  0.00000000000E+00 0. -1.
</event>
<event>
 7    1  0.2714068E-010  0.4778728E+02  0.7816164E-02  0.1312668E+00
        -11   -1    0    0    0    0  0.00000000000E+00  0.00000000000E+00  0.45593999997E+02  0.45594000000E+02  0.51100000000E-03 0. -1.
         11   -1    0    0    0    0 -0.00000000000E+00 -0.00000000000E+00 -0.45593999997E+02  0.45594000000E+02  0.51100000000E-03 0.  1.
    9900012    2    1    2    0    0  0.26270869808E+02 -0.17493419953E+02  0.29789995207E+02  0.47787283916E+02  0.20000058686E+02 0.  0.
        -12    1    1    2    0    0 -0.26270869808E+02  0.17493419953E+02 -0.29789995207E+02  0.43400716084E+02  0.00000000000E+00 0.  1.
         11    1    3    3    0    0  0.96341730939E+01 -0.12614528730E+01  0.18965300982E+02  0.21309415669E+02  0.51100000000E-03 0. -1.
        -11    1    3    3    0    0  0.10067354506E+02 -0.13411688874E+02  0.92709854203E+01  0.19161842190E+02  0.51100000000E-03 0.  1.
         12    1    3    3    0    0  0.65693422084E+01 -0.28202782063E+01  0.15537088053E+01  0.73160260568E+01  0.00000000000E+00 0. -1.
</event>
<event>
 7    1  0.2714068E-010  0.4778727E+02  0.7816164E-02  0.1312668E+00
        -11   -1    0    0    0    0  0.00000000000E+00  0.00000000000E+00  0.45593999997E+02  0.45594000000E+02  0.51100000000E-03 0. -1.
         11   -1    0    0    0    0 -0.00000000000E+00 -0.00000000000E+00 -0.45593999997E+02  0.45594000000E+02  0.51100000000E-03 0.  1.
    9900012    2    1    2    0    0 -0.34465397358E+02 -0.15628341469E+02 -0.21248881375E+02  0.47787266921E+02  0.19999981198E+02 0.  0.
        -12    1    1    2    0    0  0.34465397358E+02  0.15628341469E+02  0.21248881375E+02  0.43400733079E+02  0.00000000000E+00 0.  1.
         11    1    3    3    0    0 -0.67830900028E+01  0.21947169179E+00 -0.84665769632E+01  0.10850871096E+02  0.51100000000E-03 0. -1.
        -11    1    3    3    0    0 -0.39054638146E+01 -0.84239852848E+01 -0.87091030619E+00  0.93260206256E+01  0.51100000000E-03 0.  1.
        -12    1    3    3    0    0 -0.23776843541E+02 -0.74238278763E+01 -0.11911394105E+02  0.27610375199E+02  0.00000000000E+00 0.  1.
</event>
<event>
 7    1  0.2714068E-010  0.4778727E+02  0.7816164E-02  0.1312668E+00
        -11   -1    0    0    0    0  0.00000000000E+00  0.00000000000E+00  0.45593999997E+02  0.45594000000E+02  0.51100000000E-03 0. -1.
         11   -1    0    0    0    0 -0.00000000000E+00 -0.00000000000E+00 -0.45593999997E+02  0.45594000000E+02  0.51100000000E-03 0.  1.
    9900012    2    1    2    0    0 -0.27152559624E+02  0.24557133009E+02  0.23308994132E+02  0.47787268633E+02  0.19999989004E+02 0.  0.
        -12    1    1    2    0    0  0.27152559624E+02 -0.24557133009E+02 -0.23308994132E+02  0.43400731367E+02  0.00000000000E+00 0.  1.
         11    1    3    3    0    0 -0.10208065551E+02  0.46067418735E+01  0.13988568189E+02  0.17919450695E+02  0.51100000000E-03 0. -1.
        -11    1    3    3    0    0 -0.21411772017E+01  0.92335813774E+01  0.28982251470E+00  0.94830196780E+01  0.51100000000E-03 0.  1.
        -12    1    3    3    0    0 -0.14803316872E+02  0.10716809758E+02  0.90306034282E+01  0.20384798260E+02  0.00000000000E+00 0.  1.
</event>
<event>
 7    1  0.2714068E-010  0.4778727E+02  0.7816164E-02  0.1312668E+00
        -11   -1    0    0    0    0  0.00000000000E+00  0.00000000000E+00  0.45593999997E+02  0.45594000000E+02  0.51100000000E-03 0.  1.
         11   -1    0    0    0    0 -0.00000000000E+00 -0.00000000000E+00 -0.45593999997E+02  0.45594000000E+02  0.51100000000E-03 0. -1.
    9900012    2    1    2    0    0  0.26178809189E+02 -0.63657597154E+01 -0.34026027254E+02  0.47787268693E+02  0.19999989277E+02 0.  0.
        -12    1    1    2    0    0 -0.26178809189E+02  0.63657597154E+01  0.34026027254E+02  0.43400731307E+02  0.00000000000E+00 0.  1.
         11    1    3    3    0    0  0.14695611304E+02 -0.45279918885E+01 -0.80599634582E+01  0.17361644892E+02  0.51100000000E-03 0. -1.
        -11    1    3    3    0    0 -0.76701445602E-01  0.97890346135E+00  0.71314479900E+00  0.12135529918E+01  0.51100000000E-03 0.  1.
         12    1    3    3    0    0  0.11559899331E+02 -0.28166712882E+01 -0.26679208595E+02  0.29212070809E+02  0.00000000000E+00 0. -1.
</event>
<event>
 7    1  0.2714068E-010  0.4778727E+02  0.7816164E-02  0.1312668E+00
        -11   -1    0    0    0    0  0.00000000000E+00  0.00000000000E+00  0.45593999997E+02  0.45594000000E+02  0.51100000000E-03 0. -1.
         11   -1    0    0    0    0 -0.00000000000E+00 -0.00000000000E+00 -0.45593999997E+02  0.45594000000E+02  0.51100000000E-03 0.  1.
    9900012    2    1    2    0    0 -0.78050900700E+01  0.15489327778E+02  0.39784229719E+02  0.47787266823E+02  0.19999980753E+02 0.  0.
        -12    1    1    2    0    0  0.78050900700E+01 -0.15489327778E+02 -0.39784229719E+02  0.43400733177E+02  0.00000000000E+00 0.  1.
         11    1    3    3    0    0 -0.87507105454E+01  0.15242452400E+02  0.18449908186E+02  0.25481491372E+02  0.51100000000E-03 0. -1.
        -11    1    3    3    0    0  0.13413704756E+01 -0.19352347443E+01  0.18763132022E+02  0.18910302266E+02  0.51100000000E-03 0.  1.
        -12    1    3    3    0    0 -0.39575000024E+00  0.21821101221E+01  0.25711895111E+01  0.33954731849E+01  0.00000000000E+00 0.  1.
</event>
<event>
 7    1  0.2714068E-010  0.4778726E+02  0.7816164E-02  0.1312668E+00
        -11   -1    0    0    0    0  0.00000000000E+00  0.00000000000E+00  0.45593999997E+02  0.45594000000E+02  0.51100000000E-03 0.  1.
         11   -1    0    0    0    0 -0.00000000000E+00 -0.00000000000E+00 -0.45593999997E+02  0.45594000000E+02  0.51100000000E-03 0. -1.
    9900012    2    1    2    0    0  0.34398654678E+02  0.24023809032E+02 -0.11100144378E+02  0.47787262111E+02  0.19999959269E+02 0.  0.
        -12    1    1    2    0    0 -0.34398654678E+02 -0.24023809032E+02  0.11100144378E+02  0.43400737889E+02  0.00000000000E+00 0.  1.
         11    1    3    3    0    0  0.27176550338E+02  0.17140517762E+02 -0.36308595581E+01  0.32334894136E+02  0.51100000000E-03 0. -1.
        -11    1    3    3    0    0 -0.10265426064E+01 -0.11189809354E+01  0.34203827929E+00  0.15565662537E+01  0.51100000000E-03 0.  1.
         12    1    3    3    0    0  0.82486469467E+01  0.80022722054E+01 -0.78113230995E+01  0.13895801721E+02  0.00000000000E+00 0. -1.
</event>
<event>
 7    1  0.2714068E-010  0.4778727E+02  0.7816164E-02  0.1312668E+00
        -11   -1    0    0    0    0  0.00000000000E+00  0.00000000000E+00  0.45593999997E+02  0.45594000000E+02  0.51100000000E-03 0.  1.
         11   -1    0    0    0    0 -0.00000000000E+00 -0.00000000000E+00 -0.45593999997E+02  0.45594000000E+02  0.51100000000E-03 0. -1.
    9900012    2    1    2    0    0 -0.17027909565E+02  0.14365419940E+02 -0.37246587861E+02  0.47787270726E+02  0.19999998549E+02 0.  0.
        -12    1    1    2    0    0  0.17027909565E+02 -0.14365419940E+02  0.37246587861E+02  0.43400729274E+02  0.00000000000E+00 0.  1.
         11    1    3    3    0    0 -0.34259654748E+01  0.92233208153E+01 -0.24961447665E+02  0.26830593659E+02  0.51100000000E-03 0. -1.
        -11    1    3    3    0    0 -0.83908690985E+01  0.68739021918E+01 -0.53031575920E+01  0.12073967711E+02  0.51100000000E-03 0.  1.
         12    1    3    3    0    0 -0.52110749915E+01 -0.17318030671E+01 -0.69819826042E+01  0.88827093567E+01  0.00000000000E+00 0. -1.
</event>
<event>
 7    1  0.2714068E-010  0.4778727E+02  0.7816164E-02  0.1312668E+00
        -11   -1    0    0    0    0  0.00000000000E+00  0.00000000000E+00  0.45593999997E+02  0.45594000000E+02  0.51100000000E-03 0. -1.
         11   -1    0    0    0    0 -0.00000000000E+00 -0.00000000000E+00 -0.45593999997E+02  0.45594000000E+02  0.51100000000E-03 0.  1.
    9900012    2    1    2    0    0 -0.39754947132E+02 -0.15592935910E+02  0.77477877996E+01  0.47787266279E+02  0.19999978271E+02 0.  0.
        -12    1    1    2    0    0  0.39754947132E+02  0.15592935910E+02 -0.77477877996E+01  0.43400733721E+02  0.00000000000E+00 0.  1.
         11    1    3    3    0    0 -0.32162129303E+02 -0.15634208525E+02  0.13398776413E+02  0.38188456989E+02  0.51100000000E-03 0. -1.
        -11    1    3    3    0    0 -0.58335215888E+01  0.65325931626E+00 -0.39410282929E+01  0.70702493681E+01  0.51100000000E-03 0.  1.
         12    1    3    3    0    0 -0.17592962398E+01 -0.61198670117E+00 -0.17099603204E+01  0.25285599220E+01  0.00000000000E+00 0. -1.
</event>
<event>
 7    1  0.2714068E-010  0.4778728E+02  0.7816164E-02  0.1312668E+00
        -11   -1    0    0    0    0  0.00000000000E+00  0.00000000000E+00  0.45593999997E+02  0.45594000000E+02  0.51100000000E-03 0.  1.
         11   -1    0    0    0    0 -0.00000000000E+00 -0.00000000000E+00 -0.45593999997E+02  0.45594000000E+02  0.51100000000E-03 0. -1.
    9900012    2    1    2    0    0  0.14993517329E+02 -0.74646797248E+01 -0.40038678951E+02  0.47787276303E+02  0.20000023976E+02 0.  0.
        -12    1    1    2    0    0 -0.14993517329E+02  0.74646797248E+01  0.40038678951E+02  0.43400723697E+02  0.00000000000E+00 0.  1.
         11    1    3    3    0    0  0.12918478410E+02 -0.40908635949E+01 -0.39384552380E+02  0.41650512792E+02  0.51100000000E-03 0. -1.
        -11    1    3    3    0    0  0.90861410499E+00 -0.29466443444E+01  0.16661473617E+01  0.35049022492E+01  0.51100000000E-03 0.  1.
        -12    1    3    3    0    0  0.11664248146E+01 -0.42717178547E+00 -0.23202739320E+01  0.26318612619E+01  0.00000000000E+00 0.  1.
</event>
<event>
 7    1  0.2714068E-010  0.4778727E+02  0.7816164E-02  0.1312668E+00
        -11   -1    0    0    0    0  0.00000000000E+00  0.00000000000E+00  0.45593999997E+02  0.45594000000E+02  0.51100000000E-03 0.  1.
         11   -1    0    0    0    0 -0.00000000000E+00 -0.00000000000E+00 -0.45593999997E+02  0.45594000000E+02  0.51100000000E-03 0. -1.
    9900012    2    1    2    0    0 -0.19394295996E+02  0.23380551988E+02 -0.30997330535E+02  0.47787269260E+02  0.19999991865E+02 0.  0.
        -12    1    1    2    0    0  0.19394295996E+02 -0.23380551988E+02  0.30997330535E+02  0.43400730740E+02  0.00000000000E+00 0.  1.
         11    1    3    3    0    0 -0.64121421877E+01  0.60341606567E+01 -0.11583561724E+02  0.14550105317E+02  0.51100000000E-03 0. -1.
        -11    1    3    3    0    0 -0.15881455790E+01  0.12613086704E+02 -0.15999971121E+02  0.20435538621E+02  0.51100000000E-03 0.  1.
        -12    1    3    3    0    0 -0.11394008230E+02  0.47333046266E+01 -0.34137976906E+01  0.12801625322E+02  0.00000000000E+00 0.  1.
</event>
<event>
 7    1  0.2714068E-010  0.4778727E+02  0.7816164E-02  0.1312668E+00
        -11   -1    0    0    0    0  0.00000000000E+00  0.00000000000E+00  0.45593999997E+02  0.45594000000E+02  0.51100000000E-03 0. -1.
         11   -1    0    0    0    0 -0.00000000000E+00 -0.00000000000E+00 -0.45593999997E+02  0.45594000000E+02  0.51100000000E-03 0.  1.
    9900012    2    1    2    0    0  0.25279167455E+02 -0.23629625585E+02  0.26195949411E+02  0.47787270997E+02  0.19999999782E+02 0.  0.
        -12    1    1    2    0    0 -0.25279167455E+02  0.23629625585E+02 -0.26195949411E+02  0.43400729003E+02  0.00000000000E+00 0.  1.
         11    1    3    3    0    0  0.63044835622E+01 -0.57419561632E+00  0.55857779143E-01  0.63308241125E+01  0.51100000000E-03 0. -1.
        -11    1    3    3    0    0  0.46309549934E+01  0.43507915119E+00  0.39285457092E+01  0.60883913860E+01  0.51100000000E-03 0.  1.
         12    1    3    3    0    0  0.14343728900E+02 -0.23490509120E+02  0.22211545922E+02  0.35368055498E+02  0.00000000000E+00 0. -1.
</event>
<event>
 7    1  0.2714068E-010  0.4778727E+02  0.7816164E-02  0.1312668E+00
        -11   -1    0    0    0    0  0.00000000000E+00  0.00000000000E+00  0.45593999997E+02  0.45594000000E+02  0.51100000000E-03 0.  1.
         11   -1    0    0    0    0 -0.00000000000E+00 -0.00000000000E+00 -0.45593999997E+02  0.45594000000E+02  0.51100000000E-03 0. -1.
    9900012    2    1    2    0    0  0.39067835055E+01 -0.34547193935E+02 -0.25977903200E+02  0.47787273960E+02  0.20000013292E+02 0.  0.
        -12    1    1    2    0    0 -0.39067835055E+01  0.34547193935E+02  0.25977903200E+02  0.43400726040E+02  0.00000000000E+00 0.  1.
         11    1    3    3    0    0  0.61583542754E+01 -0.15741757245E+02 -0.21027141694E+02  0.26979046251E+02  0.51100000000E-03 0. -1.
        -11    1    3    3    0    0 -0.35305563640E+01 -0.10553999155E+02 -0.55325260848E-01  0.11129006584E+02  0.51100000000E-03 0.  1.
        -12    1    3    3    0    0  0.12789855940E+01 -0.82514375357E+01 -0.48954362446E+01  0.96792211246E+01  0.00000000000E+00 0.  1.
</event>
<event>
 7    1  0.2714068E-010  0.4778727E+02  0.7816164E-02  0.1312668E+00
        -11   -1    0    0    0    0  0.00000000000E+00  0.00000000000E+00  0.45593999997E+02  0.45594000000E+02  0.51100000000E-03 0. -1.
         11   -1    0    0    0    0 -0.00000000000E+00 -0.00000000000E+00 -0.45593999997E+02  0.45594000000E+02  0.51100000000E-03 0.  1.
    9900012    2    1    2    0    0 -0.24367764639E+02  0.33215722973E+02 -0.13658370040E+02  0.47787270994E+02  0.19999999770E+02 0.  0.
        -12    1    1    2    0    0  0.24367764639E+02 -0.33215722973E+02  0.13658370040E+02  0.43400729006E+02  0.00000000000E+00 0.  1.
         11    1    3    3    0    0 -0.14008261930E+02  0.21907173582E+02 -0.17613499418E+02  0.31406862605E+02  0.51100000000E-03 0.  1.
        -11    1    3    3    0    0 -0.44938718696E+01  0.52333512437E+01  0.39231363089E+01  0.79356063650E+01  0.51100000000E-03 0. -1.
        -12    1    3    3    0    0 -0.58656308393E+01  0.60751981470E+01  0.31993069286E-01  0.84448020241E+01  0.00000000000E+00 0.  1.
</event>
<event>
 7    1  0.2714068E-010  0.4778721E+02  0.7816164E-02  0.1312668E+00
        -11   -1    0    0    0    0  0.00000000000E+00  0.00000000000E+00  0.45593999997E+02  0.45594000000E+02  0.51100000000E-03 0.  1.
         11   -1    0    0    0    0 -0.00000000000E+00 -0.00000000000E+00 -0.45593999997E+02  0.45594000000E+02  0.51100000000E-03 0. -1.
    9900012    2    1    2    0    0 -0.38642594852E+02 -0.79056699941E+01 -0.18107428315E+02  0.47787208358E+02  0.19999714186E+02 0.  0.
        -12    1    1    2    0    0  0.38642594852E+02  0.79056699941E+01  0.18107428315E+02  0.43400791642E+02  0.00000000000E+00 0.  1.
         11    1    3    3    0    0 -0.39167800511E+02 -0.46402079219E+01 -0.13093134347E+02  0.41558131499E+02  0.51100000000E-03 0. -1.
        -11    1    3    3    0    0  0.60778629247E-01 -0.13080809337E+01 -0.34202664086E+01  0.36623752317E+01  0.51100000000E-03 0.  1.
         12    1    3    3    0    0  0.46442702919E+00 -0.19573811384E+01 -0.15940275588E+01  0.25667016275E+01  0.00000000000E+00 0. -1.
</event>
<event>
 7    1  0.2714068E-010  0.4778727E+02  0.7816164E-02  0.1312668E+00
        -11   -1    0    0    0    0  0.00000000000E+00  0.00000000000E+00  0.45593999997E+02  0.45594000000E+02  0.51100000000E-03 0.  1.
         11   -1    0    0    0    0 -0.00000000000E+00 -0.00000000000E+00 -0.45593999997E+02  0.45594000000E+02  0.51100000000E-03 0. -1.
    9900012    2    1    2    0    0 -0.22122709451E+02 -0.35853453119E+02 -0.10427787222E+02  0.47787272813E+02  0.20000008064E+02 0.  0.
        -12    1    1    2    0    0  0.22122709451E+02  0.35853453119E+02  0.10427787222E+02  0.43400727187E+02  0.00000000000E+00 0.  1.
         11    1    3    3    0    0  0.10022274235E+01 -0.36778194570E+01 -0.56784157714E+01  0.68392413103E+01  0.51100000000E-03 0. -1.
        -11    1    3    3    0    0 -0.18648873057E+02 -0.26084857468E+02 -0.74532038987E+01  0.32920366098E+02  0.51100000000E-03 0.  1.
         12    1    3    3    0    0 -0.44760638178E+01 -0.60907761942E+01  0.27038324478E+01  0.80276654050E+01  0.00000000000E+00 0. -1.
</event>
<event>
 7    1  0.2714068E-010  0.4778727E+02  0.7816164E-02  0.1312668E+00
        -11   -1    0    0    0    0  0.00000000000E+00  0.00000000000E+00  0.45593999997E+02  0.45594000000E+02  0.51100000000E-03 0.  1.
         11   -1    0    0    0    0 -0.00000000000E+00 -0.00000000000E+00 -0.45593999997E+02  0.45594000000E+02  0.51100000000E-03 0. -1.
    9900012    2    1    2    0    0  0.13443243422E+02 -0.23175027057E+01 -0.41201112980E+02  0.47787270475E+02  0.19999997404E+02 0.  0.
        -12    1    1    2    0    0 -0.13443243422E+02  0.23175027057E+01  0.41201112980E+02  0.43400729525E+02  0.00000000000E+00 0.  1.
         11    1    3    3    0    0  0.14183169600E+02 -0.88224150229E+01 -0.24964733064E+02  0.30037230298E+02  0.51100000000E-03 0. -1.
        -11    1    3    3    0    0 -0.12200104175E+01  0.58800593261E+01 -0.15665155593E+02  0.16776788224E+02  0.51100000000E-03 0.  1.
         12    1    3    3    0    0  0.48008423939E+00  0.62485299111E+00 -0.57122432325E+00  0.97325195344E+00  0.00000000000E+00 0. -1.
</event>
<event>
 7    1  0.2714068E-010  0.4778727E+02  0.7816164E-02  0.1312668E+00
        -11   -1    0    0    0    0  0.00000000000E+00  0.00000000000E+00  0.45593999997E+02  0.45594000000E+02  0.51100000000E-03 0. -1.
         11   -1    0    0    0    0 -0.00000000000E+00 -0.00000000000E+00 -0.45593999997E+02  0.45594000000E+02  0.51100000000E-03 0.  1.
    9900012    2    1    2    0    0  0.34417266882E+02 -0.17039083596E+02  0.20217433365E+02  0.47787271420E+02  0.20000001710E+02 0.  0.
        -12    1    1    2    0    0 -0.34417266882E+02  0.17039083596E+02 -0.20217433365E+02  0.43400728580E+02  0.00000000000E+00 0.  1.
         11    1    3    3    0    0  0.46996551048E+01 -0.43045742969E+01  0.12485418722E+02  0.14017909933E+02  0.51100000000E-03 0. -1.
        -11    1    3    3    0    0  0.14911329011E+02 -0.91607205426E+01  0.25770452805E+01  0.17689197166E+02  0.51100000000E-03 0.  1.
         12    1    3    3    0    0  0.14806282767E+02 -0.35737887562E+01  0.51549693633E+01  0.16080164321E+02  0.00000000000E+00 0. -1.
</event>
<event>
 7    1  0.2714068E-010  0.4778728E+02  0.7816164E-02  0.1312668E+00
        -11   -1    0    0    0    0  0.00000000000E+00  0.00000000000E+00  0.45593999997E+02  0.45594000000E+02  0.51100000000E-03 0.  1.
         11   -1    0    0    0    0 -0.00000000000E+00 -0.00000000000E+00 -0.45593999997E+02  0.45594000000E+02  0.51100000000E-03 0. -1.
    9900012    2    1    2    0    0 -0.32964412093E+02 -0.11876301450E+02  0.25611007107E+02  0.47787277819E+02  0.20000030889E+02 0.  0.
        -12    1    1    2    0    0  0.32964412093E+02  0.11876301450E+02 -0.25611007107E+02  0.43400722181E+02  0.00000000000E+00 0.  1.
         11    1    3    3    0    0 -0.20639756306E+02 -0.74613548130E+01  0.86210443445E+01  0.23579519967E+02  0.51100000000E-03 0. -1.
        -11    1    3    3    0    0 -0.10984929038E+02 -0.55780141812E+01  0.18258856164E+02  0.22026546185E+02  0.51100000000E-03 0.  1.
         12    1    3    3    0    0 -0.13397267486E+01  0.11630675446E+01 -0.12688934008E+01  0.21812116671E+01  0.00000000000E+00 0. -1.
</event>
<event>
 7    1  0.2714068E-010  0.4778727E+02  0.7816164E-02  0.1312668E+00
        -11   -1    0    0    0    0  0.00000000000E+00  0.00000000000E+00  0.45593999997E+02  0.45594000000E+02  0.51100000000E-03 0. -1.
         11   -1    0    0    0    0 -0.00000000000E+00 -0.00000000000E+00 -0.45593999997E+02  0.45594000000E+02  0.51100000000E-03 0.  1.
    9900012    2    1    2    0    0 -0.33875222002E+02 -0.13378633194E+01  0.27098021987E+02  0.47787270287E+02  0.19999996548E+02 0.  0.
        -12    1    1    2    0    0  0.33875222002E+02  0.13378633194E+01 -0.27098021987E+02  0.43400729713E+02  0.00000000000E+00 0.  1.
         11    1    3    3    0    0 -0.56982971905E+01 -0.52249543068E+01  0.10032256261E+02  0.12665579510E+02  0.51100000000E-03 0. -1.
        -11    1    3    3    0    0 -0.28343236560E+02  0.49119516575E+01  0.17820234865E+02  0.33838249049E+02  0.51100000000E-03 0.  1.
        -12    1    3    3    0    0  0.16631174784E+00 -0.10248606700E+01 -0.75446913848E+00  0.12834417288E+01  0.00000000000E+00 0.  1.
</event>
<event>
 7    1  0.2714068E-010  0.4778727E+02  0.7816164E-02  0.1312668E+00
        -11   -1    0    0    0    0  0.00000000000E+00  0.00000000000E+00  0.45593999997E+02  0.45594000000E+02  0.51100000000E-03 0.  1.
         11   -1    0    0    0    0 -0.00000000000E+00 -0.00000000000E+00 -0.45593999997E+02  0.45594000000E+02  0.51100000000E-03 0. -1.
    9900012    2    1    2    0    0 -0.36240409210E+02  0.23728084543E+02 -0.26896214750E+01  0.47787270519E+02  0.19999997604E+02 0.  0.
        -12    1    1    2    0    0  0.36240409210E+02 -0.23728084543E+02  0.26896214750E+01  0.43400729481E+02  0.00000000000E+00 0.  1.
         11    1    3    3    0    0 -0.13831369180E+02  0.35172427718E+01  0.41887235998E+01  0.14873573066E+02  0.51100000000E-03 0.  1.
        -11    1    3    3    0    0 -0.30533306091E+01  0.95706765642E+01 -0.30346444691E+01  0.10494272010E+02  0.51100000000E-03 0. -1.
         12    1    3    3    0    0 -0.19355709421E+02  0.10640165207E+02 -0.38437006057E+01  0.22419425443E+02  0.00000000000E+00 0. -1.
</event>
<event>
 7    1  0.2714068E-010  0.4778727E+02  0.7816164E-02  0.1312668E+00
        -11   -1    0    0    0    0  0.00000000000E+00  0.00000000000E+00  0.45593999997E+02  0.45594000000E+02  0.51100000000E-03 0.  1.
         11   -1    0    0    0    0 -0.00000000000E+00 -0.00000000000E+00 -0.45593999997E+02  0.45594000000E+02  0.51100000000E-03 0. -1.
    9900012    2    1    2    0    0  0.22323298732E+02  0.36351815443E+02  0.79899302825E+01  0.47787272607E+02  0.20000007126E+02 0.  0.
        -12    1    1    2    0    0 -0.22323298732E+02 -0.36351815443E+02 -0.79899302825E+01  0.43400727393E+02  0.00000000000E+00 0.  1.
         11    1    3    3    0    0 -0.16129354981E+01  0.98388883107E+01  0.35638743915E+01  0.10588034995E+02  0.51100000000E-03 0. -1.
        -11    1    3    3    0    0  0.98709976563E+01  0.56935159063E+01  0.39789630189E+01  0.12069998553E+02  0.51100000000E-03 0.  1.
         12    1    3    3    0    0  0.14065236574E+02  0.20819411226E+02  0.44709287218E+00  0.25129239060E+02  0.00000000000E+00 0. -1.
</event>
<event>
 7    1  0.2714068E-010  0.4778727E+02  0.7816164E-02  0.1312668E+00
        -11   -1    0    0    0    0  0.00000000000E+00  0.00000000000E+00  0.45593999997E+02  0.45594000000E+02  0.51100000000E-03 0.  1.
         11   -1    0    0    0    0 -0.00000000000E+00 -0.00000000000E+00 -0.45593999997E+02  0.45594000000E+02  0.51100000000E-03 0. -1.
    9900012    2    1    2    0    0 -0.33776307816E+02 -0.25290006320E+02 -0.10158751851E+02  0.47787266959E+02  0.19999981373E+02 0.  0.
        -12    1    1    2    0    0  0.33776307816E+02  0.25290006320E+02  0.10158751851E+02  0.43400733041E+02  0.00000000000E+00 0.  1.
         11    1    3    3    0    0 -0.11261691841E+02 -0.82472962869E+01 -0.59896146036E+01  0.15189439836E+02  0.51100000000E-03 0. -1.
        -11    1    3    3    0    0 -0.36293286427E+01 -0.10568116525E+02 -0.57581921973E+01  0.12570357629E+02  0.51100000000E-03 0.  1.
        -12    1    3    3    0    0 -0.18885287332E+02 -0.64745935085E+01  0.15890549499E+01  0.20027469494E+02  0.00000000000E+00 0.  1.
</event>
<event>
 7    1  0.2714068E-010  0.4778727E+02  0.7816164E-02  0.1312668E+00
        -11   -1    0    0    0    0  0.00000000000E+00  0.00000000000E+00  0.45593999997E+02  0.45594000000E+02  0.51100000000E-03 0.  1.
         11   -1    0    0    0    0 -0.00000000000E+00 -0.00000000000E+00 -0.45593999997E+02  0.45594000000E+02  0.51100000000E-03 0. -1.
    9900012    2    1    2    0    0 -0.38794440833E+02 -0.19088338781E+02 -0.37749353316E+01  0.47787268972E+02  0.19999990551E+02 0.  0.
        -12    1    1    2    0    0  0.38794440833E+02  0.19088338781E+02  0.37749353316E+01  0.43400731028E+02  0.00000000000E+00 0.  1.
         11    1    3    3    0    0 -0.21230179160E+02 -0.63044955969E+01  0.25430941559E+00  0.22147953528E+02  0.51100000000E-03 0. -1.
        -11    1    3    3    0    0 -0.11525103722E+02 -0.14947778905E+02 -0.24559698012E+01  0.19034072027E+02  0.51100000000E-03 0.  1.
        -12    1    3    3    0    0 -0.60391579508E+01  0.21639357200E+01 -0.15732749460E+01  0.66052434180E+01  0.00000000000E+00 0.  1.
</event>
<event>
 7    1  0.2714068E-010  0.4778727E+02  0.7816164E-02  0.1312668E+00
        -11   -1    0    0    0    0  0.00000000000E+00  0.00000000000E+00  0.45593999997E+02  0.45594000000E+02  0.51100000000E-03 0. -1.
         11   -1    0    0    0    0 -0.00000000000E+00 -0.00000000000E+00 -0.45593999997E+02  0.45594000000E+02  0.51100000000E-03 0.  1.
    9900012    2    1    2    0    0 -0.12018801855E+02  0.35753420637E+02  0.21467758806E+02  0.47787270128E+02  0.19999995823E+02 0.  0.
        -12    1    1    2    0    0  0.12018801855E+02 -0.35753420637E+02 -0.21467758806E+02  0.43400729872E+02  0.00000000000E+00 0.  1.
         11    1    3    3    0    0 -0.10905117355E+02  0.16115819682E+02  0.59092844898E+01  0.20336196104E+02  0.51100000000E-03 0. -1.
        -11    1    3    3    0    0  0.29906689207E+01  0.11612363366E+02  0.13773783981E+02  0.18262207121E+02  0.51100000000E-03 0.  1.
        -12    1    3    3    0    0 -0.41043534209E+01  0.80252375893E+01  0.17846903352E+01  0.91888669030E+01  0.00000000000E+00 0.  1.
</event>
<event>
 7    1  0.2714068E-010  0.4778727E+02  0.7816164E-02  0.1312668E+00
        -11   -1    0    0    0    0  0.00000000000E+00  0.00000000000E+00  0.45593999997E+02  0.45594000000E+02  0.51100000000E-03 0.  1.
         11   -1    0    0    0    0 -0.00000000000E+00 -0.00000000000E+00 -0.45593999997E+02  0.45594000000E+02  0.51100000000E-03 0. -1.
    9900012    2    1    2    0    0 -0.21716386620E+02 -0.15757008902E+02 -0.34113615542E+02  0.47787267947E+02  0.19999985878E+02 0.  0.
        -12    1    1    2    0    0  0.21716386620E+02  0.15757008902E+02  0.34113615542E+02  0.43400732053E+02  0.00000000000E+00 0.  1.
         11    1    3    3    0    0  0.10536009812E+01  0.81937424433E+00 -0.76986521064E+01  0.78134943333E+01  0.51100000000E-03 0. -1.
        -11    1    3    3    0    0 -0.17952448235E+02 -0.17441988433E+02 -0.23113488757E+02  0.34069733208E+02  0.51100000000E-03 0.  1.
        -12    1    3    3    0    0 -0.48175393655E+01  0.86560528636E+00 -0.33014746793E+01  0.59040404054E+01  0.00000000000E+00 0.  1.
</event>
<event>
 7    1  0.2714068E-010  0.4778727E+02  0.7816164E-02  0.1312668E+00
        -11   -1    0    0    0    0  0.00000000000E+00  0.00000000000E+00  0.45593999997E+02  0.45594000000E+02  0.51100000000E-03 0.  1.
         11   -1    0    0    0    0 -0.00000000000E+00 -0.00000000000E+00 -0.45593999997E+02  0.45594000000E+02  0.51100000000E-03 0. -1.
    9900012    2    1    2    0    0  0.17311079873E+02  0.33201691006E+02 -0.21945331394E+02  0.47787270259E+02  0.19999996421E+02 0.  0.
        -12    1    1    2    0    0 -0.17311079873E+02 -0.33201691006E+02  0.21945331394E+02  0.43400729741E+02  0.00000000000E+00 0.  1.
         11    1    3    3    0    0  0.67680075237E+01  0.22616958981E+02 -0.20956701189E+02  0.31567642997E+02  0.51100000000E-03 0. -1.
        -11    1    3    3    0    0  0.40021338204E+01  0.41153997249E+00  0.41193399111E+00  0.40442712742E+01  0.51100000000E-03 0.  1.
         12    1    3    3    0    0  0.65409385287E+01  0.10173192052E+02 -0.14005641959E+01  0.12175355988E+02  0.00000000000E+00 0. -1.
</event>
<event>
 7    1  0.2714068E-010  0.4778726E+02  0.7816164E-02  0.1312668E+00
        -11   -1    0    0    0    0  0.00000000000E+00  0.00000000000E+00  0.45593999997E+02  0.45594000000E+02  0.51100000000E-03 0.  1.
         11   -1    0    0    0    0 -0.00000000000E+00 -0.00000000000E+00 -0.45593999997E+02  0.45594000000E+02  0.51100000000E-03 0. -1.
    9900012    2    1    2    0    0  0.14876260798E+02  0.37638914948E+02 -0.15672697921E+02  0.47787256759E+02  0.19999934867E+02 0.  0.
        -12    1    1    2    0    0 -0.14876260798E+02 -0.37638914948E+02  0.15672697921E+02  0.43400743241E+02  0.00000000000E+00 0.  1.
         11    1    3    3    0    0 -0.25377675518E+01  0.12340693029E+02 -0.31309243024E+01  0.12982128325E+02  0.51100000000E-03 0. -1.
        -11    1    3    3    0    0  0.11378676928E+02  0.77553077559E+01 -0.37285350083E+01  0.14266080772E+02  0.51100000000E-03 0.  1.
         12    1    3    3    0    0  0.60353514214E+01  0.17542914162E+02 -0.88132386101E+01  0.20539047663E+02  0.00000000000E+00 0. -1.
</event>
<event>
 7    1  0.2714068E-010  0.4778727E+02  0.7816164E-02  0.1312668E+00
        -11   -1    0    0    0    0  0.00000000000E+00  0.00000000000E+00  0.45593999997E+02  0.45594000000E+02  0.51100000000E-03 0.  1.
         11   -1    0    0    0    0 -0.00000000000E+00 -0.00000000000E+00 -0.45593999997E+02  0.45594000000E+02  0.51100000000E-03 0. -1.
    9900012    2    1    2    0    0 -0.84723748598E+01 -0.10695796239E+02 -0.41200029372E+02  0.47787267136E+02  0.19999982179E+02 0.  0.
        -12    1    1    2    0    0  0.84723748598E+01  0.10695796239E+02  0.41200029372E+02  0.43400732864E+02  0.00000000000E+00 0.  1.
         11    1    3    3    0    0  0.26485794544E+01 -0.38755123634E+01 -0.16682767093E+02  0.17330588200E+02  0.51100000000E-03 0. -1.
        -11    1    3    3    0    0 -0.72287193077E+01  0.19057755827E+01 -0.58732661321E+01  0.95069247773E+01  0.51100000000E-03 0.  1.
        -12    1    3    3    0    0 -0.38922350065E+01 -0.87260594578E+01 -0.18643996146E+02  0.20949754159E+02  0.00000000000E+00 0.  1.
</event>
<event>
 7    1  0.2714068E-010  0.4778727E+02  0.7816164E-02  0.1312668E+00
        -11   -1    0    0    0    0  0.00000000000E+00  0.00000000000E+00  0.45593999997E+02  0.45594000000E+02  0.51100000000E-03 0.  1.
         11   -1    0    0    0    0 -0.00000000000E+00 -0.00000000000E+00 -0.45593999997E+02  0.45594000000E+02  0.51100000000E-03 0. -1.
    9900012    2    1    2    0    0 -0.18592122568E+02  0.19880240825E+02 -0.33804323373E+02  0.47787271025E+02  0.19999999911E+02 0.  0.
        -12    1    1    2    0    0  0.18592122568E+02 -0.19880240825E+02  0.33804323373E+02  0.43400728975E+02  0.00000000000E+00 0.  1.
         11    1    3    3    0    0 -0.11570626349E+02  0.15801538930E+01 -0.12321815022E+02  0.16976554601E+02  0.51100000000E-03 0. -1.
        -11    1    3    3    0    0 -0.14871874244E+01  0.46915178408E+01 -0.16877432619E+00  0.49244848584E+01  0.51100000000E-03 0.  1.
         12    1    3    3    0    0 -0.55343087943E+01  0.13608569091E+02 -0.21313734025E+02  0.25886231565E+02  0.00000000000E+00 0. -1.
</event>
<event>
 7    1  0.2714068E-010  0.4778727E+02  0.7816164E-02  0.1312668E+00
        -11   -1    0    0    0    0  0.00000000000E+00  0.00000000000E+00  0.45593999997E+02  0.45594000000E+02  0.51100000000E-03 0.  1.
         11   -1    0    0    0    0 -0.00000000000E+00 -0.00000000000E+00 -0.45593999997E+02  0.45594000000E+02  0.51100000000E-03 0. -1.
    9900012    2    1    2    0    0 -0.23700658549E+02  0.17945284122E+02 -0.31620697732E+02  0.47787274626E+02  0.20000016331E+02 0.  0.
        -12    1    1    2    0    0  0.23700658549E+02 -0.17945284122E+02  0.31620697732E+02  0.43400725374E+02  0.00000000000E+00 0.  1.
         11    1    3    3    0    0 -0.35189833218E+01  0.48870358515E+01 -0.61837004997E+01  0.86315998033E+01  0.51100000000E-03 0. -1.
        -11    1    3    3    0    0  0.16940808555E+01  0.29517504661E+01  0.83664248874E+00  0.35046699808E+01  0.51100000000E-03 0.  1.
        -12    1    3    3    0    0 -0.21875756083E+02  0.10106497805E+02 -0.26273639721E+02  0.35651004842E+02  0.00000000000E+00 0.  1.
</event>
<event>
 7    1  0.2714068E-010  0.4778727E+02  0.7816164E-02  0.1312668E+00
        -11   -1    0    0    0    0  0.00000000000E+00  0.00000000000E+00  0.45593999997E+02  0.45594000000E+02  0.51100000000E-03 0.  1.
         11   -1    0    0    0    0 -0.00000000000E+00 -0.00000000000E+00 -0.45593999997E+02  0.45594000000E+02  0.51100000000E-03 0. -1.
    9900012    2    1    2    0    0 -0.28347278708E+02  0.21652710374E+02 -0.24722767079E+02  0.47787270874E+02  0.19999999222E+02 0.  0.
        -12    1    1    2    0    0  0.28347278708E+02 -0.21652710374E+02  0.24722767079E+02  0.43400729126E+02  0.00000000000E+00 0.  1.
         11    1    3    3    0    0 -0.12456263873E+01  0.72271767626E+01  0.76689191670E+00  0.73737231116E+01  0.51100000000E-03 0. -1.
        -11    1    3    3    0    0 -0.13760949175E+02  0.61115771290E+01 -0.16364431210E+02  0.22237574200E+02  0.51100000000E-03 0.  1.
         12    1    3    3    0    0 -0.13340703145E+02  0.83139564821E+01 -0.91252277852E+01  0.18175973562E+02  0.00000000000E+00 0. -1.
</event>
<event>
 7    1  0.2714068E-010  0.4778727E+02  0.7816164E-02  0.1312668E+00
        -11   -1    0    0    0    0  0.00000000000E+00  0.00000000000E+00  0.45593999997E+02  0.45594000000E+02  0.51100000000E-03 0.  1.
         11   -1    0    0    0    0 -0.00000000000E+00 -0.00000000000E+00 -0.45593999997E+02  0.45594000000E+02  0.51100000000E-03 0. -1.
    9900012    2    1    2    0    0  0.21152276796E+02 -0.15746206439E+02 -0.34471170026E+02  0.47787269662E+02  0.19999993698E+02 0.  0.
        -12    1    1    2    0    0 -0.21152276796E+02  0.15746206439E+02  0.34471170026E+02  0.43400730338E+02  0.00000000000E+00 0.  1.
         11    1    3    3    0    0 -0.67666267344E+00 -0.58543396488E+01 -0.16359079696E+02  0.17388233201E+02  0.51100000000E-03 0. -1.
        -11    1    3    3    0    0  0.15360080779E+02 -0.74894835797E+01 -0.10203499712E+02  0.19903161871E+02  0.51100000000E-03 0.  1.
         12    1    3    3    0    0  0.64688586900E+01 -0.24023832105E+01 -0.79085906185E+01  0.10495874590E+02  0.00000000000E+00 0. -1.
</event>
<event>
 7    1  0.2714068E-010  0.4778728E+02  0.7816164E-02  0.1312668E+00
        -11   -1    0    0    0    0  0.00000000000E+00  0.00000000000E+00  0.45593999997E+02  0.45594000000E+02  0.51100000000E-03 0.  1.
         11   -1    0    0    0    0 -0.00000000000E+00 -0.00000000000E+00 -0.45593999997E+02  0.45594000000E+02  0.51100000000E-03 0. -1.
    9900012    2    1    2    0    0 -0.26869390574E+02 -0.12067968524E+02 -0.31875113470E+02  0.47787275665E+02  0.20000021065E+02 0.  0.
        -12    1    1    2    0    0  0.26869390574E+02  0.12067968524E+02  0.31875113470E+02  0.43400724335E+02  0.00000000000E+00 0.  1.
         11    1    3    3    0    0 -0.13642987066E+02 -0.54042641810E+01 -0.16797588795E+02  0.22304621875E+02  0.51100000000E-03 0. -1.
        -11    1    3    3    0    0 -0.42926027559E+01 -0.14393251047E+01  0.24349549851E+01  0.51407296386E+01  0.51100000000E-03 0.  1.
        -12    1    3    3    0    0 -0.89338007520E+01 -0.52243792380E+01 -0.17512479660E+02  0.20341924151E+02  0.00000000000E+00 0.  1.
</event>
<event>
 7    1  0.2714068E-010  0.4778727E+02  0.7816164E-02  0.1312668E+00
        -11   -1    0    0    0    0  0.00000000000E+00  0.00000000000E+00  0.45593999997E+02  0.45594000000E+02  0.51100000000E-03 0.  1.
         11   -1    0    0    0    0 -0.00000000000E+00 -0.00000000000E+00 -0.45593999997E+02  0.45594000000E+02  0.51100000000E-03 0. -1.
    9900012    2    1    2    0    0  0.19933701057E+02 -0.37473000525E+02  0.90578613585E+01  0.47787273524E+02  0.20000011307E+02 0.  0.
        -12    1    1    2    0    0 -0.19933701057E+02  0.37473000525E+02 -0.90578613585E+01  0.43400726476E+02  0.00000000000E+00 0.  1.
         11    1    3    3    0    0  0.14679307346E+02 -0.37919970509E+02  0.67860726669E+01  0.41224471010E+02  0.51100000000E-03 0. -1.
        -11    1    3    3    0    0  0.51444548256E+01 -0.37531553926E+00  0.24560123762E+01  0.57129917083E+01  0.51100000000E-03 0.  1.
         12    1    3    3    0    0  0.10993888547E+00  0.82228552289E+00 -0.18422368461E+00  0.84981080581E+00  0.00000000000E+00 0. -1.
</event>
<event>
 7    1  0.2714068E-010  0.4778727E+02  0.7816164E-02  0.1312668E+00
        -11   -1    0    0    0    0  0.00000000000E+00  0.00000000000E+00  0.45593999997E+02  0.45594000000E+02  0.51100000000E-03 0.  1.
         11   -1    0    0    0    0 -0.00000000000E+00 -0.00000000000E+00 -0.45593999997E+02  0.45594000000E+02  0.51100000000E-03 0. -1.
    9900012    2    1    2    0    0 -0.33377685256E+02 -0.19812744478E+02  0.19416702520E+02  0.47787273583E+02  0.20000011573E+02 0.  0.
        -12    1    1    2    0    0  0.33377685256E+02  0.19812744478E+02 -0.19416702520E+02  0.43400726417E+02  0.00000000000E+00 0.  1.
         11    1    3    3    0    0 -0.13629028518E+02 -0.17812908684E+01  0.16797779920E+01  0.13847204406E+02  0.51100000000E-03 0. -1.
        -11    1    3    3    0    0 -0.16965775408E+02 -0.17474848268E+02  0.11187879569E+02  0.26802546646E+02  0.51100000000E-03 0.  1.
         12    1    3    3    0    0 -0.27828813310E+01 -0.55660534114E+00  0.65490449588E+01  0.71375225310E+01  0.00000000000E+00 0. -1.
</event>
<event>
 7    1  0.2714068E-010  0.4778727E+02  0.7816164E-02  0.1312668E+00
        -11   -1    0    0    0    0  0.00000000000E+00  0.00000000000E+00  0.45593999997E+02  0.45594000000E+02  0.51100000000E-03 0.  1.
         11   -1    0    0    0    0 -0.00000000000E+00 -0.00000000000E+00 -0.45593999997E+02  0.45594000000E+02  0.51100000000E-03 0. -1.
    9900012    2    1    2    0    0 -0.10791273174E+01 -0.43369342973E+02  0.12484831112E+01  0.47787272636E+02  0.20000007255E+02 0.  0.
        -12    1    1    2    0    0  0.10791273174E+01  0.43369342973E+02 -0.12484831112E+01  0.43400727364E+02  0.00000000000E+00 0.  1.
         11    1    3    3    0    0  0.75648269290E+00 -0.13570169840E+02 -0.35587988265E+01  0.14049442156E+02  0.51100000000E-03 0. -1.
        -11    1    3    3    0    0  0.50028802285E+01 -0.36509977655E+01  0.22501371807E+01  0.65895153735E+01  0.51100000000E-03 0.  1.
        -12    1    3    3    0    0 -0.68384902389E+01 -0.26148175367E+02  0.25571447569E+01  0.27148315106E+02  0.00000000000E+00 0.  1.
</event>
<event>
 7    1  0.2714068E-010  0.4778727E+02  0.7816164E-02  0.1312668E+00
        -11   -1    0    0    0    0  0.00000000000E+00  0.00000000000E+00  0.45593999997E+02  0.45594000000E+02  0.51100000000E-03 0.  1.
         11   -1    0    0    0    0 -0.00000000000E+00 -0.00000000000E+00 -0.45593999997E+02  0.45594000000E+02  0.51100000000E-03 0. -1.
    9900012    2    1    2    0    0  0.69476998928E+01 -0.42534068523E+02 -0.51191329638E+01  0.47787273724E+02  0.20000012219E+02 0.  0.
        -12    1    1    2    0    0 -0.69476998928E+01  0.42534068523E+02  0.51191329638E+01  0.43400726276E+02  0.00000000000E+00 0.  1.
         11    1    3    3    0    0  0.25206138998E+01 -0.32411283067E+02  0.22642031335E+01  0.32587902365E+02  0.51100000000E-03 0. -1.
        -11    1    3    3    0    0  0.96927496557E+00 -0.28861194022E+01  0.13601416469E+01  0.33345411564E+01  0.51100000000E-03 0.  1.
         12    1    3    3    0    0  0.34578110274E+01 -0.72366660545E+01 -0.87434777442E+01  0.11864830203E+02  0.00000000000E+00 0. -1.
</event>
<event>
 7    1  0.2714068E-010  0.4778727E+02  0.7816164E-02  0.1312668E+00
        -11   -1    0    0    0    0  0.00000000000E+00  0.00000000000E+00  0.45593999997E+02  0.45594000000E+02  0.51100000000E-03 0.  1.
         11   -1    0    0    0    0 -0.00000000000E+00 -0.00000000000E+00 -0.45593999997E+02  0.45594000000E+02  0.51100000000E-03 0. -1.
    9900012    2    1    2    0    0  0.64366906527E+00 -0.43177690934E+02 -0.43469613641E+01  0.47787269852E+02  0.19999994565E+02 0.  0.
        -12    1    1    2    0    0 -0.64366906527E+00  0.43177690934E+02  0.43469613641E+01  0.43400730148E+02  0.00000000000E+00 0.  1.
         11    1    3    3    0    0  0.28865411216E+00 -0.68926453523E+00 -0.17553296250E+01  0.19077707277E+01  0.51100000000E-03 0.  1.
        -11    1    3    3    0    0  0.65403896376E+01 -0.70870552496E+01  0.13029043936E+01  0.97314237829E+01  0.51100000000E-03 0. -1.
        -12    1    3    3    0    0 -0.61853746845E+01 -0.35401371149E+02 -0.38945361327E+01  0.36148075342E+02  0.00000000000E+00 0.  1.
</event>
<event>
 7    1  0.2714068E-010  0.4778727E+02  0.7816164E-02  0.1312668E+00
        -11   -1    0    0    0    0  0.00000000000E+00  0.00000000000E+00  0.45593999997E+02  0.45594000000E+02  0.51100000000E-03 0.  1.
         11   -1    0    0    0    0 -0.00000000000E+00 -0.00000000000E+00 -0.45593999997E+02  0.45594000000E+02  0.51100000000E-03 0. -1.
    9900012    2    1    2    0    0  0.25558450151E+02  0.86206420753E+01 -0.34001077143E+02  0.47787273154E+02  0.20000009617E+02 0.  0.
        -12    1    1    2    0    0 -0.25558450151E+02 -0.86206420753E+01  0.34001077143E+02  0.43400726846E+02  0.00000000000E+00 0.  1.
         11    1    3    3    0    0  0.58868599236E+01 -0.67114596423E+00 -0.73646490189E+01  0.94521749930E+01  0.51100000000E-03 0. -1.
        -11    1    3    3    0    0  0.58554536345E+01  0.11178640543E+02 -0.75772964362E+01  0.14719502818E+02  0.51100000000E-03 0.  1.
        -12    1    3    3    0    0  0.13816136593E+02 -0.18868525033E+01 -0.19059131688E+02  0.23615595343E+02  0.00000000000E+00 0.  1.
</event>
<event>
 7    1  0.2714068E-010  0.4778727E+02  0.7816164E-02  0.1312668E+00
        -11   -1    0    0    0    0  0.00000000000E+00  0.00000000000E+00  0.45593999997E+02  0.45594000000E+02  0.51100000000E-03 0. -1.
         11   -1    0    0    0    0 -0.00000000000E+00 -0.00000000000E+00 -0.45593999997E+02  0.45594000000E+02  0.51100000000E-03 0.  1.
    9900012    2    1    2    0    0 -0.38361042741E+02 -0.40533410066E+01  0.19890301017E+02  0.47787271342E+02  0.20000001358E+02 0.  0.
        -12    1    1    2    0    0  0.38361042741E+02  0.40533410066E+01 -0.19890301017E+02  0.43400728658E+02  0.00000000000E+00 0.  1.
         11    1    3    3    0    0 -0.33883177390E+02 -0.17190130209E+01  0.21582168038E+02  0.40209634334E+02  0.51100000000E-03 0. -1.
        -11    1    3    3    0    0 -0.33035272885E+01 -0.36657556868E+01  0.25701628956E+00  0.49413677191E+01  0.51100000000E-03 0.  1.
         12    1    3    3    0    0 -0.11743380630E+01  0.13314277011E+01 -0.19488833106E+01  0.26362692897E+01  0.00000000000E+00 0. -1.
</event>
<event>
 7    1  0.2714068E-010  0.4778727E+02  0.7816164E-02  0.1312668E+00
        -11   -1    0    0    0    0  0.00000000000E+00  0.00000000000E+00  0.45593999997E+02  0.45594000000E+02  0.51100000000E-03 0.  1.
         11   -1    0    0    0    0 -0.00000000000E+00 -0.00000000000E+00 -0.45593999997E+02  0.45594000000E+02  0.51100000000E-03 0. -1.
    9900012    2    1    2    0    0 -0.15548850654E+02 -0.31482162070E+02 -0.25509408008E+02  0.47787272101E+02  0.20000004816E+02 0.  0.
        -12    1    1    2    0    0  0.15548850654E+02  0.31482162070E+02  0.25509408008E+02  0.43400727899E+02  0.00000000000E+00 0.  1.
         11    1    3    3    0    0 -0.13093334890E+02 -0.19059733035E+02 -0.11021666468E+02  0.25616127223E+02  0.51100000000E-03 0. -1.
        -11    1    3    3    0    0 -0.44957094768E+01 -0.23040681638E+01 -0.93867943633E+00  0.51382149769E+01  0.51100000000E-03 0.  1.
         12    1    3    3    0    0  0.20401937130E+01 -0.10118360871E+02 -0.13549062104E+02  0.17032929901E+02  0.00000000000E+00 0. -1.
</event>
<event>
 7    1  0.2714068E-010  0.4778727E+02  0.7816164E-02  0.1312668E+00
        -11   -1    0    0    0    0  0.00000000000E+00  0.00000000000E+00  0.45593999997E+02  0.45594000000E+02  0.51100000000E-03 0.  1.
         11   -1    0    0    0    0 -0.00000000000E+00 -0.00000000000E+00 -0.45593999997E+02  0.45594000000E+02  0.51100000000E-03 0. -1.
    9900012    2    1    2    0    0  0.20795502131E+02  0.35201819726E+02 -0.14560288507E+02  0.47787273943E+02  0.20000013214E+02 0.  0.
        -12    1    1    2    0    0 -0.20795502131E+02 -0.35201819726E+02  0.14560288507E+02  0.43400726057E+02  0.00000000000E+00 0.  1.
         11    1    3    3    0    0  0.18035158096E+02  0.25412734009E+02 -0.95446913342E+01  0.32591028064E+02  0.51100000000E-03 0. -1.
        -11    1    3    3    0    0 -0.18051194164E+00 -0.26655187589E+00  0.23611132330E+01  0.23829583344E+01  0.51100000000E-03 0.  1.
         12    1    3    3    0    0  0.29408559767E+01  0.10055637594E+02 -0.73767104053E+01  0.12813287544E+02  0.00000000000E+00 0. -1.
</event>
<event>
 7    1  0.2714068E-010  0.4778726E+02  0.7816164E-02  0.1312668E+00
        -11   -1    0    0    0    0  0.00000000000E+00  0.00000000000E+00  0.45593999997E+02  0.45594000000E+02  0.51100000000E-03 0.  1.
         11   -1    0    0    0    0 -0.00000000000E+00 -0.00000000000E+00 -0.45593999997E+02  0.45594000000E+02  0.51100000000E-03 0. -1.
    9900012    2    1    2    0    0  0.22739042519E+02 -0.26911449666E+02 -0.25344302151E+02  0.47787264645E+02  0.19999970825E+02 0.  0.
        -12    1    1    2    0    0 -0.22739042519E+02  0.26911449666E+02  0.25344302151E+02  0.43400735355E+02  0.00000000000E+00 0.  1.
         11    1    3    3    0    0  0.22348784439E+01 -0.85978232344E+01 -0.56528192623E+01  0.10529558960E+02  0.51100000000E-03 0. -1.
        -11    1    3    3    0    0  0.14647115606E+02 -0.47483152402E+01 -0.44453012573E+01  0.16026390633E+02  0.51100000000E-03 0.  1.
        -12    1    3    3    0    0  0.58570484684E+01 -0.13565311191E+02 -0.15246181632E+02  0.21231315052E+02  0.00000000000E+00 0.  1.
</event>
<event>
 7    1  0.2714068E-010  0.4778727E+02  0.7816164E-02  0.1312668E+00
        -11   -1    0    0    0    0  0.00000000000E+00  0.00000000000E+00  0.45593999997E+02  0.45594000000E+02  0.51100000000E-03 0.  1.
         11   -1    0    0    0    0 -0.00000000000E+00 -0.00000000000E+00 -0.45593999997E+02  0.45594000000E+02  0.51100000000E-03 0. -1.
    9900012    2    1    2    0    0 -0.28133179275E+02  0.30979934877E+02  0.11506132465E+02  0.47787271603E+02  0.20000002548E+02 0.  0.
        -12    1    1    2    0    0  0.28133179275E+02 -0.30979934877E+02 -0.11506132465E+02  0.43400728397E+02  0.00000000000E+00 0.  1.
         11    1    3    3    0    0 -0.34017046140E+00  0.13769455962E+00  0.31913001275E+01  0.32123313185E+01  0.51100000000E-03 0.  1.
        -11    1    3    3    0    0 -0.15607448690E+02  0.26604655640E+02  0.49230610988E+01  0.31235183482E+02  0.51100000000E-03 0. -1.
        -12    1    3    3    0    0 -0.12185560123E+02  0.42375846773E+01  0.33917712390E+01  0.13339756802E+02  0.00000000000E+00 0.  1.
</event>
<event>
 7    1  0.2714068E-010  0.4778725E+02  0.7816164E-02  0.1312668E+00
        -11   -1    0    0    0    0  0.00000000000E+00  0.00000000000E+00  0.45593999997E+02  0.45594000000E+02  0.51100000000E-03 0.  1.
         11   -1    0    0    0    0 -0.00000000000E+00 -0.00000000000E+00 -0.45593999997E+02  0.45594000000E+02  0.51100000000E-03 0. -1.
    9900012    2    1    2    0    0  0.69188043432E+01 -0.20823139624E+02 -0.37445321892E+02  0.47787249673E+02  0.19999902561E+02 0.  0.
        -12    1    1    2    0    0 -0.69188043432E+01  0.20823139624E+02  0.37445321892E+02  0.43400750327E+02  0.00000000000E+00 0.  1.
         11    1    3    3    0    0 -0.65969905602E+01 -0.36002761118E+01 -0.11004659721E+02  0.13326095015E+02  0.51100000000E-03 0. -1.
        -11    1    3    3    0    0  0.63644958669E+01 -0.97255679886E+01 -0.12201908910E+02  0.16851707974E+02  0.51100000000E-03 0.  1.
         12    1    3    3    0    0  0.71512990365E+01 -0.74972955237E+01 -0.14238753261E+02  0.17609446684E+02  0.00000000000E+00 0. -1.
</event>
<event>
 7    1  0.2714068E-010  0.4778728E+02  0.7816164E-02  0.1312668E+00
        -11   -1    0    0    0    0  0.00000000000E+00  0.00000000000E+00  0.45593999997E+02  0.45594000000E+02  0.51100000000E-03 0.  1.
         11   -1    0    0    0    0 -0.00000000000E+00 -0.00000000000E+00 -0.45593999997E+02  0.45594000000E+02  0.51100000000E-03 0. -1.
    9900012    2    1    2    0    0 -0.30555302137E+02 -0.24010602805E+02 -0.19325803767E+02  0.47787283106E+02  0.20000054992E+02 0.  0.
        -12    1    1    2    0    0  0.30555302137E+02  0.24010602805E+02  0.19325803767E+02  0.43400716894E+02  0.00000000000E+00 0.  1.
         11    1    3    3    0    0 -0.12711400162E+02 -0.16620405797E+02 -0.95172494274E+01  0.22986857546E+02  0.51100000000E-03 0. -1.
        -11    1    3    3    0    0 -0.11870225464E+02 -0.33248681292E+01  0.35249210975E+00  0.12332122753E+02  0.51100000000E-03 0.  1.
        -12    1    3    3    0    0 -0.59736765113E+01 -0.40653288788E+01 -0.10161046449E+02  0.12468302807E+02  0.00000000000E+00 0.  1.
</event>
<event>
 7    1  0.2714068E-010  0.4778727E+02  0.7816164E-02  0.1312668E+00
        -11   -1    0    0    0    0  0.00000000000E+00  0.00000000000E+00  0.45593999997E+02  0.45594000000E+02  0.51100000000E-03 0.  1.
         11   -1    0    0    0    0 -0.00000000000E+00 -0.00000000000E+00 -0.45593999997E+02  0.45594000000E+02  0.51100000000E-03 0. -1.
    9900012    2    1    2    0    0  0.14932139169E+02  0.66414693614E+01 -0.40206286187E+02  0.47787270232E+02  0.19999996296E+02 0.  0.
        -12    1    1    2    0    0 -0.14932139169E+02 -0.66414693614E+01  0.40206286187E+02  0.43400729768E+02  0.00000000000E+00 0.  1.
         11    1    3    3    0    0  0.15156876850E+02 -0.31281895345E+01 -0.28431011404E+02  0.32370339747E+02  0.51100000000E-03 0. -1.
        -11    1    3    3    0    0  0.20062135357E+00  0.72671424068E+01 -0.75022043263E+01  0.10446754410E+02  0.51100000000E-03 0.  1.
         12    1    3    3    0    0 -0.42535903539E+00  0.25025164891E+01 -0.42730704572E+01  0.49701760753E+01  0.00000000000E+00 0. -1.
</event>
<event>
 7    1  0.2714068E-010  0.4778727E+02  0.7816164E-02  0.1312668E+00
        -11   -1    0    0    0    0  0.00000000000E+00  0.00000000000E+00  0.45593999997E+02  0.45594000000E+02  0.51100000000E-03 0.  1.
         11   -1    0    0    0    0 -0.00000000000E+00 -0.00000000000E+00 -0.45593999997E+02  0.45594000000E+02  0.51100000000E-03 0. -1.
    9900012    2    1    2    0    0 -0.11113850825E+02 -0.74821408451E+01 -0.41281031423E+02  0.47787266514E+02  0.19999979342E+02 0.  0.
        -12    1    1    2    0    0  0.11113850825E+02  0.74821408451E+01  0.41281031423E+02  0.43400733486E+02  0.00000000000E+00 0.  1.
         11    1    3    3    0    0 -0.49871935882E+01  0.52405770062E+01 -0.16651856343E+02  0.18155441806E+02  0.51100000000E-03 0. -1.
        -11    1    3    3    0    0 -0.36319340385E+00 -0.15806345261E+01  0.36848083538E+00  0.16631576416E+01  0.51100000000E-03 0.  1.
         12    1    3    3    0    0 -0.57634638331E+01 -0.11142083325E+02 -0.24997655916E+02  0.27968667066E+02  0.00000000000E+00 0. -1.
</event>
<event>
 7    1  0.2714068E-010  0.4778727E+02  0.7816164E-02  0.1312668E+00
        -11   -1    0    0    0    0  0.00000000000E+00  0.00000000000E+00  0.45593999997E+02  0.45594000000E+02  0.51100000000E-03 0.  1.
         11   -1    0    0    0    0 -0.00000000000E+00 -0.00000000000E+00 -0.45593999997E+02  0.45594000000E+02  0.51100000000E-03 0. -1.
    9900012    2    1    2    0    0  0.42796597094E+01  0.42043140421E+02  0.98834309609E+01  0.47787270153E+02  0.19999995935E+02 0.  0.
        -12    1    1    2    0    0 -0.42796597094E+01 -0.42043140421E+02 -0.98834309609E+01  0.43400729847E+02  0.00000000000E+00 0.  1.
         11    1    3    3    0    0 -0.65794571987E+01  0.20412797452E+02  0.73032302280E+01  0.22656317637E+02  0.51100000000E-03 0. -1.
        -11    1    3    3    0    0  0.87317297114E+01  0.15283213644E+02 -0.82391725735E+00  0.17620969410E+02  0.51100000000E-03 0.  1.
         12    1    3    3    0    0  0.21273871967E+01  0.63471293262E+01  0.34041179902E+01  0.75099831064E+01  0.00000000000E+00 0. -1.
</event>
<event>
 7    1  0.2714068E-010  0.4778727E+02  0.7816164E-02  0.1312668E+00
        -11   -1    0    0    0    0  0.00000000000E+00  0.00000000000E+00  0.45593999997E+02  0.45594000000E+02  0.51100000000E-03 0.  1.
         11   -1    0    0    0    0 -0.00000000000E+00 -0.00000000000E+00 -0.45593999997E+02  0.45594000000E+02  0.51100000000E-03 0. -1.
    9900012    2    1    2    0    0 -0.29251078451E+02  0.16484266392E+02 -0.27500300443E+02  0.47787272432E+02  0.20000006324E+02 0.  0.
        -12    1    1    2    0    0  0.29251078451E+02 -0.16484266392E+02  0.27500300443E+02  0.43400727568E+02  0.00000000000E+00 0.  1.
         11    1    3    3    0    0 -0.13643625305E+02  0.24272719783E+01 -0.14995907919E+02  0.20418555662E+02  0.51100000000E-03 0. -1.
        -11    1    3    3    0    0 -0.39197962645E+01  0.73959987276E+01  0.84959844577E+00  0.84135258789E+01  0.51100000000E-03 0.  1.
         12    1    3    3    0    0 -0.11687656881E+02  0.66609956857E+01 -0.13353990970E+02  0.18955190891E+02  0.00000000000E+00 0. -1.
</event>
<event>
 7    1  0.2714068E-010  0.4778727E+02  0.7816164E-02  0.1312668E+00
        -11   -1    0    0    0    0  0.00000000000E+00  0.00000000000E+00  0.45593999997E+02  0.45594000000E+02  0.51100000000E-03 0. -1.
         11   -1    0    0    0    0 -0.00000000000E+00 -0.00000000000E+00 -0.45593999997E+02  0.45594000000E+02  0.51100000000E-03 0.  1.
    9900012    2    1    2    0    0 -0.15399081544E+02 -0.37598078177E+02  0.15260273036E+02  0.47787272723E+02  0.20000007655E+02 0.  0.
        -12    1    1    2    0    0  0.15399081544E+02  0.37598078177E+02 -0.15260273036E+02  0.43400727277E+02  0.00000000000E+00 0.  1.
         11    1    3    3    0    0 -0.75512987389E+01 -0.16447605947E+02  0.14529677592E+02  0.23208993628E+02  0.51100000000E-03 0. -1.
        -11    1    3    3    0    0 -0.78515266767E+01 -0.21085695185E+02 -0.13085648451E+01  0.22538086760E+02  0.51100000000E-03 0.  1.
        -12    1    3    3    0    0  0.37438716055E-02 -0.64777045231E-01  0.20391602892E+01  0.20401923358E+01  0.00000000000E+00 0.  1.
</event>
<event>
 7    1  0.2714068E-010  0.4778727E+02  0.7816164E-02  0.1312668E+00
        -11   -1    0    0    0    0  0.00000000000E+00  0.00000000000E+00  0.45593999997E+02  0.45594000000E+02  0.51100000000E-03 0.  1.
         11   -1    0    0    0    0 -0.00000000000E+00 -0.00000000000E+00 -0.45593999997E+02  0.45594000000E+02  0.51100000000E-03 0. -1.
    9900012    2    1    2    0    0 -0.11526136545E+02 -0.32124491862E+02 -0.26810230399E+02  0.47787271261E+02  0.20000000986E+02 0.  0.
        -12    1    1    2    0    0  0.11526136545E+02  0.32124491862E+02  0.26810230399E+02  0.43400728739E+02  0.00000000000E+00 0.  1.
         11    1    3    3    0    0 -0.23674716005E+01 -0.13322571446E+01 -0.53565241444E+01  0.60060121586E+01  0.51100000000E-03 0. -1.
        -11    1    3    3    0    0 -0.10042033244E+02 -0.78757837459E+01 -0.95702632462E+01  0.15951813068E+02  0.51100000000E-03 0.  1.
        -12    1    3    3    0    0  0.88336829943E+00 -0.22916450972E+02 -0.11883443008E+02  0.25829446034E+02  0.00000000000E+00 0.  1.
</event>
<event>
 7    1  0.2714068E-010  0.4778727E+02  0.7816164E-02  0.1312668E+00
        -11   -1    0    0    0    0  0.00000000000E+00  0.00000000000E+00  0.45593999997E+02  0.45594000000E+02  0.51100000000E-03 0. -1.
         11   -1    0    0    0    0 -0.00000000000E+00 -0.00000000000E+00 -0.45593999997E+02  0.45594000000E+02  0.51100000000E-03 0.  1.
    9900012    2    1    2    0    0 -0.35763379245E+02  0.20987804041E+02 -0.12810775279E+02  0.47787272164E+02  0.20000005104E+02 0.  0.
        -12    1    1    2    0    0  0.35763379245E+02 -0.20987804041E+02  0.12810775279E+02  0.43400727836E+02  0.00000000000E+00 0.  1.
         11    1    3    3    0    0  0.12543344454E+01  0.21550188682E+01 -0.27943480848E+01  0.37451091711E+01  0.51100000000E-03 0. -1.
        -11    1    3    3    0    0 -0.92020029777E+01  0.10252944799E+02 -0.30021428650E+01  0.14100092124E+02  0.51100000000E-03 0.  1.
         12    1    3    3    0    0 -0.27815710712E+02  0.85798403733E+01 -0.70142843288E+01  0.29942070869E+02  0.00000000000E+00 0. -1.
</event>
<event>
 7    1  0.2714068E-010  0.4778727E+02  0.7816164E-02  0.1312668E+00
        -11   -1    0    0    0    0  0.00000000000E+00  0.00000000000E+00  0.45593999997E+02  0.45594000000E+02  0.51100000000E-03 0.  1.
         11   -1    0    0    0    0 -0.00000000000E+00 -0.00000000000E+00 -0.45593999997E+02  0.45594000000E+02  0.51100000000E-03 0. -1.
    9900012    2    1    2    0    0 -0.29242877246E+02 -0.24136431690E+02 -0.21116583731E+02  0.47787270596E+02  0.19999997955E+02 0.  0.
        -12    1    1    2    0    0  0.29242877246E+02  0.24136431690E+02  0.21116583731E+02  0.43400729404E+02  0.00000000000E+00 0.  1.
         11    1    3    3    0    0 -0.94429245267E+01 -0.88004187347E+01 -0.18182471560E+02  0.22298396037E+02  0.51100000000E-03 0.  1.
        -11    1    3    3    0    0 -0.10650883862E+02 -0.90637490243E+01  0.11086093407E+00  0.13985891599E+02  0.51100000000E-03 0. -1.
         12    1    3    3    0    0 -0.91490688577E+01 -0.62722639305E+01 -0.30449731054E+01  0.11502982961E+02  0.00000000000E+00 0. -1.
</event>
<event>
 7    1  0.2714068E-010  0.4778727E+02  0.7816164E-02  0.1312668E+00
        -11   -1    0    0    0    0  0.00000000000E+00  0.00000000000E+00  0.45593999997E+02  0.45594000000E+02  0.51100000000E-03 0.  1.
         11   -1    0    0    0    0 -0.00000000000E+00 -0.00000000000E+00 -0.45593999997E+02  0.45594000000E+02  0.51100000000E-03 0. -1.
    9900012    2    1    2    0    0  0.15679825439E+02  0.29827717368E+02 -0.27350939147E+02  0.47787268193E+02  0.19999986998E+02 0.  0.
        -12    1    1    2    0    0 -0.15679825439E+02 -0.29827717368E+02  0.27350939147E+02  0.43400731807E+02  0.00000000000E+00 0.  1.
         11    1    3    3    0    0  0.12961338476E+02  0.14170295577E+02 -0.72285606885E+01  0.20519397206E+02  0.51100000000E-03 0. -1.
        -11    1    3    3    0    0  0.11108690169E+01  0.13889743546E+02 -0.20561813505E+02  0.24838421460E+02  0.51100000000E-03 0.  1.
        -12    1    3    3    0    0  0.16076179467E+01  0.17676782455E+01  0.43943504680E+00  0.24294495267E+01  0.00000000000E+00 0.  1.
</event>
<event>
 7    1  0.2714068E-010  0.4778727E+02  0.7816164E-02  0.1312668E+00
        -11   -1    0    0    0    0  0.00000000000E+00  0.00000000000E+00  0.45593999997E+02  0.45594000000E+02  0.51100000000E-03 0.  1.
         11   -1    0    0    0    0 -0.00000000000E+00 -0.00000000000E+00 -0.45593999997E+02  0.45594000000E+02  0.51100000000E-03 0. -1.
    9900012    2    1    2    0    0 -0.15133871380E+02  0.28778662502E+01 -0.40574710679E+02  0.47787270469E+02  0.19999997377E+02 0.  0.
        -12    1    1    2    0    0  0.15133871380E+02 -0.28778662502E+01  0.40574710679E+02  0.43400729531E+02  0.00000000000E+00 0.  1.
         11    1    3    3    0    0 -0.15478818554E+02  0.19166001301E+01 -0.40055673918E+02  0.42985162477E+02  0.51100000000E-03 0. -1.
        -11    1    3    3    0    0  0.21462028985E+00  0.27993259595E+01  0.22134801214E+00  0.28162533444E+01  0.51100000000E-03 0.  1.
        -12    1    3    3    0    0  0.13032688489E+00 -0.18380598393E+01 -0.74038477391E+00  0.19858546481E+01  0.00000000000E+00 0.  1.
</event>
<event>
 7    1  0.2714068E-010  0.4778727E+02  0.7816164E-02  0.1312668E+00
        -11   -1    0    0    0    0  0.00000000000E+00  0.00000000000E+00  0.45593999997E+02  0.45594000000E+02  0.51100000000E-03 0.  1.
         11   -1    0    0    0    0 -0.00000000000E+00 -0.00000000000E+00 -0.45593999997E+02  0.45594000000E+02  0.51100000000E-03 0. -1.
    9900012    2    1    2    0    0  0.43048055473E+02 -0.48518570705E+01 -0.26358749772E+01  0.47787269200E+02  0.19999991592E+02 0.  0.
        -12    1    1    2    0    0 -0.43048055473E+02  0.48518570705E+01  0.26358749772E+01  0.43400730800E+02  0.00000000000E+00 0.  1.
         11    1    3    3    0    0  0.10465466673E+02 -0.51475169429E+01 -0.34310584542E+01  0.12157100220E+02  0.51100000000E-03 0. -1.
        -11    1    3    3    0    0  0.28855229069E+02  0.46894388237E+01 -0.18456217667E+01  0.29292002340E+02  0.51100000000E-03 0.  1.
        -12    1    3    3    0    0  0.37273597309E+01 -0.43937789513E+01  0.26408052437E+01  0.63381666412E+01  0.00000000000E+00 0.  1.
</event>
<event>
 7    1  0.2714068E-010  0.4778728E+02  0.7816164E-02  0.1312668E+00
        -11   -1    0    0    0    0  0.00000000000E+00  0.00000000000E+00  0.45593999997E+02  0.45594000000E+02  0.51100000000E-03 0.  1.
         11   -1    0    0    0    0 -0.00000000000E+00 -0.00000000000E+00 -0.45593999997E+02  0.45594000000E+02  0.51100000000E-03 0. -1.
    9900012    2    1    2    0    0  0.15088909954E+02 -0.21216643191E+01 -0.40637988720E+02  0.47787276616E+02  0.20000025401E+02 0.  0.
        -12    1    1    2    0    0 -0.15088909954E+02  0.21216643191E+01  0.40637988720E+02  0.43400723384E+02  0.00000000000E+00 0.  1.
         11    1    3    3    0    0  0.27071325243E+01  0.29681562785E+00 -0.12443730828E+02  0.12738253538E+02  0.51100000000E-03 0. -1.
        -11    1    3    3    0    0  0.14051904475E+02 -0.36614830928E+01 -0.29293202547E+02  0.32694864942E+02  0.51100000000E-03 0.  1.
        -12    1    3    3    0    0 -0.16701270459E+01  0.12430031458E+01  0.10989446555E+01  0.23541581353E+01  0.00000000000E+00 0.  1.
</event>
<event>
 7    1  0.2714068E-010  0.4778727E+02  0.7816164E-02  0.1312668E+00
        -11   -1    0    0    0    0  0.00000000000E+00  0.00000000000E+00  0.45593999997E+02  0.45594000000E+02  0.51100000000E-03 0. -1.
         11   -1    0    0    0    0 -0.00000000000E+00 -0.00000000000E+00 -0.45593999997E+02  0.45594000000E+02  0.51100000000E-03 0.  1.
    9900012    2    1    2    0    0 -0.66907765212E+01 -0.20770370931E+02  0.37515979271E+02  0.47787268442E+02  0.19999988136E+02 0.  0.
        -12    1    1    2    0    0  0.66907765212E+01  0.20770370931E+02 -0.37515979271E+02  0.43400731558E+02  0.00000000000E+00 0.  1.
         11    1    3    3    0    0  0.36007719509E+01 -0.40419420493E+01  0.27608532977E+01  0.60766080477E+01  0.51100000000E-03 0. -1.
        -11    1    3    3    0    0 -0.11936436867E+02 -0.17548793336E+02  0.32054723568E+02  0.38444036936E+02  0.51100000000E-03 0.  1.
        -12    1    3    3    0    0  0.16448883953E+01  0.82036445437E+00  0.27004024056E+01  0.32666234590E+01  0.00000000000E+00 0.  1.
</event>
<event>
 7    1  0.2714068E-010  0.4778727E+02  0.7816164E-02  0.1312668E+00
        -11   -1    0    0    0    0  0.00000000000E+00  0.00000000000E+00  0.45593999997E+02  0.45594000000E+02  0.51100000000E-03 0.  1.
         11   -1    0    0    0    0 -0.00000000000E+00 -0.00000000000E+00 -0.45593999997E+02  0.45594000000E+02  0.51100000000E-03 0. -1.
    9900012    2    1    2    0    0 -0.12984702149E+02 -0.19627375945E+02 -0.36466244989E+02  0.47787269592E+02  0.19999993378E+02 0.  0.
        -12    1    1    2    0    0  0.12984702149E+02  0.19627375945E+02  0.36466244989E+02  0.43400730408E+02  0.00000000000E+00 0.  1.
         11    1    3    3    0    0 -0.10687486123E+02 -0.17197085043E+02 -0.19411153158E+02  0.28049152586E+02  0.51100000000E-03 0.  1.
        -11    1    3    3    0    0 -0.23488411391E+01 -0.16797120054E+01 -0.23062718742E+00  0.28968390149E+01  0.51100000000E-03 0. -1.
         12    1    3    3    0    0  0.51625112848E-01 -0.75057889564E+00 -0.16824464643E+02  0.16841277991E+02  0.00000000000E+00 0. -1.
</event>
<event>
 7    1  0.2714068E-010  0.4778727E+02  0.7816164E-02  0.1312668E+00
        -11   -1    0    0    0    0  0.00000000000E+00  0.00000000000E+00  0.45593999997E+02  0.45594000000E+02  0.51100000000E-03 0.  1.
         11   -1    0    0    0    0 -0.00000000000E+00 -0.00000000000E+00 -0.45593999997E+02  0.45594000000E+02  0.51100000000E-03 0. -1.
    9900012    2    1    2    0    0  0.16248994284E+02 -0.39839079601E+02 -0.56957051138E+01  0.47787272639E+02  0.20000007270E+02 0.  0.
        -12    1    1    2    0    0 -0.16248994284E+02  0.39839079601E+02  0.56957051138E+01  0.43400727361E+02  0.00000000000E+00 0.  1.
         11    1    3    3    0    0  0.43165397361E+01 -0.11563807550E+02 -0.43200545777E+01  0.13077348056E+02  0.51100000000E-03 0. -1.
        -11    1    3    3    0    0  0.15353128111E+02 -0.17119198305E+02 -0.14494591529E+01  0.23040972755E+02  0.51100000000E-03 0.  1.
        -12    1    3    3    0    0 -0.34206735635E+01 -0.11156073747E+02  0.73808616859E-01  0.11668951829E+02  0.00000000000E+00 0.  1.
</event>
<event>
 7    1  0.2714068E-010  0.4778724E+02  0.7816164E-02  0.1312668E+00
        -11   -1    0    0    0    0  0.00000000000E+00  0.00000000000E+00  0.45593999997E+02  0.45594000000E+02  0.51100000000E-03 0.  1.
         11   -1    0    0    0    0 -0.00000000000E+00 -0.00000000000E+00 -0.45593999997E+02  0.45594000000E+02  0.51100000000E-03 0. -1.
    9900012    2    1    2    0    0 -0.18563628551E+02  0.23613859204E+02 -0.31327350876E+02  0.47787244656E+02  0.19999879686E+02 0.  0.
        -12    1    1    2    0    0  0.18563628551E+02 -0.23613859204E+02  0.31327350876E+02  0.43400755344E+02  0.00000000000E+00 0.  1.
         11    1    3    3    0    0 -0.26644860412E+01 -0.29010915740E+01 -0.59448041699E+01  0.71313753978E+01  0.51100000000E-03 0. -1.
        -11    1    3    3    0    0 -0.43370583789E+01  0.14004122516E+02 -0.13022291386E+02  0.19608814243E+02  0.51100000000E-03 0.  1.
         12    1    3    3    0    0 -0.11562084131E+02  0.12510828262E+02 -0.12360255321E+02  0.21047055016E+02  0.00000000000E+00 0. -1.
</event>
<event>
 7    1  0.2714068E-010  0.4778727E+02  0.7816164E-02  0.1312668E+00
        -11   -1    0    0    0    0  0.00000000000E+00  0.00000000000E+00  0.45593999997E+02  0.45594000000E+02  0.51100000000E-03 0.  1.
         11   -1    0    0    0    0 -0.00000000000E+00 -0.00000000000E+00 -0.45593999997E+02  0.45594000000E+02  0.51100000000E-03 0. -1.
    9900012    2    1    2    0    0 -0.10814784672E+02  0.35904686490E+02 -0.21852171033E+02  0.47787268920E+02  0.19999990314E+02 0.  0.
        -12    1    1    2    0    0  0.10814784672E+02 -0.35904686490E+02  0.21852171033E+02  0.43400731080E+02  0.00000000000E+00 0.  1.
         11    1    3    3    0    0 -0.27938957020E+01  0.51585564301E+01 -0.66275338563E+01  0.88510317429E+01  0.51100000000E-03 0.  1.
        -11    1    3    3    0    0 -0.55008952990E+01  0.31050276616E+02 -0.17013728021E+02  0.35830803346E+02  0.51100000000E-03 0. -1.
        -12    1    3    3    0    0 -0.25199936706E+01 -0.30414655621E+00  0.17890908443E+01  0.31054338307E+01  0.00000000000E+00 0.  1.
</event>
<event>
 7    1  0.2714068E-010  0.4778727E+02  0.7816164E-02  0.1312668E+00
        -11   -1    0    0    0    0  0.00000000000E+00  0.00000000000E+00  0.45593999997E+02  0.45594000000E+02  0.51100000000E-03 0.  1.
         11   -1    0    0    0    0 -0.00000000000E+00 -0.00000000000E+00 -0.45593999997E+02  0.45594000000E+02  0.51100000000E-03 0. -1.
    9900012    2    1    2    0    0  0.60648158956E+01  0.39348371747E+02 -0.17278513433E+02  0.47787269851E+02  0.19999994559E+02 0.  0.
        -12    1    1    2    0    0 -0.60648158956E+01 -0.39348371747E+02  0.17278513433E+02  0.43400730149E+02  0.00000000000E+00 0.  1.
         11    1    3    3    0    0 -0.47912490628E+01  0.20488718825E+02 -0.90327481499E+01  0.22898345051E+02  0.51100000000E-03 0. -1.
        -11    1    3    3    0    0  0.10886310311E+02  0.19611105632E+02 -0.86439063930E+01  0.24037976918E+02  0.51100000000E-03 0.  1.
        -12    1    3    3    0    0 -0.30245352946E-01 -0.75145270950E+00  0.39814110989E+00  0.85094788287E+00  0.00000000000E+00 0.  1.
</event>
<event>
 7    1  0.2714068E-010  0.4778727E+02  0.7816164E-02  0.1312668E+00
        -11   -1    0    0    0    0  0.00000000000E+00  0.00000000000E+00  0.45593999997E+02  0.45594000000E+02  0.51100000000E-03 0. -1.
         11   -1    0    0    0    0 -0.00000000000E+00 -0.00000000000E+00 -0.45593999997E+02  0.45594000000E+02  0.51100000000E-03 0.  1.
    9900012    2    1    2    0    0 -0.14934086440E+02  0.19681686102E+02  0.35682316285E+02  0.47787269579E+02  0.19999993320E+02 0.  0.
        -12    1    1    2    0    0  0.14934086440E+02 -0.19681686102E+02 -0.35682316285E+02  0.43400730421E+02  0.00000000000E+00 0.  1.
         11    1    3    3    0    0 -0.10392663900E+02  0.14810003382E+02  0.15009636646E+02  0.23508144453E+02  0.51100000000E-03 0. -1.
        -11    1    3    3    0    0  0.15837418328E+01  0.69295529433E+00  0.14580326467E+02  0.14682450252E+02  0.51100000000E-03 0.  1.
        -12    1    3    3    0    0 -0.61251643731E+01  0.41787274250E+01  0.60923531718E+01  0.95966748752E+01  0.00000000000E+00 0.  1.
</event>
<event>
 7    1  0.2714068E-010  0.4778727E+02  0.7816164E-02  0.1312668E+00
        -11   -1    0    0    0    0  0.00000000000E+00  0.00000000000E+00  0.45593999997E+02  0.45594000000E+02  0.51100000000E-03 0.  1.
         11   -1    0    0    0    0 -0.00000000000E+00 -0.00000000000E+00 -0.45593999997E+02  0.45594000000E+02  0.51100000000E-03 0. -1.
    9900012    2    1    2    0    0 -0.22242360989E+01  0.29350758543E+02 -0.31893713080E+02  0.47787272042E+02  0.20000004547E+02 0.  0.
        -12    1    1    2    0    0  0.22242360989E+01 -0.29350758543E+02  0.31893713080E+02  0.43400727958E+02  0.00000000000E+00 0.  1.
         11    1    3    3    0    0 -0.44207791912E+01  0.23085796315E+02 -0.30008967440E+02  0.38118701541E+02  0.51100000000E-03 0. -1.
        -11    1    3    3    0    0 -0.78933382833E+00  0.30537042240E+01  0.20626188905E+01  0.37686276453E+01  0.51100000000E-03 0.  1.
         12    1    3    3    0    0  0.29858769206E+01  0.32112580047E+01 -0.39473645305E+01  0.58999428552E+01  0.00000000000E+00 0. -1.
</event>
<event>
 7    1  0.2714068E-010  0.4778727E+02  0.7816164E-02  0.1312668E+00
        -11   -1    0    0    0    0  0.00000000000E+00  0.00000000000E+00  0.45593999997E+02  0.45594000000E+02  0.51100000000E-03 0.  1.
         11   -1    0    0    0    0 -0.00000000000E+00 -0.00000000000E+00 -0.45593999997E+02  0.45594000000E+02  0.51100000000E-03 0. -1.
    9900012    2    1    2    0    0 -0.19234286750E+02 -0.12687427718E+02 -0.36778994633E+02  0.47787273565E+02  0.20000011490E+02 0.  0.
        -12    1    1    2    0    0  0.19234286750E+02  0.12687427718E+02  0.36778994633E+02  0.43400726435E+02  0.00000000000E+00 0.  1.
         11    1    3    3    0    0 -0.39762036176E+01 -0.25696050819E+01 -0.56292306104E+00  0.47675935355E+01  0.51100000000E-03 0. -1.
        -11    1    3    3    0    0 -0.75773498308E+01 -0.52730335491E+01 -0.31423713848E+02  0.32751655004E+02  0.51100000000E-03 0.  1.
        -12    1    3    3    0    0 -0.76807333014E+01 -0.48447890874E+01 -0.47923577244E+01  0.10268025025E+02  0.00000000000E+00 0.  1.
</event>
<event>
 7    1  0.2714068E-010  0.4778727E+02  0.7816164E-02  0.1312668E+00
        -11   -1    0    0    0    0  0.00000000000E+00  0.00000000000E+00  0.45593999997E+02  0.45594000000E+02  0.51100000000E-03 0. -1.
         11   -1    0    0    0    0 -0.00000000000E+00 -0.00000000000E+00 -0.45593999997E+02  0.45594000000E+02  0.51100000000E-03 0.  1.
    9900012    2    1    2    0    0  0.18333801881E+02  0.30512099240E+02  0.24829554652E+02  0.47787271024E+02  0.19999999905E+02 0.  0.
        -12    1    1    2    0    0 -0.18333801881E+02 -0.30512099240E+02 -0.24829554652E+02  0.43400728976E+02  0.00000000000E+00 0.  1.
         11    1    3    3    0    0  0.12516986554E+02  0.10268641671E+02  0.16958965826E+02  0.23446246529E+02  0.51100000000E-03 0. -1.
        -11    1    3    3    0    0  0.52203770166E+01  0.10678940760E+02 -0.83577192522E-01  0.11886929686E+02  0.51100000000E-03 0.  1.
         12    1    3    3    0    0  0.59643831078E+00  0.95645168089E+01  0.79541660191E+01  0.12454094809E+02  0.00000000000E+00 0. -1.
</event>
<event>
 7    1  0.2714068E-010  0.4778727E+02  0.7816164E-02  0.1312668E+00
        -11   -1    0    0    0    0  0.00000000000E+00  0.00000000000E+00  0.45593999997E+02  0.45594000000E+02  0.51100000000E-03 0.  1.
         11   -1    0    0    0    0 -0.00000000000E+00 -0.00000000000E+00 -0.45593999997E+02  0.45594000000E+02  0.51100000000E-03 0. -1.
    9900012    2    1    2    0    0  0.12149931709E+02 -0.32911992542E+02 -0.25550012032E+02  0.47787271798E+02  0.20000003437E+02 0.  0.
        -12    1    1    2    0    0 -0.12149931709E+02  0.32911992542E+02  0.25550012032E+02  0.43400728202E+02  0.00000000000E+00 0.  1.
         11    1    3    3    0    0  0.16249583189E+02 -0.21176050643E+02 -0.19301579122E+02  0.32939718145E+02  0.51100000000E-03 0. -1.
        -11    1    3    3    0    0 -0.35871008766E+01 -0.12002623890E+02 -0.50304369004E+01  0.13499465494E+02  0.51100000000E-03 0.  1.
         12    1    3    3    0    0 -0.51255060359E+00  0.26668199089E+00 -0.12179960096E+01  0.13480881592E+01  0.00000000000E+00 0. -1.
</event>
<event>
 7    1  0.2714068E-010  0.4778726E+02  0.7816164E-02  0.1312668E+00
        -11   -1    0    0    0    0  0.00000000000E+00  0.00000000000E+00  0.45593999997E+02  0.45594000000E+02  0.51100000000E-03 0.  1.
         11   -1    0    0    0    0 -0.00000000000E+00 -0.00000000000E+00 -0.45593999997E+02  0.45594000000E+02  0.51100000000E-03 0. -1.
    9900012    2    1    2    0    0  0.11065675772E+02 -0.27328408715E+01 -0.41877276881E+02  0.47787263618E+02  0.19999966139E+02 0.  0.
        -12    1    1    2    0    0 -0.11065675772E+02  0.27328408715E+01  0.41877276881E+02  0.43400736382E+02  0.00000000000E+00 0.  1.
         11    1    3    3    0    0  0.45803561155E+01 -0.58220071361E+01 -0.33694964713E+02  0.34499653281E+02  0.51100000000E-03 0. -1.
        -11    1    3    3    0    0  0.56056564831E+01  0.54263177083E+01 -0.51008624617E+01  0.93213253667E+01  0.51100000000E-03 0.  1.
        -12    1    3    3    0    0  0.87966317344E+00 -0.23371514437E+01 -0.30814497068E+01  0.39662849702E+01  0.00000000000E+00 0.  1.
</event>
<event>
 7    1  0.2714068E-010  0.4778727E+02  0.7816164E-02  0.1312668E+00
        -11   -1    0    0    0    0  0.00000000000E+00  0.00000000000E+00  0.45593999997E+02  0.45594000000E+02  0.51100000000E-03 0.  1.
         11   -1    0    0    0    0 -0.00000000000E+00 -0.00000000000E+00 -0.45593999997E+02  0.45594000000E+02  0.51100000000E-03 0. -1.
    9900012    2    1    2    0    0 -0.27054333780E+02 -0.26256485800E+02 -0.21500776705E+02  0.47787269341E+02  0.19999992234E+02 0.  0.
        -12    1    1    2    0    0  0.27054333780E+02  0.26256485800E+02  0.21500776705E+02  0.43400730659E+02  0.00000000000E+00 0.  1.
         11    1    3    3    0    0 -0.56544777546E+01 -0.18648712477E+02 -0.70287455349E+01  0.20715956647E+02  0.51100000000E-03 0. -1.
        -11    1    3    3    0    0 -0.19493401668E+02 -0.75327553884E+01 -0.13822416523E+02  0.25055823896E+02  0.51100000000E-03 0.  1.
         12    1    3    3    0    0 -0.19064543568E+01 -0.75017934527E-01 -0.64961464693E+00  0.20154887979E+01  0.00000000000E+00 0. -1.
</event>
<event>
 7    1  0.2714068E-010  0.4778728E+02  0.7816164E-02  0.1312668E+00
        -11   -1    0    0    0    0  0.00000000000E+00  0.00000000000E+00  0.45593999997E+02  0.45594000000E+02  0.51100000000E-03 0. -1.
         11   -1    0    0    0    0 -0.00000000000E+00 -0.00000000000E+00 -0.45593999997E+02  0.45594000000E+02  0.51100000000E-03 0.  1.
    9900012    2    1    2    0    0  0.40624934101E+02  0.14754479288E+02 -0.39424578181E+01  0.47787275312E+02  0.20000019457E+02 0.  0.
        -12    1    1    2    0    0 -0.40624934101E+02 -0.14754479288E+02  0.39424578181E+01  0.43400724688E+02  0.00000000000E+00 0.  1.
         11    1    3    3    0    0  0.45612512733E+01  0.89221992979E+01 -0.24495684081E+01  0.10315572652E+02  0.51100000000E-03 0. -1.
        -11    1    3    3    0    0  0.10609854815E+00  0.82412991367E+00 -0.81029048701E+00  0.11606110248E+01  0.51100000000E-03 0.  1.
         12    1    3    3    0    0  0.35957584280E+02  0.50081500767E+01 -0.68259892299E+00  0.36311091635E+02  0.00000000000E+00 0. -1.
</event>
<event>
 7    1  0.2714068E-010  0.4778727E+02  0.7816164E-02  0.1312668E+00
        -11   -1    0    0    0    0  0.00000000000E+00  0.00000000000E+00  0.45593999997E+02  0.45594000000E+02  0.51100000000E-03 0.  1.
         11   -1    0    0    0    0 -0.00000000000E+00 -0.00000000000E+00 -0.45593999997E+02  0.45594000000E+02  0.51100000000E-03 0. -1.
    9900012    2    1    2    0    0 -0.36451910933E+02  0.23532914043E+02 -0.10408227321E+01  0.47787272287E+02  0.20000005666E+02 0.  0.
        -12    1    1    2    0    0  0.36451910933E+02 -0.23532914043E+02  0.10408227321E+01  0.43400727713E+02  0.00000000000E+00 0.  1.
         11    1    3    3    0    0 -0.26333282319E+02  0.16298326614E+02  0.15688440450E+01  0.31008683945E+02  0.51100000000E-03 0. -1.
        -11    1    3    3    0    0 -0.18224368787E+01  0.29936422765E+01 -0.59292246555E+01  0.68875885136E+01  0.51100000000E-03 0.  1.
        -12    1    3    3    0    0 -0.82961917353E+01  0.42409451527E+01  0.33195578784E+01  0.98909998284E+01  0.00000000000E+00 0.  1.
</event>
<event>
 7    1  0.2714068E-010  0.4778727E+02  0.7816164E-02  0.1312668E+00
        -11   -1    0    0    0    0  0.00000000000E+00  0.00000000000E+00  0.45593999997E+02  0.45594000000E+02  0.51100000000E-03 0.  1.
         11   -1    0    0    0    0 -0.00000000000E+00 -0.00000000000E+00 -0.45593999997E+02  0.45594000000E+02  0.51100000000E-03 0. -1.
    9900012    2    1    2    0    0 -0.26278326510E+00 -0.25734416535E+02 -0.34947015380E+02  0.47787272663E+02  0.20000007380E+02 0.  0.
        -12    1    1    2    0    0  0.26278326510E+00  0.25734416535E+02  0.34947015380E+02  0.43400727337E+02  0.00000000000E+00 0.  1.
         11    1    3    3    0    0 -0.42085684524E+01 -0.15080460886E+02 -0.28368145454E+02  0.32401913920E+02  0.51100000000E-03 0. -1.
        -11    1    3    3    0    0 -0.36671772162E+00 -0.37898358856E+01  0.13560233278E+01  0.40417987894E+01  0.51100000000E-03 0.  1.
        -12    1    3    3    0    0  0.43125029089E+01 -0.68641197637E+01 -0.79348932539E+01  0.11343559954E+02  0.00000000000E+00 0.  1.
</event>
<event>
 7    1  0.2714068E-010  0.4778727E+02  0.7816164E-02  0.1312668E+00
        -11   -1    0    0    0    0  0.00000000000E+00  0.00000000000E+00  0.45593999997E+02  0.45594000000E+02  0.51100000000E-03 0.  1.
         11   -1    0    0    0    0 -0.00000000000E+00 -0.00000000000E+00 -0.45593999997E+02  0.45594000000E+02  0.51100000000E-03 0. -1.
    9900012    2    1    2    0    0 -0.32949728960E+02  0.15732991592E+02 -0.23460846995E+02  0.47787274146E+02  0.20000014140E+02 0.  0.
        -12    1    1    2    0    0  0.32949728960E+02 -0.15732991592E+02  0.23460846995E+02  0.43400725854E+02  0.00000000000E+00 0.  1.
         11    1    3    3    0    0 -0.53052390770E+01  0.21899983813E+01  0.26159872468E+01  0.63075386730E+01  0.51100000000E-03 0. -1.
        -11    1    3    3    0    0 -0.63334550173E+01  0.55543930280E+01 -0.12193080286E+02  0.14820092493E+02  0.51100000000E-03 0.  1.
         12    1    3    3    0    0 -0.21311034866E+02  0.79886001831E+01 -0.13883753955E+02  0.26659642980E+02  0.00000000000E+00 0. -1.
</event>
<event>
 7    1  0.2714068E-010  0.4778727E+02  0.7816164E-02  0.1312668E+00
        -11   -1    0    0    0    0  0.00000000000E+00  0.00000000000E+00  0.45593999997E+02  0.45594000000E+02  0.51100000000E-03 0. -1.
         11   -1    0    0    0    0 -0.00000000000E+00 -0.00000000000E+00 -0.45593999997E+02  0.45594000000E+02  0.51100000000E-03 0.  1.
    9900012    2    1    2    0    0  0.15176366291E+02  0.40599598707E+02  0.22302177034E+01  0.47787269822E+02  0.19999994428E+02 0.  0.
        -12    1    1    2    0    0 -0.15176366291E+02 -0.40599598707E+02 -0.22302177034E+01  0.43400730178E+02  0.00000000000E+00 0.  1.
         11    1    3    3    0    0  0.56861378585E+01  0.63587294875E+01  0.52670234057E+01  0.10025324945E+02  0.51100000000E-03 0. -1.
        -11    1    3    3    0    0 -0.23876208999E+01  0.10887459099E+02 -0.30707489263E+01  0.11561444478E+02  0.51100000000E-03 0.  1.
        -12    1    3    3    0    0  0.11877849333E+02  0.23353410120E+02  0.33943224004E-01  0.26200500399E+02  0.00000000000E+00 0.  1.
</event>
<event>
 7    1  0.2714068E-010  0.4778727E+02  0.7816164E-02  0.1312668E+00
        -11   -1    0    0    0    0  0.00000000000E+00  0.00000000000E+00  0.45593999997E+02  0.45594000000E+02  0.51100000000E-03 0. -1.
         11   -1    0    0    0    0 -0.00000000000E+00 -0.00000000000E+00 -0.45593999997E+02  0.45594000000E+02  0.51100000000E-03 0.  1.
    9900012    2    1    2    0    0 -0.38586316049E+00 -0.18438255197E+00  0.43398622472E+02  0.47787270516E+02  0.19999997588E+02 0.  0.
        -12    1    1    2    0    0  0.38586316049E+00  0.18438255197E+00 -0.43398622472E+02  0.43400729484E+02  0.00000000000E+00 0.  1.
         11    1    3    3    0    0  0.62116694462E+00  0.25896101114E+01  0.47424829969E+01  0.54390324635E+01  0.51100000000E-03 0. -1.
        -11    1    3    3    0    0 -0.13028973879E+01  0.28622090474E+01  0.35953116694E+02  0.36090391831E+02  0.51100000000E-03 0.  1.
        -12    1    3    3    0    0  0.29586728282E+00 -0.56362017107E+01  0.27030227815E+01  0.62578462214E+01  0.00000000000E+00 0.  1.
</event>
<event>
 7    1  0.2714068E-010  0.4778727E+02  0.7816164E-02  0.1312668E+00
        -11   -1    0    0    0    0  0.00000000000E+00  0.00000000000E+00  0.45593999997E+02  0.45594000000E+02  0.51100000000E-03 0.  1.
         11   -1    0    0    0    0 -0.00000000000E+00 -0.00000000000E+00 -0.45593999997E+02  0.45594000000E+02  0.51100000000E-03 0. -1.
    9900012    2    1    2    0    0 -0.43036963558E+02 -0.24090048858E+01  0.50635907756E+01  0.47787268573E+02  0.19999988731E+02 0.  0.
        -12    1    1    2    0    0  0.43036963558E+02  0.24090048858E+01 -0.50635907756E+01  0.43400731427E+02  0.00000000000E+00 0.  1.
         11    1    3    3    0    0 -0.23862898097E+02 -0.41756282425E+00 -0.43577285301E+01  0.24261122450E+02  0.51100000000E-03 0. -1.
        -11    1    3    3    0    0 -0.15781684476E+02 -0.47015216003E+01  0.98084565216E+01  0.19166942632E+02  0.51100000000E-03 0.  1.
         12    1    3    3    0    0 -0.33923809851E+01  0.27100795387E+01 -0.38713721592E+00  0.43592034913E+01  0.00000000000E+00 0. -1.
</event>
<event>
 7    1  0.2714068E-010  0.4778731E+02  0.7816164E-02  0.1312668E+00
        -11   -1    0    0    0    0  0.00000000000E+00  0.00000000000E+00  0.45593999997E+02  0.45594000000E+02  0.51100000000E-03 0.  1.
         11   -1    0    0    0    0 -0.00000000000E+00 -0.00000000000E+00 -0.45593999997E+02  0.45594000000E+02  0.51100000000E-03 0. -1.
    9900012    2    1    2    0    0  0.28820645746E+02  0.32391944341E+02 -0.19371366249E+01  0.47787306714E+02  0.20000162633E+02 0.  0.
        -12    1    1    2    0    0 -0.28820645746E+02 -0.32391944341E+02  0.19371366249E+01  0.43400693286E+02  0.00000000000E+00 0.  1.
         11    1    3    3    0    0  0.48611011182E+01  0.50417162510E+01 -0.61353319394E+01  0.93108273051E+01  0.51100000000E-03 0. -1.
        -11    1    3    3    0    0  0.75407377375E+01  0.17027308713E+02  0.41635836791E+01  0.19082122443E+02  0.51100000000E-03 0.  1.
        -12    1    3    3    0    0  0.16418806890E+02  0.10322919377E+02  0.34611635488E-01  0.19394356966E+02  0.00000000000E+00 0.  1.
</event>
<event>
 7    1  0.2714068E-010  0.4778725E+02  0.7816164E-02  0.1312668E+00
        -11   -1    0    0    0    0  0.00000000000E+00  0.00000000000E+00  0.45593999997E+02  0.45594000000E+02  0.51100000000E-03 0. -1.
         11   -1    0    0    0    0 -0.00000000000E+00 -0.00000000000E+00 -0.45593999997E+02  0.45594000000E+02  0.51100000000E-03 0.  1.
    9900012    2    1    2    0    0 -0.40204824733E+01 -0.23175959956E+02  0.36473766682E+02  0.47787250523E+02  0.19999906434E+02 0.  0.
        -12    1    1    2    0    0  0.40204824733E+01  0.23175959956E+02 -0.36473766682E+02  0.43400749477E+02  0.00000000000E+00 0.  1.
         11    1    3    3    0    0  0.48059831859E+01 -0.34372808069E+01  0.51814834767E+01  0.78587623077E+01  0.51100000000E-03 0. -1.
        -11    1    3    3    0    0 -0.11844179497E+02 -0.15206410048E+02  0.23005065814E+02  0.30012539843E+02  0.51100000000E-03 0.  1.
         12    1    3    3    0    0  0.30177138379E+01 -0.45322691011E+01  0.82872173917E+01  0.99159483717E+01  0.00000000000E+00 0. -1.
</event>
<event>
 7    1  0.2714068E-010  0.4778728E+02  0.7816164E-02  0.1312668E+00
        -11   -1    0    0    0    0  0.00000000000E+00  0.00000000000E+00  0.45593999997E+02  0.45594000000E+02  0.51100000000E-03 0.  1.
         11   -1    0    0    0    0 -0.00000000000E+00 -0.00000000000E+00 -0.45593999997E+02  0.45594000000E+02  0.51100000000E-03 0. -1.
    9900012    2    1    2    0    0  0.10833674584E+02 -0.29622227478E+02 -0.29812368315E+02  0.47787283758E+02  0.20000057965E+02 0.  0.
        -12    1    1    2    0    0 -0.10833674584E+02  0.29622227478E+02  0.29812368315E+02  0.43400716242E+02  0.00000000000E+00 0.  1.
         11    1    3    3    0    0 -0.11890332660E+01 -0.26202803807E+01 -0.51807311993E+01  0.59261830381E+01  0.51100000000E-03 0. -1.
        -11    1    3    3    0    0 -0.36336105103E+01 -0.10383798416E+02 -0.74411502023E+01  0.13281457431E+02  0.51100000000E-03 0.  1.
        -12    1    3    3    0    0  0.15656318360E+02 -0.16618148681E+02 -0.17190486914E+02  0.28579643289E+02  0.00000000000E+00 0.  1.
</event>
<event>
 7    1  0.2714068E-010  0.4778727E+02  0.7816164E-02  0.1312668E+00
        -11   -1    0    0    0    0  0.00000000000E+00  0.00000000000E+00  0.45593999997E+02  0.45594000000E+02  0.51100000000E-03 0.  1.
         11   -1    0    0    0    0 -0.00000000000E+00 -0.00000000000E+00 -0.45593999997E+02  0.45594000000E+02  0.51100000000E-03 0. -1.
    9900012    2    1    2    0    0  0.11243029342E+02 -0.40543990505E+02 -0.10649062169E+02  0.47787269592E+02  0.19999993378E+02 0.  0.
        -12    1    1    2    0    0 -0.11243029342E+02  0.40543990505E+02  0.10649062169E+02  0.43400730408E+02  0.00000000000E+00 0.  1.
         11    1    3    3    0    0 -0.26520014427E+01 -0.99140059929E+01 -0.68945840228E+01  0.12363491238E+02  0.51100000000E-03 0. -1.
        -11    1    3    3    0    0  0.12617578876E+02 -0.18959941627E+02 -0.58133742852E+01  0.23504850649E+02  0.51100000000E-03 0.  1.
        -12    1    3    3    0    0  0.12774519084E+01 -0.11670042885E+02  0.20588961394E+01  0.11918927705E+02  0.00000000000E+00 0.  1.
</event>
<event>
 7    1  0.2714068E-010  0.4778726E+02  0.7816164E-02  0.1312668E+00
        -11   -1    0    0    0    0  0.00000000000E+00  0.00000000000E+00  0.45593999997E+02  0.45594000000E+02  0.51100000000E-03 0.  1.
         11   -1    0    0    0    0 -0.00000000000E+00 -0.00000000000E+00 -0.45593999997E+02  0.45594000000E+02  0.51100000000E-03 0. -1.
    9900012    2    1    2    0    0  0.21824293745E+02  0.34153275125E+02 -0.15520256964E+02  0.47787258353E+02  0.19999942135E+02 0.  0.
        -12    1    1    2    0    0 -0.21824293745E+02 -0.34153275125E+02  0.15520256964E+02  0.43400741647E+02  0.00000000000E+00 0.  1.
         11    1    3    3    0    0  0.16477689704E+02  0.27173043691E+02 -0.11932544253E+02  0.33945164221E+02  0.51100000000E-03 0. -1.
        -11    1    3    3    0    0 -0.25251393567E+01 -0.31061778786E+00 -0.50648672420E-01  0.25446763508E+01  0.51100000000E-03 0.  1.
        -12    1    3    3    0    0  0.78717433976E+01  0.72908492225E+01 -0.35370640387E+01  0.11297417781E+02  0.00000000000E+00 0.  1.
</event>
<event>
 7    1  0.2714068E-010  0.4778727E+02  0.7816164E-02  0.1312668E+00
        -11   -1    0    0    0    0  0.00000000000E+00  0.00000000000E+00  0.45593999997E+02  0.45594000000E+02  0.51100000000E-03 0.  1.
         11   -1    0    0    0    0 -0.00000000000E+00 -0.00000000000E+00 -0.45593999997E+02  0.45594000000E+02  0.51100000000E-03 0. -1.
    9900012    2    1    2    0    0  0.20673794351E+02 -0.20077233588E+02 -0.32451845004E+02  0.47787270449E+02  0.19999997284E+02 0.  0.
        -12    1    1    2    0    0 -0.20673794351E+02  0.20077233588E+02  0.32451845004E+02  0.43400729551E+02  0.00000000000E+00 0.  1.
         11    1    3    3    0    0 -0.16688644670E+01 -0.20033585816E+01 -0.46484788377E+00  0.26485161944E+01  0.51100000000E-03 0. -1.
        -11    1    3    3    0    0  0.20282816260E+02 -0.87982762250E+01 -0.24807561503E+02  0.33229766896E+02  0.51100000000E-03 0.  1.
        -12    1    3    3    0    0  0.20598425576E+01 -0.92755987810E+01 -0.71794356174E+01  0.11908987358E+02  0.00000000000E+00 0.  1.
</event>
<event>
 7    1  0.2714068E-010  0.4778727E+02  0.7816164E-02  0.1312668E+00
        -11   -1    0    0    0    0  0.00000000000E+00  0.00000000000E+00  0.45593999997E+02  0.45594000000E+02  0.51100000000E-03 0. -1.
         11   -1    0    0    0    0 -0.00000000000E+00 -0.00000000000E+00 -0.45593999997E+02  0.45594000000E+02  0.51100000000E-03 0.  1.
    9900012    2    1    2    0    0 -0.38858972558E+02 -0.50819640579E+01  0.18648783082E+02  0.47787271695E+02  0.20000002967E+02 0.  0.
        -12    1    1    2    0    0  0.38858972558E+02  0.50819640579E+01 -0.18648783082E+02  0.43400728305E+02  0.00000000000E+00 0.  1.
         11    1    3    3    0    0 -0.24677600778E+02 -0.37017422294E+01  0.10700359277E+02  0.27151142971E+02  0.51100000000E-03 0. -1.
        -11    1    3    3    0    0 -0.21904635239E+00 -0.26049152398E+01  0.59235021947E+01  0.64746770748E+01  0.51100000000E-03 0.  1.
        -12    1    3    3    0    0 -0.13962325427E+02  0.12246934114E+01  0.20249216104E+01  0.14161451649E+02  0.00000000000E+00 0.  1.
</event>
<event>
 7    1  0.2714068E-010  0.4778727E+02  0.7816164E-02  0.1312668E+00
        -11   -1    0    0    0    0  0.00000000000E+00  0.00000000000E+00  0.45593999997E+02  0.45594000000E+02  0.51100000000E-03 0.  1.
         11   -1    0    0    0    0 -0.00000000000E+00 -0.00000000000E+00 -0.45593999997E+02  0.45594000000E+02  0.51100000000E-03 0. -1.
    9900012    2    1    2    0    0 -0.22689887344E+02  0.24342427284E+02 -0.27861052864E+02  0.47787273964E+02  0.20000013311E+02 0.  0.
        -12    1    1    2    0    0  0.22689887344E+02 -0.24342427284E+02  0.27861052864E+02  0.43400726036E+02  0.00000000000E+00 0.  1.
         11    1    3    3    0    0 -0.14836100712E+02  0.62967129504E+01 -0.15414393735E+02  0.22301614578E+02  0.51100000000E-03 0. -1.
        -11    1    3    3    0    0  0.99342492880E+00  0.96000925569E+01 -0.32541083440E+01  0.10185179997E+02  0.51100000000E-03 0.  1.
        -12    1    3    3    0    0 -0.88472115608E+01  0.84456217771E+01 -0.91925507850E+01  0.15300479389E+02  0.00000000000E+00 0.  1.
</event>
<event>
 7    1  0.2714068E-010  0.4778727E+02  0.7816164E-02  0.1312668E+00
        -11   -1    0    0    0    0  0.00000000000E+00  0.00000000000E+00  0.45593999997E+02  0.45594000000E+02  0.51100000000E-03 0. -1.
         11   -1    0    0    0    0 -0.00000000000E+00 -0.00000000000E+00 -0.45593999997E+02  0.45594000000E+02  0.51100000000E-03 0.  1.
    9900012    2    1    2    0    0 -0.38054399755E+02  0.19382774301E+02  0.77326837242E+01  0.47787266390E+02  0.19999978779E+02 0.  0.
        -12    1    1    2    0    0  0.38054399755E+02 -0.19382774301E+02 -0.77326837242E+01  0.43400733610E+02  0.00000000000E+00 0.  1.
         11    1    3    3    0    0 -0.84851254444E+00  0.10540582412E+01  0.22454868317E+01  0.26216833689E+01  0.51100000000E-03 0. -1.
        -11    1    3    3    0    0 -0.10664833121E+02  0.69410600387E+01 -0.60197620772E+01  0.14076736684E+02  0.51100000000E-03 0.  1.
        -12    1    3    3    0    0 -0.26541054090E+02  0.11387656021E+02  0.11506958970E+02  0.31088846337E+02  0.00000000000E+00 0.  1.
</event>
<event>
 7    1  0.2714068E-010  0.4778726E+02  0.7816164E-02  0.1312668E+00
        -11   -1    0    0    0    0  0.00000000000E+00  0.00000000000E+00  0.45593999997E+02  0.45594000000E+02  0.51100000000E-03 0.  1.
         11   -1    0    0    0    0 -0.00000000000E+00 -0.00000000000E+00 -0.45593999997E+02  0.45594000000E+02  0.51100000000E-03 0. -1.
    9900012    2    1    2    0    0  0.11580539840E+02  0.17227578854E+02 -0.38114635364E+02  0.47787264925E+02  0.19999972098E+02 0.  0.
        -12    1    1    2    0    0 -0.11580539840E+02 -0.17227578854E+02  0.38114635364E+02  0.43400735075E+02  0.00000000000E+00 0.  1.
         11    1    3    3    0    0  0.86702878178E+01  0.13321030924E+02 -0.22391375470E+02  0.27459014029E+02  0.51100000000E-03 0. -1.
        -11    1    3    3    0    0 -0.99785103237E+00 -0.34031243064E+01 -0.14677560684E+01  0.38381336435E+01  0.51100000000E-03 0.  1.
        -12    1    3    3    0    0  0.39081030550E+01  0.73096722370E+01 -0.14255503825E+02  0.16490117253E+02  0.00000000000E+00 0.  1.
</event>
<event>
 7    1  0.2714068E-010  0.4778727E+02  0.7816164E-02  0.1312668E+00
        -11   -1    0    0    0    0  0.00000000000E+00  0.00000000000E+00  0.45593999997E+02  0.45594000000E+02  0.51100000000E-03 0.  1.
         11   -1    0    0    0    0 -0.00000000000E+00 -0.00000000000E+00 -0.45593999997E+02  0.45594000000E+02  0.51100000000E-03 0. -1.
    9900012    2    1    2    0    0 -0.28098531108E+02  0.29334395479E+02 -0.15283614188E+02  0.47787273380E+02  0.20000010647E+02 0.  0.
        -12    1    1    2    0    0  0.28098531108E+02 -0.29334395479E+02  0.15283614188E+02  0.43400726620E+02  0.00000000000E+00 0.  1.
         11    1    3    3    0    0 -0.21664907518E+02  0.13433890166E+02 -0.11976339303E+02  0.28165055053E+02  0.51100000000E-03 0. -1.
        -11    1    3    3    0    0  0.20638959532E+01  0.46054456936E+01  0.22913776375E+00  0.50519601066E+01  0.51100000000E-03 0.  1.
         12    1    3    3    0    0 -0.84975195432E+01  0.11295059619E+02 -0.35364126491E+01  0.14570258220E+02  0.00000000000E+00 0. -1.
</event>
<event>
 7    1  0.2714068E-010  0.4778727E+02  0.7816164E-02  0.1312668E+00
        -11   -1    0    0    0    0  0.00000000000E+00  0.00000000000E+00  0.45593999997E+02  0.45594000000E+02  0.51100000000E-03 0.  1.
         11   -1    0    0    0    0 -0.00000000000E+00 -0.00000000000E+00 -0.45593999997E+02  0.45594000000E+02  0.51100000000E-03 0. -1.
    9900012    2    1    2    0    0  0.77481134169E+01 -0.82475049810E+01 -0.41899506486E+02  0.47787271392E+02  0.20000001587E+02 0.  0.
        -12    1    1    2    0    0 -0.77481134169E+01  0.82475049810E+01  0.41899506486E+02  0.43400728608E+02  0.00000000000E+00 0.  1.
         11    1    3    3    0    0 -0.62024523132E+01 -0.14615150179E+01 -0.18538705918E+02  0.19603317531E+02  0.51100000000E-03 0. -1.
        -11    1    3    3    0    0  0.92021550403E+01 -0.54590570511E+01 -0.14189358013E+02  0.17771292647E+02  0.51100000000E-03 0.  1.
         12    1    3    3    0    0  0.47484106898E+01 -0.13269329121E+01 -0.91714425550E+01  0.10412661215E+02  0.00000000000E+00 0. -1.
</event>
<event>
 7    1  0.2714068E-010  0.4778727E+02  0.7816164E-02  0.1312668E+00
        -11   -1    0    0    0    0  0.00000000000E+00  0.00000000000E+00  0.45593999997E+02  0.45594000000E+02  0.51100000000E-03 0.  1.
         11   -1    0    0    0    0 -0.00000000000E+00 -0.00000000000E+00 -0.45593999997E+02  0.45594000000E+02  0.51100000000E-03 0. -1.
    9900012    2    1    2    0    0 -0.60926090554E+01 -0.42475433358E+02 -0.65069986634E+01  0.47787270102E+02  0.19999995704E+02 0.  0.
        -12    1    1    2    0    0  0.60926090554E+01  0.42475433358E+02  0.65069986634E+01  0.43400729898E+02  0.00000000000E+00 0.  1.
         11    1    3    3    0    0 -0.61789671813E+01 -0.12686882140E+02 -0.89671393722E+01  0.16719635242E+02  0.51100000000E-03 0.  1.
        -11    1    3    3    0    0  0.13838293907E+01 -0.29545040987E+02  0.19149315292E+01  0.29639355488E+02  0.51100000000E-03 0. -1.
        -12    1    3    3    0    0 -0.12974712648E+01 -0.24351023133E+00  0.54520917964E+00  0.14282793723E+01  0.00000000000E+00 0.  1.
</event>
<event>
 7    1  0.2714068E-010  0.4778726E+02  0.7816164E-02  0.1312668E+00
        -11   -1    0    0    0    0  0.00000000000E+00  0.00000000000E+00  0.45593999997E+02  0.45594000000E+02  0.51100000000E-03 0. -1.
         11   -1    0    0    0    0 -0.00000000000E+00 -0.00000000000E+00 -0.45593999997E+02  0.45594000000E+02  0.51100000000E-03 0.  1.
    9900012    2    1    2    0    0 -0.39527576366E+02  0.14336386895E+02  0.10754683172E+02  0.47787257002E+02  0.19999935977E+02 0.  0.
        -12    1    1    2    0    0  0.39527576366E+02 -0.14336386895E+02 -0.10754683172E+02  0.43400742998E+02  0.00000000000E+00 0.  1.
         11    1    3    3    0    0 -0.36028026436E+02  0.13151033511E+02  0.97129563345E+01  0.39563997426E+02  0.51100000000E-03 0. -1.
        -11    1    3    3    0    0  0.14997481961E-01 -0.93389220366E+00 -0.25836266818E+01  0.27472725865E+01  0.51100000000E-03 0.  1.
        -12    1    3    3    0    0 -0.35145474122E+01  0.21192455872E+01  0.36253535198E+01  0.54759869900E+01  0.00000000000E+00 0.  1.
</event>
<event>
 7    1  0.2714068E-010  0.4778727E+02  0.7816164E-02  0.1312668E+00
        -11   -1    0    0    0    0  0.00000000000E+00  0.00000000000E+00  0.45593999997E+02  0.45594000000E+02  0.51100000000E-03 0.  1.
         11   -1    0    0    0    0 -0.00000000000E+00 -0.00000000000E+00 -0.45593999997E+02  0.45594000000E+02  0.51100000000E-03 0. -1.
    9900012    2    1    2    0    0  0.20628510183E+01  0.19862239677E+02 -0.38533876246E+02  0.47787268003E+02  0.19999986135E+02 0.  0.
        -12    1    1    2    0    0 -0.20628510183E+01 -0.19862239677E+02  0.38533876246E+02  0.43400731997E+02  0.00000000000E+00 0.  1.
         11    1    3    3    0    0 -0.37532844918E+01  0.16781642215E+02 -0.19715120580E+02  0.26160975510E+02  0.51100000000E-03 0. -1.
        -11    1    3    3    0    0  0.32291083163E+01 -0.18710156522E+01 -0.13141795296E+02  0.13661428327E+02  0.51100000000E-03 0.  1.
        -12    1    3    3    0    0  0.25870271939E+01  0.49516131147E+01 -0.56769603700E+01  0.79648641659E+01  0.00000000000E+00 0.  1.
</event>
<event>
 7    1  0.2714068E-010  0.4778727E+02  0.7816164E-02  0.1312668E+00
        -11   -1    0    0    0    0  0.00000000000E+00  0.00000000000E+00  0.45593999997E+02  0.45594000000E+02  0.51100000000E-03 0.  1.
         11   -1    0    0    0    0 -0.00000000000E+00 -0.00000000000E+00 -0.45593999997E+02  0.45594000000E+02  0.51100000000E-03 0. -1.
    9900012    2    1    2    0    0 -0.69290982536E+01  0.40598618345E+02 -0.13688066962E+02  0.47787269692E+02  0.19999993834E+02 0.  0.
        -12    1    1    2    0    0  0.69290982536E+01 -0.40598618345E+02  0.13688066962E+02  0.43400730308E+02  0.00000000000E+00 0.  1.
         11    1    3    3    0    0 -0.12085737519E+02  0.19934159815E+02 -0.77681984089E+01  0.24571949163E+02  0.51100000000E-03 0. -1.
        -11    1    3    3    0    0  0.59366151174E+01  0.11059622493E+02 -0.15961146241E+01  0.12653309089E+02  0.51100000000E-03 0.  1.
        -12    1    3    3    0    0 -0.77997585196E+00  0.96048360366E+01 -0.43237539293E+01  0.10562011440E+02  0.00000000000E+00 0.  1.
</event>
<event>
 7    1  0.2714068E-010  0.4778727E+02  0.7816164E-02  0.1312668E+00
        -11   -1    0    0    0    0  0.00000000000E+00  0.00000000000E+00  0.45593999997E+02  0.45594000000E+02  0.51100000000E-03 0.  1.
         11   -1    0    0    0    0 -0.00000000000E+00 -0.00000000000E+00 -0.45593999997E+02  0.45594000000E+02  0.51100000000E-03 0. -1.
    9900012    2    1    2    0    0 -0.10857179208E+02 -0.35651578975E+02 -0.22242071896E+02  0.47787272057E+02  0.20000004617E+02 0.  0.
        -12    1    1    2    0    0  0.10857179208E+02  0.35651578975E+02  0.22242071896E+02  0.43400727943E+02  0.00000000000E+00 0.  1.
         11    1    3    3    0    0 -0.59603287482E+01 -0.21729570282E+02 -0.83948503094E+01  0.24045233527E+02  0.51100000000E-03 0. -1.
        -11    1    3    3    0    0  0.27881184446E+01  0.46009174445E+00 -0.31908720244E+01  0.42622709219E+01  0.51100000000E-03 0.  1.
        -12    1    3    3    0    0 -0.76849689045E+01 -0.14382100438E+02 -0.10656349562E+02  0.19479767608E+02  0.00000000000E+00 0.  1.
</event>
<event>
 7    1  0.2714068E-010  0.4778727E+02  0.7816164E-02  0.1312668E+00
        -11   -1    0    0    0    0  0.00000000000E+00  0.00000000000E+00  0.45593999997E+02  0.45594000000E+02  0.51100000000E-03 0. -1.
         11   -1    0    0    0    0 -0.00000000000E+00 -0.00000000000E+00 -0.45593999997E+02  0.45594000000E+02  0.51100000000E-03 0.  1.
    9900012    2    1    2    0    0  0.14816362026E+02 -0.67656766104E+01  0.40228404269E+02  0.47787268743E+02  0.19999989505E+02 0.  0.
        -12    1    1    2    0    0 -0.14816362026E+02  0.67656766104E+01 -0.40228404269E+02  0.43400731257E+02  0.00000000000E+00 0.  1.
         11    1    3    3    0    0  0.42534304616E+01  0.33935563224E+00  0.20838151898E+02  0.21270529089E+02  0.51100000000E-03 0. -1.
        -11    1    3    3    0    0  0.26275376466E+01 -0.47540175246E+01 -0.24315452711E-02  0.54318176407E+01  0.51100000000E-03 0.  1.
        -12    1    3    3    0    0  0.79353939178E+01 -0.23510147181E+01  0.19392683916E+02  0.21084922013E+02  0.00000000000E+00 0.  1.
</event>
<event>
 7    1  0.2714068E-010  0.4778727E+02  0.7816164E-02  0.1312668E+00
        -11   -1    0    0    0    0  0.00000000000E+00  0.00000000000E+00  0.45593999997E+02  0.45594000000E+02  0.51100000000E-03 0.  1.
         11   -1    0    0    0    0 -0.00000000000E+00 -0.00000000000E+00 -0.45593999997E+02  0.45594000000E+02  0.51100000000E-03 0. -1.
    9900012    2    1    2    0    0 -0.39768281485E+00  0.33628459853E+02 -0.27433407379E+02  0.47787270696E+02  0.19999998410E+02 0.  0.
        -12    1    1    2    0    0  0.39768281485E+00 -0.33628459853E+02  0.27433407379E+02  0.43400729304E+02  0.00000000000E+00 0.  1.
         11    1    3    3    0    0  0.38035120211E+01  0.68177801198E+01 -0.13306314070E+01  0.79195586783E+01  0.51100000000E-03 0. -1.
        -11    1    3    3    0    0 -0.12249026954E+01  0.15195058303E+02 -0.22806150765E+02  0.27431928413E+02  0.51100000000E-03 0.  1.
        -12    1    3    3    0    0 -0.29762921406E+01  0.11615621430E+02 -0.32966252070E+01  0.12435783605E+02  0.00000000000E+00 0.  1.
</event>
<event>
 7    1  0.2714068E-010  0.4778727E+02  0.7816164E-02  0.1312668E+00
        -11   -1    0    0    0    0  0.00000000000E+00  0.00000000000E+00  0.45593999997E+02  0.45594000000E+02  0.51100000000E-03 0.  1.
         11   -1    0    0    0    0 -0.00000000000E+00 -0.00000000000E+00 -0.45593999997E+02  0.45594000000E+02  0.51100000000E-03 0. -1.
    9900012    2    1    2    0    0  0.40754301898E+01 -0.99993708629E+01 -0.42036017516E+02  0.47787270542E+02  0.19999997707E+02 0.  0.
        -12    1    1    2    0    0 -0.40754301898E+01  0.99993708629E+01  0.42036017516E+02  0.43400729458E+02  0.00000000000E+00 0.  1.
         11    1    3    3    0    0  0.36704707850E+01 -0.25942529014E+01 -0.28052158513E+01  0.52982770911E+01  0.51100000000E-03 0. -1.
        -11    1    3    3    0    0  0.31992652985E+01 -0.85035082572E+01 -0.11790489938E+02  0.14884911971E+02  0.51100000000E-03 0.  1.
        -12    1    3    3    0    0 -0.27943058937E+01  0.10983902957E+01 -0.27440311727E+02  0.27604081480E+02  0.00000000000E+00 0.  1.
</event>
<event>
 7    1  0.2714068E-010  0.4778727E+02  0.7816164E-02  0.1312668E+00
        -11   -1    0    0    0    0  0.00000000000E+00  0.00000000000E+00  0.45593999997E+02  0.45594000000E+02  0.51100000000E-03 0.  1.
         11   -1    0    0    0    0 -0.00000000000E+00 -0.00000000000E+00 -0.45593999997E+02  0.45594000000E+02  0.51100000000E-03 0. -1.
    9900012    2    1    2    0    0 -0.31622708049E+02 -0.78370961970E+01 -0.28674169795E+02  0.47787265506E+02  0.19999974750E+02 0.  0.
        -12    1    1    2    0    0  0.31622708049E+02  0.78370961970E+01  0.28674169795E+02  0.43400734494E+02  0.00000000000E+00 0.  1.
         11    1    3    3    0    0 -0.24348728054E+01 -0.52980861131E+01 -0.78785419622E+01  0.98015175229E+01  0.51100000000E-03 0. -1.
        -11    1    3    3    0    0 -0.71467411212E+01 -0.61720886705E+01 -0.58380042326E+01  0.11101931404E+02  0.51100000000E-03 0.  1.
        -12    1    3    3    0    0 -0.22041094123E+02  0.36330785866E+01 -0.14957623600E+02  0.26883816580E+02  0.00000000000E+00 0.  1.
</event>
<event>
 7    1  0.2714068E-010  0.4778725E+02  0.7816164E-02  0.1312668E+00
        -11   -1    0    0    0    0  0.00000000000E+00  0.00000000000E+00  0.45593999997E+02  0.45594000000E+02  0.51100000000E-03 0.  1.
         11   -1    0    0    0    0 -0.00000000000E+00 -0.00000000000E+00 -0.45593999997E+02  0.45594000000E+02  0.51100000000E-03 0. -1.
    9900012    2    1    2    0    0  0.34804608039E+02 -0.16744513288E+02 -0.19796100274E+02  0.47787250558E+02  0.19999906596E+02 0.  0.
        -12    1    1    2    0    0 -0.34804608039E+02  0.16744513288E+02  0.19796100274E+02  0.43400749442E+02  0.00000000000E+00 0.  1.
         11    1    3    3    0    0  0.15679576962E+02 -0.69629145665E+01 -0.17524783865E+02  0.24524464576E+02  0.51100000000E-03 0. -1.
        -11    1    3    3    0    0  0.62200053927E+01 -0.22835660512E+01  0.32104945751E+01  0.73627723497E+01  0.51100000000E-03 0.  1.
        -12    1    3    3    0    0  0.12905025684E+02 -0.74980326706E+01 -0.54818109835E+01  0.15900013632E+02  0.00000000000E+00 0.  1.
</event>
<event>
 7    1  0.2714068E-010  0.4778727E+02  0.7816164E-02  0.1312668E+00
        -11   -1    0    0    0    0  0.00000000000E+00  0.00000000000E+00  0.45593999997E+02  0.45594000000E+02  0.51100000000E-03 0. -1.
         11   -1    0    0    0    0 -0.00000000000E+00 -0.00000000000E+00 -0.45593999997E+02  0.45594000000E+02  0.51100000000E-03 0.  1.
    9900012    2    1    2    0    0  0.19258644112E+02  0.67112366548E+01  0.38310404367E+02  0.47787272434E+02  0.20000006335E+02 0.  0.
        -12    1    1    2    0    0 -0.19258644112E+02 -0.67112366548E+01 -0.38310404367E+02  0.43400727566E+02  0.00000000000E+00 0.  1.
         11    1    3    3    0    0  0.17312913863E+01  0.79453597030E+01  0.16333513403E+02  0.18245815165E+02  0.51100000000E-03 0. -1.
        -11    1    3    3    0    0  0.66614190053E+01 -0.67662027841E+00  0.23418375049E+01  0.70934139401E+01  0.51100000000E-03 0.  1.
         12    1    3    3    0    0  0.10865933720E+02 -0.55750276981E+00  0.19635053459E+02  0.22448043329E+02  0.00000000000E+00 0. -1.
</event>
<event>
 7    1  0.2714068E-010  0.4778727E+02  0.7816164E-02  0.1312668E+00
        -11   -1    0    0    0    0  0.00000000000E+00  0.00000000000E+00  0.45593999997E+02  0.45594000000E+02  0.51100000000E-03 0.  1.
         11   -1    0    0    0    0 -0.00000000000E+00 -0.00000000000E+00 -0.45593999997E+02  0.45594000000E+02  0.51100000000E-03 0. -1.
    9900012    2    1    2    0    0 -0.33137743336E+02 -0.27828468837E+02 -0.33300950603E+01  0.47787271385E+02  0.20000001554E+02 0.  0.
        -12    1    1    2    0    0  0.33137743336E+02  0.27828468837E+02  0.33300950603E+01  0.43400728615E+02  0.00000000000E+00 0.  1.
         11    1    3    3    0    0 -0.75879281570E+01 -0.89825790110E+01  0.35448965389E+01  0.12281273189E+02  0.51100000000E-03 0. -1.
        -11    1    3    3    0    0 -0.17289988674E+02 -0.12468790967E+02 -0.11351736150E+02  0.24151115303E+02  0.51100000000E-03 0.  1.
        -12    1    3    3    0    0 -0.82598265051E+01 -0.63770988588E+01  0.44767445508E+01  0.11354882893E+02  0.00000000000E+00 0.  1.
</event>
<event>
 7    1  0.2714068E-010  0.4778727E+02  0.7816164E-02  0.1312668E+00
        -11   -1    0    0    0    0  0.00000000000E+00  0.00000000000E+00  0.45593999997E+02  0.45594000000E+02  0.51100000000E-03 0.  1.
         11   -1    0    0    0    0 -0.00000000000E+00 -0.00000000000E+00 -0.45593999997E+02  0.45594000000E+02  0.51100000000E-03 0. -1.
    9900012    2    1    2    0    0 -0.81419702421E+01  0.31919493509E+02 -0.28257345239E+02  0.47787270683E+02  0.19999998351E+02 0.  0.
        -12    1    1    2    0    0  0.81419702421E+01 -0.31919493509E+02  0.28257345239E+02  0.43400729317E+02  0.00000000000E+00 0.  1.
         11    1    3    3    0    0  0.51203578957E+01  0.10505308380E+02 -0.13163715432E+02  0.17602925137E+02  0.51100000000E-03 0. -1.
        -11    1    3    3    0    0 -0.19026005120E+01  0.14632915092E+01 -0.40504506438E+01  0.47082121265E+01  0.51100000000E-03 0.  1.
         12    1    3    3    0    0 -0.11359727626E+02  0.19950893620E+02 -0.11043179163E+02  0.25476133420E+02  0.00000000000E+00 0. -1.
</event>
<event>
 7    1  0.2714068E-010  0.4778727E+02  0.7816164E-02  0.1312668E+00
        -11   -1    0    0    0    0  0.00000000000E+00  0.00000000000E+00  0.45593999997E+02  0.45594000000E+02  0.51100000000E-03 0. -1.
         11   -1    0    0    0    0 -0.00000000000E+00 -0.00000000000E+00 -0.45593999997E+02  0.45594000000E+02  0.51100000000E-03 0.  1.
    9900012    2    1    2    0    0  0.14733510865E+02  0.46324206950E+01  0.40559684375E+02  0.47787266590E+02  0.19999979692E+02 0.  0.
        -12    1    1    2    0    0 -0.14733510865E+02 -0.46324206950E+01 -0.40559684375E+02  0.43400733410E+02  0.00000000000E+00 0.  1.
         11    1    3    3    0    0  0.39273667807E+01  0.67779036821E+01  0.20128614483E+02  0.21599196963E+02  0.51100000000E-03 0. -1.
        -11    1    3    3    0    0  0.20768927006E+01 -0.20129367509E+01 -0.98939233186E+00  0.30568439771E+01  0.51100000000E-03 0.  1.
        -12    1    3    3    0    0  0.87292513835E+01 -0.13254623622E+00  0.21420462224E+02  0.23131225651E+02  0.00000000000E+00 0.  1.
</event>
<event>
 7    1  0.2714068E-010  0.4778727E+02  0.7816164E-02  0.1312668E+00
        -11   -1    0    0    0    0  0.00000000000E+00  0.00000000000E+00  0.45593999997E+02  0.45594000000E+02  0.51100000000E-03 0.  1.
         11   -1    0    0    0    0 -0.00000000000E+00 -0.00000000000E+00 -0.45593999997E+02  0.45594000000E+02  0.51100000000E-03 0. -1.
    9900012    2    1    2    0    0  0.28644056804E+02  0.11493710483E+02 -0.30512879989E+02  0.47787271711E+02  0.20000003038E+02 0.  0.
        -12    1    1    2    0    0 -0.28644056804E+02 -0.11493710483E+02  0.30512879989E+02  0.43400728289E+02  0.00000000000E+00 0.  1.
         11    1    3    3    0    0  0.21840582604E+02  0.74927006831E+01 -0.11425349940E+02  0.25762186117E+02  0.51100000000E-03 0. -1.
        -11    1    3    3    0    0 -0.16754335767E+01  0.71375773046E+00 -0.23104226928E+01  0.29418669325E+01  0.51100000000E-03 0.  1.
         12    1    3    3    0    0  0.84789077761E+01  0.32872520694E+01 -0.16777107356E+02  0.19083218661E+02  0.00000000000E+00 0. -1.
</event>
<event>
 7    1  0.2714068E-010  0.4778727E+02  0.7816164E-02  0.1312668E+00
        -11   -1    0    0    0    0  0.00000000000E+00  0.00000000000E+00  0.45593999997E+02  0.45594000000E+02  0.51100000000E-03 0.  1.
         11   -1    0    0    0    0 -0.00000000000E+00 -0.00000000000E+00 -0.45593999997E+02  0.45594000000E+02  0.51100000000E-03 0. -1.
    9900012    2    1    2    0    0 -0.15071870701E+02  0.12314597708E+02 -0.38791913552E+02  0.47787272355E+02  0.20000005973E+02 0.  0.
        -12    1    1    2    0    0  0.15071870701E+02 -0.12314597708E+02  0.38791913552E+02  0.43400727645E+02  0.00000000000E+00 0.  1.
         11    1    3    3    0    0 -0.39636737651E+01 -0.30179042899E+01 -0.11550193448E+02  0.12578768818E+02  0.51100000000E-03 0. -1.
        -11    1    3    3    0    0 -0.10949985475E+02  0.16454207873E+02 -0.20896443986E+02  0.28762901630E+02  0.51100000000E-03 0.  1.
        -12    1    3    3    0    0 -0.15821146094E+00 -0.11217058752E+01 -0.63452761168E+01  0.64456019064E+01  0.00000000000E+00 0.  1.
</event>
<event>
 7    1  0.2714068E-010  0.4778723E+02  0.7816164E-02  0.1312668E+00
        -11   -1    0    0    0    0  0.00000000000E+00  0.00000000000E+00  0.45593999997E+02  0.45594000000E+02  0.51100000000E-03 0. -1.
         11   -1    0    0    0    0 -0.00000000000E+00 -0.00000000000E+00 -0.45593999997E+02  0.45594000000E+02  0.51100000000E-03 0.  1.
    9900012    2    1    2    0    0  0.31359405037E+02  0.84082984551E+01 -0.28801297093E+02  0.47787234091E+02  0.19999831515E+02 0.  0.
        -12    1    1    2    0    0 -0.31359405037E+02 -0.84082984551E+01  0.28801297093E+02  0.43400765909E+02  0.00000000000E+00 0.  1.
         11    1    3    3    0    0  0.30206495984E+02  0.49183832917E+01 -0.23090785764E+02  0.38338065696E+02  0.51100000000E-03 0. -1.
        -11    1    3    3    0    0  0.11391101362E+01  0.49570475497E+01 -0.20110582636E+01  0.54693919144E+01  0.51100000000E-03 0.  1.
        -12    1    3    3    0    0  0.13798916667E-01 -0.14671323863E+01 -0.36994530662E+01  0.39797764809E+01  0.00000000000E+00 0.  1.
</event>
<event>
 7    1  0.2714068E-010  0.4778727E+02  0.7816164E-02  0.1312668E+00
        -11   -1    0    0    0    0  0.00000000000E+00  0.00000000000E+00  0.45593999997E+02  0.45594000000E+02  0.51100000000E-03 0.  1.
         11   -1    0    0    0    0 -0.00000000000E+00 -0.00000000000E+00 -0.45593999997E+02  0.45594000000E+02  0.51100000000E-03 0. -1.
    9900012    2    1    2    0    0  0.41038723436E+01  0.41738655689E+02 -0.11165410057E+02  0.47787268109E+02  0.19999986617E+02 0.  0.
        -12    1    1    2    0    0 -0.41038723436E+01 -0.41738655689E+02  0.11165410057E+02  0.43400731891E+02  0.00000000000E+00 0.  1.
         11    1    3    3    0    0  0.46242295261E+01  0.29676886632E+02 -0.16170042880E+02  0.34111162189E+02  0.51100000000E-03 0. -1.
        -11    1    3    3    0    0  0.61084155113E-01  0.70193988380E+01  0.49686692423E+01  0.86001956735E+01  0.51100000000E-03 0.  1.
         12    1    3    3    0    0 -0.58144133759E+00  0.50423702187E+01  0.35963581122E-01  0.50759102465E+01  0.00000000000E+00 0. -1.
</event>
<event>
 7    1  0.2714068E-010  0.4778727E+02  0.7816164E-02  0.1312668E+00
        -11   -1    0    0    0    0  0.00000000000E+00  0.00000000000E+00  0.45593999997E+02  0.45594000000E+02  0.51100000000E-03 0. -1.
         11   -1    0    0    0    0 -0.00000000000E+00 -0.00000000000E+00 -0.45593999997E+02  0.45594000000E+02  0.51100000000E-03 0.  1.
    9900012    2    1    2    0    0  0.34489694392E+00 -0.36253089274E+02  0.23858285994E+02  0.47787271361E+02  0.20000001445E+02 0.  0.
        -12    1    1    2    0    0 -0.34489694392E+00  0.36253089274E+02 -0.23858285994E+02  0.43400728639E+02  0.00000000000E+00 0.  1.
         11    1    3    3    0    0  0.39715304540E+01 -0.14662626370E+02  0.20131111538E+02  0.25219582039E+02  0.51100000000E-03 0. -1.
        -11    1    3    3    0    0 -0.80362282179E-02 -0.77098491285E+01 -0.13961318920E+00  0.77111173165E+01  0.51100000000E-03 0.  1.
         12    1    3    3    0    0 -0.36185972819E+01 -0.13880613776E+02  0.38667876453E+01  0.14856572006E+02  0.00000000000E+00 0. -1.
</event>
<event>
 7    1  0.2714068E-010  0.4778727E+02  0.7816164E-02  0.1312668E+00
        -11   -1    0    0    0    0  0.00000000000E+00  0.00000000000E+00  0.45593999997E+02  0.45594000000E+02  0.51100000000E-03 0.  1.
         11   -1    0    0    0    0 -0.00000000000E+00 -0.00000000000E+00 -0.45593999997E+02  0.45594000000E+02  0.51100000000E-03 0. -1.
    9900012    2    1    2    0    0  0.29206401346E+02 -0.24061088410E+02 -0.21252607004E+02  0.47787272361E+02  0.20000006005E+02 0.  0.
        -12    1    1    2    0    0 -0.29206401346E+02  0.24061088410E+02  0.21252607004E+02  0.43400727639E+02  0.00000000000E+00 0.  1.
         11    1    3    3    0    0  0.21510591501E+02 -0.16318036699E+02 -0.69644748906E+01  0.27883467847E+02  0.51100000000E-03 0. -1.
        -11    1    3    3    0    0  0.25544781261E+01 -0.66899108988E+01 -0.36409741655E+01  0.80334898684E+01  0.51100000000E-03 0.  1.
         12    1    3    3    0    0  0.51413317193E+01 -0.10531408123E+01 -0.10647157948E+02  0.11870314646E+02  0.00000000000E+00 0. -1.
</event>
<event>
 7    1  0.2714068E-010  0.4778731E+02  0.7816164E-02  0.1312668E+00
        -11   -1    0    0    0    0  0.00000000000E+00  0.00000000000E+00  0.45593999997E+02  0.45594000000E+02  0.51100000000E-03 0.  1.
         11   -1    0    0    0    0 -0.00000000000E+00 -0.00000000000E+00 -0.45593999997E+02  0.45594000000E+02  0.51100000000E-03 0. -1.
    9900012    2    1    2    0    0  0.12099178565E+02  0.28538070936E+02 -0.30377761951E+02  0.47787308348E+02  0.20000170083E+02 0.  0.
        -12    1    1    2    0    0 -0.12099178565E+02 -0.28538070936E+02  0.30377761951E+02  0.43400691652E+02  0.00000000000E+00 0.  1.
         11    1    3    3    0    0  0.66611099677E+01  0.13108810023E+01 -0.41514651509E+01  0.79576037954E+01  0.51100000000E-03 0. -1.
        -11    1    3    3    0    0  0.51737700422E+01  0.15489716434E+02 -0.21897478417E+02  0.27316639122E+02  0.51100000000E-03 0.  1.
        -12    1    3    3    0    0  0.26429855541E+00  0.11737473500E+02 -0.43288183834E+01  0.12513065431E+02  0.00000000000E+00 0.  1.
</event>
<event>
 7    1  0.2714068E-010  0.4778727E+02  0.7816164E-02  0.1312668E+00
        -11   -1    0    0    0    0  0.00000000000E+00  0.00000000000E+00  0.45593999997E+02  0.45594000000E+02  0.51100000000E-03 0. -1.
         11   -1    0    0    0    0 -0.00000000000E+00 -0.00000000000E+00 -0.45593999997E+02  0.45594000000E+02  0.51100000000E-03 0.  1.
    9900012    2    1    2    0    0  0.24757927655E+02 -0.15959788784E+02  0.31874019998E+02  0.47787274308E+02  0.20000014879E+02 0.  0.
        -12    1    1    2    0    0 -0.24757927655E+02  0.15959788784E+02 -0.31874019998E+02  0.43400725692E+02  0.00000000000E+00 0.  1.
         11    1    3    3    0    0  0.63484139398E+01 -0.13129552145E+02  0.19201419618E+02  0.24111864604E+02  0.51100000000E-03 0. -1.
        -11    1    3    3    0    0  0.13583065684E+02 -0.46197276154E+01  0.68338993627E+01  0.15891624756E+02  0.51100000000E-03 0.  1.
        -12    1    3    3    0    0  0.48264480305E+01  0.17894909759E+01  0.58387010170E+01  0.77837849476E+01  0.00000000000E+00 0.  1.
</event>
<event>
 7    1  0.2714068E-010  0.4778726E+02  0.7816164E-02  0.1312668E+00
        -11   -1    0    0    0    0  0.00000000000E+00  0.00000000000E+00  0.45593999997E+02  0.45594000000E+02  0.51100000000E-03 0.  1.
         11   -1    0    0    0    0 -0.00000000000E+00 -0.00000000000E+00 -0.45593999997E+02  0.45594000000E+02  0.51100000000E-03 0. -1.
    9900012    2    1    2    0    0 -0.13263928590E+02  0.35171372721E+02 -0.21694850823E+02  0.47787264833E+02  0.19999971682E+02 0.  0.
        -12    1    1    2    0    0  0.13263928590E+02 -0.35171372721E+02  0.21694850823E+02  0.43400735167E+02  0.00000000000E+00 0.  1.
         11    1    3    3    0    0 -0.15082265877E+02  0.28932884301E+02 -0.20418688220E+02  0.38490380186E+02  0.51100000000E-03 0. -1.
        -11    1    3    3    0    0 -0.13038059699E+01  0.93790649414E+00 -0.25509440571E+01  0.30144476181E+01  0.51100000000E-03 0.  1.
         12    1    3    3    0    0  0.31221432572E+01  0.53005819261E+01  0.12747814537E+01  0.62824370294E+01  0.00000000000E+00 0. -1.
</event>
<event>
 7    1  0.2714068E-010  0.4778726E+02  0.7816164E-02  0.1312668E+00
        -11   -1    0    0    0    0  0.00000000000E+00  0.00000000000E+00  0.45593999997E+02  0.45594000000E+02  0.51100000000E-03 0.  1.
         11   -1    0    0    0    0 -0.00000000000E+00 -0.00000000000E+00 -0.45593999997E+02  0.45594000000E+02  0.51100000000E-03 0. -1.
    9900012    2    1    2    0    0 -0.19473586258E+02  0.26052547283E+02 -0.28734442924E+02  0.47787262773E+02  0.19999962289E+02 0.  0.
        -12    1    1    2    0    0  0.19473586258E+02 -0.26052547283E+02  0.28734442924E+02  0.43400737227E+02  0.00000000000E+00 0.  1.
         11    1    3    3    0    0 -0.45851942023E+00  0.59330349104E+01 -0.21987671236E+01  0.63439514840E+01  0.51100000000E-03 0. -1.
        -11    1    3    3    0    0 -0.11057012424E+02  0.18507722914E+02 -0.11695552173E+02  0.24527113000E+02  0.51100000000E-03 0.  1.
        -12    1    3    3    0    0 -0.79580544130E+01  0.16117894588E+01 -0.14840123627E+02  0.16916198289E+02  0.00000000000E+00 0.  1.
</event>
<event>
 7    1  0.2714068E-010  0.4778727E+02  0.7816164E-02  0.1312668E+00
        -11   -1    0    0    0    0  0.00000000000E+00  0.00000000000E+00  0.45593999997E+02  0.45594000000E+02  0.51100000000E-03 0. -1.
         11   -1    0    0    0    0 -0.00000000000E+00 -0.00000000000E+00 -0.45593999997E+02  0.45594000000E+02  0.51100000000E-03 0.  1.
    9900012    2    1    2    0    0 -0.11037518732E+02  0.41405264085E+02 -0.68848210547E+01  0.47787268731E+02  0.19999989452E+02 0.  0.
        -12    1    1    2    0    0  0.11037518732E+02 -0.41405264085E+02  0.68848210547E+01  0.43400731269E+02  0.00000000000E+00 0.  1.
         11    1    3    3    0    0 -0.56071389083E+01  0.33719465668E+02 -0.85705953307E+01  0.35240565777E+02  0.51100000000E-03 0. -1.
        -11    1    3    3    0    0 -0.33695177834E+01  0.56634992999E+01  0.49103809908E+01  0.82183158949E+01  0.51100000000E-03 0.  1.
         12    1    3    3    0    0 -0.20608620405E+01  0.20222991173E+01 -0.32246067149E+01  0.43283870593E+01  0.00000000000E+00 0. -1.
</event>
<event>
 7    1  0.2714068E-010  0.4778727E+02  0.7816164E-02  0.1312668E+00
        -11   -1    0    0    0    0  0.00000000000E+00  0.00000000000E+00  0.45593999997E+02  0.45594000000E+02  0.51100000000E-03 0.  1.
         11   -1    0    0    0    0 -0.00000000000E+00 -0.00000000000E+00 -0.45593999997E+02  0.45594000000E+02  0.51100000000E-03 0. -1.
    9900012    2    1    2    0    0  0.66001170221E+01  0.27214239533E+02 -0.33157906349E+02  0.47787272684E+02  0.20000007476E+02 0.  0.
        -12    1    1    2    0    0 -0.66001170221E+01 -0.27214239533E+02  0.33157906349E+02  0.43400727316E+02  0.00000000000E+00 0.  1.
         11    1    3    3    0    0  0.36565007586E+01  0.44489467422E+01 -0.18164407860E+02  0.19055414928E+02  0.51100000000E-03 0. -1.
        -11    1    3    3    0    0  0.30247945272E+01  0.17499990894E+02 -0.68513528454E+01  0.19035233103E+02  0.51100000000E-03 0.  1.
         12    1    3    3    0    0 -0.81178263695E-01  0.52653018974E+01 -0.81421456435E+01  0.96966246530E+01  0.00000000000E+00 0. -1.
</event>
<event>
 7    1  0.2714068E-010  0.4778727E+02  0.7816164E-02  0.1312668E+00
        -11   -1    0    0    0    0  0.00000000000E+00  0.00000000000E+00  0.45593999997E+02  0.45594000000E+02  0.51100000000E-03 0. -1.
         11   -1    0    0    0    0 -0.00000000000E+00 -0.00000000000E+00 -0.45593999997E+02  0.45594000000E+02  0.51100000000E-03 0.  1.
    9900012    2    1    2    0    0  0.43377332979E+01 -0.32602256589E+02  0.28317840993E+02  0.47787272087E+02  0.20000004752E+02 0.  0.
        -12    1    1    2    0    0 -0.43377332979E+01  0.32602256589E+02 -0.28317840993E+02  0.43400727913E+02  0.00000000000E+00 0.  1.
         11    1    3    3    0    0  0.12137438670E+01  0.10260487654E+00  0.64909959851E+01  0.66042964103E+01  0.51100000000E-03 0. -1.
        -11    1    3    3    0    0  0.48633153684E+01 -0.23751794097E+02  0.99467328720E+01  0.26205668362E+02  0.51100000000E-03 0.  1.
         12    1    3    3    0    0 -0.17393259374E+01 -0.89530673689E+01  0.11880112136E+02  0.14977307315E+02  0.00000000000E+00 0. -1.
</event>
<event>
 7    1  0.2714068E-010  0.4778727E+02  0.7816164E-02  0.1312668E+00
        -11   -1    0    0    0    0  0.00000000000E+00  0.00000000000E+00  0.45593999997E+02  0.45594000000E+02  0.51100000000E-03 0. -1.
         11   -1    0    0    0    0 -0.00000000000E+00 -0.00000000000E+00 -0.45593999997E+02  0.45594000000E+02  0.51100000000E-03 0.  1.
    9900012    2    1    2    0    0 -0.38187768142E+02  0.20435100979E+02 -0.27792182208E+01  0.47787273720E+02  0.20000012197E+02 0.  0.
        -12    1    1    2    0    0  0.38187768142E+02 -0.20435100979E+02  0.27792182208E+01  0.43400726280E+02  0.00000000000E+00 0.  1.
         11    1    3    3    0    0 -0.81525329061E+01  0.11894730059E+02  0.38472663116E+01  0.14924806675E+02  0.51100000000E-03 0.  1.
        -11    1    3    3    0    0 -0.18611986397E+02  0.19330815090E+01 -0.60023813280E+01  0.19651244837E+02  0.51100000000E-03 0. -1.
        -12    1    3    3    0    0 -0.11423248839E+02  0.66072894115E+01 -0.62410320448E+00  0.13211222208E+02  0.00000000000E+00 0.  1.
</event>
<event>
 7    1  0.2714068E-010  0.4778727E+02  0.7816164E-02  0.1312668E+00
        -11   -1    0    0    0    0  0.00000000000E+00  0.00000000000E+00  0.45593999997E+02  0.45594000000E+02  0.51100000000E-03 0. -1.
         11   -1    0    0    0    0 -0.00000000000E+00 -0.00000000000E+00 -0.45593999997E+02  0.45594000000E+02  0.51100000000E-03 0.  1.
    9900012    2    1    2    0    0  0.51389117984E+01 -0.43086897573E+02 -0.85694453754E+00  0.47787268315E+02  0.19999987553E+02 0.  0.
        -12    1    1    2    0    0 -0.51389117984E+01  0.43086897573E+02  0.85694453754E+00  0.43400731685E+02  0.00000000000E+00 0.  1.
         11    1    3    3    0    0  0.10093338858E+02 -0.20249255944E+02  0.59232997184E+01  0.23387888648E+02  0.51100000000E-03 0. -1.
        -11    1    3    3    0    0 -0.35959490626E+01 -0.17646981551E+02 -0.44597506768E+01  0.18553602989E+02  0.51100000000E-03 0.  1.
         12    1    3    3    0    0 -0.13584779973E+01 -0.51906600782E+01 -0.23204935792E+01  0.58457766779E+01  0.00000000000E+00 0. -1.
</event>
<event>
 7    1  0.2714068E-010  0.4778727E+02  0.7816164E-02  0.1312668E+00
        -11   -1    0    0    0    0  0.00000000000E+00  0.00000000000E+00  0.45593999997E+02  0.45594000000E+02  0.51100000000E-03 0. -1.
         11   -1    0    0    0    0 -0.00000000000E+00 -0.00000000000E+00 -0.45593999997E+02  0.45594000000E+02  0.51100000000E-03 0.  1.
    9900012    2    1    2    0    0  0.34880883593E+02  0.24431741095E+02  0.83688330413E+01  0.47787269826E+02  0.19999994445E+02 0.  0.
        -12    1    1    2    0    0 -0.34880883593E+02 -0.24431741095E+02 -0.83688330413E+01  0.43400730174E+02  0.00000000000E+00 0.  1.
         11    1    3    3    0    0  0.16869612965E+02  0.44641111240E+01  0.98569145460E+00  0.17478092505E+02  0.51100000000E-03 0. -1.
        -11    1    3    3    0    0  0.10046129824E+02  0.12771659402E+02  0.10233031271E+02  0.19202992933E+02  0.51100000000E-03 0.  1.
         12    1    3    3    0    0  0.79651408042E+01  0.71959705688E+01 -0.28498896840E+01  0.11106184388E+02  0.00000000000E+00 0. -1.
</event>
<event>
 7    1  0.2714068E-010  0.4778727E+02  0.7816164E-02  0.1312668E+00
        -11   -1    0    0    0    0  0.00000000000E+00  0.00000000000E+00  0.45593999997E+02  0.45594000000E+02  0.51100000000E-03 0.  1.
         11   -1    0    0    0    0 -0.00000000000E+00 -0.00000000000E+00 -0.45593999997E+02  0.45594000000E+02  0.51100000000E-03 0. -1.
    9900012    2    1    2    0    0 -0.10857220853E+02 -0.93096318900E+01 -0.40976514792E+02  0.47787271261E+02  0.20000000989E+02 0.  0.
        -12    1    1    2    0    0  0.10857220853E+02  0.93096318900E+01  0.40976514792E+02  0.43400728739E+02  0.00000000000E+00 0.  1.
         11    1    3    3    0    0  0.33864394359E+01  0.37672385815E+01 -0.80594133236E+01  0.95191492248E+01  0.51100000000E-03 0. -1.
        -11    1    3    3    0    0 -0.13470981874E+02 -0.11484757113E+02 -0.30614312885E+02  0.35363867892E+02  0.51100000000E-03 0.  1.
         12    1    3    3    0    0 -0.77267841435E+00 -0.15921133581E+01 -0.23027885832E+01  0.29042541446E+01  0.00000000000E+00 0. -1.
</event>
<event>
 7    1  0.2714068E-010  0.4778728E+02  0.7816164E-02  0.1312668E+00
        -11   -1    0    0    0    0  0.00000000000E+00  0.00000000000E+00  0.45593999997E+02  0.45594000000E+02  0.51100000000E-03 0. -1.
         11   -1    0    0    0    0 -0.00000000000E+00 -0.00000000000E+00 -0.45593999997E+02  0.45594000000E+02  0.51100000000E-03 0.  1.
    9900012    2    1    2    0    0  0.25316173829E+02  0.29745947870E+02  0.18918046145E+02  0.47787279477E+02  0.20000038446E+02 0.  0.
        -12    1    1    2    0    0 -0.25316173829E+02 -0.29745947870E+02 -0.18918046145E+02  0.43400720523E+02  0.00000000000E+00 0.  1.
         11    1    3    3    0    0  0.65239242511E+01  0.16110930419E+02  0.66374983682E+01  0.18605914422E+02  0.51100000000E-03 0. -1.
        -11    1    3    3    0    0  0.20558011562E+02  0.11629888212E+02  0.12005015297E+02  0.26495405861E+02  0.51100000000E-03 0.  1.
         12    1    3    3    0    0 -0.17657619839E+01  0.20051292383E+01  0.27553248001E+00  0.26859591943E+01  0.00000000000E+00 0. -1.
</event>
<event>
 7    1  0.2714068E-010  0.4778727E+02  0.7816164E-02  0.1312668E+00
        -11   -1    0    0    0    0  0.00000000000E+00  0.00000000000E+00  0.45593999997E+02  0.45594000000E+02  0.51100000000E-03 0.  1.
         11   -1    0    0    0    0 -0.00000000000E+00 -0.00000000000E+00 -0.45593999997E+02  0.45594000000E+02  0.51100000000E-03 0. -1.
    9900012    2    1    2    0    0 -0.16909370849E+02 -0.10531792360E+02 -0.38558757440E+02  0.47787271341E+02  0.20000001353E+02 0.  0.
        -12    1    1    2    0    0  0.16909370849E+02  0.10531792360E+02  0.38558757440E+02  0.43400728659E+02  0.00000000000E+00 0.  1.
         11    1    3    3    0    0  0.70697439915E+00 -0.46500315324E+01 -0.18814510217E+02  0.19393514406E+02  0.51100000000E-03 0. -1.
        -11    1    3    3    0    0 -0.23161339797E+00  0.12112986206E+01 -0.29708076151E+01  0.32166111456E+01  0.51100000000E-03 0.  1.
         12    1    3    3    0    0 -0.17384731850E+02 -0.70930594483E+01 -0.16773439607E+02  0.25177145789E+02  0.00000000000E+00 0. -1.
</event>
<event>
 7    1  0.2714068E-010  0.4778727E+02  0.7816164E-02  0.1312668E+00
        -11   -1    0    0    0    0  0.00000000000E+00  0.00000000000E+00  0.45593999997E+02  0.45594000000E+02  0.51100000000E-03 0.  1.
         11   -1    0    0    0    0 -0.00000000000E+00 -0.00000000000E+00 -0.45593999997E+02  0.45594000000E+02  0.51100000000E-03 0. -1.
    9900012    2    1    2    0    0 -0.83200388550E+01 -0.37443418852E+02 -0.20307401020E+02  0.47787271918E+02  0.20000003982E+02 0.  0.
        -12    1    1    2    0    0  0.83200388550E+01  0.37443418852E+02  0.20307401020E+02  0.43400728082E+02  0.00000000000E+00 0.  1.
         11    1    3    3    0    0 -0.12203631902E+02 -0.20070636901E+02 -0.10221159391E+02  0.25617009911E+02  0.51100000000E-03 0.  1.
        -11    1    3    3    0    0  0.43961890504E+01 -0.79877707768E+01 -0.88214138736E+01  0.12686540235E+02  0.51100000000E-03 0. -1.
         12    1    3    3    0    0 -0.51259600347E+00 -0.93850111735E+01 -0.12648277559E+01  0.94837217717E+01  0.00000000000E+00 0. -1.
</event>
<event>
 7    1  0.2714068E-010  0.4778727E+02  0.7816164E-02  0.1312668E+00
        -11   -1    0    0    0    0  0.00000000000E+00  0.00000000000E+00  0.45593999997E+02  0.45594000000E+02  0.51100000000E-03 0. -1.
         11   -1    0    0    0    0 -0.00000000000E+00 -0.00000000000E+00 -0.45593999997E+02  0.45594000000E+02  0.51100000000E-03 0.  1.
    9900012    2    1    2    0    0 -0.28308864840E+02  0.58472791942E+01  0.32373453867E+02  0.47787273995E+02  0.20000013453E+02 0.  0.
        -12    1    1    2    0    0  0.28308864840E+02 -0.58472791942E+01 -0.32373453867E+02  0.43400726005E+02  0.00000000000E+00 0.  1.
         11    1    3    3    0    0 -0.14615469062E+02  0.72553746317E+01  0.29302997541E+02  0.33539798182E+02  0.51100000000E-03 0. -1.
        -11    1    3    3    0    0 -0.94466494617E+01 -0.12425804320E+01  0.30269569707E+01  0.99972826781E+01  0.51100000000E-03 0.  1.
         12    1    3    3    0    0 -0.42467463162E+01 -0.16551500555E+00  0.43499355187E-01  0.42501931351E+01  0.00000000000E+00 0. -1.
</event>
<event>
 7    1  0.2714068E-010  0.4778728E+02  0.7816164E-02  0.1312668E+00
        -11   -1    0    0    0    0  0.00000000000E+00  0.00000000000E+00  0.45593999997E+02  0.45594000000E+02  0.51100000000E-03 0.  1.
         11   -1    0    0    0    0 -0.00000000000E+00 -0.00000000000E+00 -0.45593999997E+02  0.45594000000E+02  0.51100000000E-03 0. -1.
    9900012    2    1    2    0    0 -0.17279683977E+01  0.37244490913E+02 -0.22214520818E+02  0.47787275198E+02  0.20000018939E+02 0.  0.
        -12    1    1    2    0    0  0.17279683977E+01 -0.37244490913E+02  0.22214520818E+02  0.43400724802E+02  0.00000000000E+00 0.  1.
         11    1    3    3    0    0 -0.42951580927E+00  0.26810118551E+02 -0.21086717326E+02  0.34111824759E+02  0.51100000000E-03 0. -1.
        -11    1    3    3    0    0 -0.27204036949E+01  0.10393714397E+02  0.13399300937E+01  0.10827063690E+02  0.51100000000E-03 0.  1.
         12    1    3    3    0    0  0.14219511064E+01  0.40657964354E-01 -0.24677335859E+01  0.28483867487E+01  0.00000000000E+00 0. -1.
</event>
<event>
 7    1  0.2714068E-010  0.4778727E+02  0.7816164E-02  0.1312668E+00
        -11   -1    0    0    0    0  0.00000000000E+00  0.00000000000E+00  0.45593999997E+02  0.45594000000E+02  0.51100000000E-03 0.  1.
         11   -1    0    0    0    0 -0.00000000000E+00 -0.00000000000E+00 -0.45593999997E+02  0.45594000000E+02  0.51100000000E-03 0. -1.
    9900012    2    1    2    0    0  0.28288318907E+02 -0.17662667416E+02  0.27774536939E+02  0.47787266031E+02  0.19999977142E+02 0.  0.
        -12    1    1    2    0    0 -0.28288318907E+02  0.17662667416E+02 -0.27774536939E+02  0.43400733969E+02  0.00000000000E+00 0.  1.
         11    1    3    3    0    0  0.70354430112E+01  0.38194952497E+01  0.38005800960E+01  0.88617386360E+01  0.51100000000E-03 0. -1.
        -11    1    3    3    0    0  0.18005165336E+02 -0.16053511159E+02  0.17006878844E+02  0.29514998349E+02  0.51100000000E-03 0.  1.
         12    1    3    3    0    0  0.32477105603E+01 -0.54286515074E+01  0.69670779990E+01  0.94105290455E+01  0.00000000000E+00 0. -1.
</event>
<event>
 7    1  0.2714068E-010  0.4778727E+02  0.7816164E-02  0.1312668E+00
        -11   -1    0    0    0    0  0.00000000000E+00  0.00000000000E+00  0.45593999997E+02  0.45594000000E+02  0.51100000000E-03 0.  1.
         11   -1    0    0    0    0 -0.00000000000E+00 -0.00000000000E+00 -0.45593999997E+02  0.45594000000E+02  0.51100000000E-03 0. -1.
    9900012    2    1    2    0    0 -0.27434349755E+02  0.30647562129E+02 -0.13845817412E+02  0.47787271081E+02  0.20000000165E+02 0.  0.
        -12    1    1    2    0    0  0.27434349755E+02 -0.30647562129E+02  0.13845817412E+02  0.43400728919E+02  0.00000000000E+00 0.  1.
         11    1    3    3    0    0 -0.22505003418E+02  0.23745347913E+02 -0.10984562733E+02  0.34510539623E+02  0.51100000000E-03 0. -1.
        -11    1    3    3    0    0 -0.13161117328E+01 -0.51634938854E+00  0.28908505901E+01  0.32180404254E+01  0.51100000000E-03 0.  1.
        -12    1    3    3    0    0 -0.36132346046E+01  0.74185636039E+01 -0.57521052695E+01  0.10058691032E+02  0.00000000000E+00 0.  1.
</event>
<event>
 7    1  0.2714068E-010  0.4778728E+02  0.7816164E-02  0.1312668E+00
        -11   -1    0    0    0    0  0.00000000000E+00  0.00000000000E+00  0.45593999997E+02  0.45594000000E+02  0.51100000000E-03 0. -1.
         11   -1    0    0    0    0 -0.00000000000E+00 -0.00000000000E+00 -0.45593999997E+02  0.45594000000E+02  0.51100000000E-03 0.  1.
    9900012    2    1    2    0    0 -0.97170722679E+01 -0.51802946537E+01  0.41980539532E+02  0.47787278283E+02  0.20000033004E+02 0.  0.
        -12    1    1    2    0    0  0.97170722679E+01  0.51802946537E+01 -0.41980539532E+02  0.43400721717E+02  0.00000000000E+00 0.  1.
         11    1    3    3    0    0 -0.49295910275E+00 -0.69286939821E+01  0.17589231459E+02  0.18911130917E+02  0.51100000000E-03 0. -1.
        -11    1    3    3    0    0 -0.12042585473E+02  0.15747550256E+01  0.22187886753E+02  0.25294387462E+02  0.51100000000E-03 0.  1.
        -12    1    3    3    0    0  0.28184723082E+01  0.17364430280E+00  0.22034213199E+01  0.35817599039E+01  0.00000000000E+00 0.  1.
</event>
<event>
 7    1  0.2714068E-010  0.4778727E+02  0.7816164E-02  0.1312668E+00
        -11   -1    0    0    0    0  0.00000000000E+00  0.00000000000E+00  0.45593999997E+02  0.45594000000E+02  0.51100000000E-03 0. -1.
         11   -1    0    0    0    0 -0.00000000000E+00 -0.00000000000E+00 -0.45593999997E+02  0.45594000000E+02  0.51100000000E-03 0.  1.
    9900012    2    1    2    0    0 -0.22033927564E+02  0.25456828313E+02  0.27387572207E+02  0.47787272091E+02  0.20000004773E+02 0.  0.
        -12    1    1    2    0    0  0.22033927564E+02 -0.25456828313E+02 -0.27387572207E+02  0.43400727909E+02  0.00000000000E+00 0.  1.
         11    1    3    3    0    0 -0.39823262741E+01  0.49333416769E+01 -0.23413117643E+01  0.67585888833E+01  0.51100000000E-03 0. -1.
        -11    1    3    3    0    0 -0.10603487047E+02  0.91752584935E+01  0.10622866463E+02  0.17591605900E+02  0.51100000000E-03 0.  1.
         12    1    3    3    0    0 -0.74481142426E+01  0.11348228142E+02  0.19106017508E+02  0.23437077308E+02  0.00000000000E+00 0. -1.
</event>
<event>
 7    1  0.2714068E-010  0.4778727E+02  0.7816164E-02  0.1312668E+00
        -11   -1    0    0    0    0  0.00000000000E+00  0.00000000000E+00  0.45593999997E+02  0.45594000000E+02  0.51100000000E-03 0.  1.
         11   -1    0    0    0    0 -0.00000000000E+00 -0.00000000000E+00 -0.45593999997E+02  0.45594000000E+02  0.51100000000E-03 0. -1.
    9900012    2    1    2    0    0 -0.16579615436E+02  0.22950552706E+02 -0.32893943911E+02  0.47787273467E+02  0.20000011046E+02 0.  0.
        -12    1    1    2    0    0  0.16579615436E+02 -0.22950552706E+02  0.32893943911E+02  0.43400726533E+02  0.00000000000E+00 0.  1.
         11    1    3    3    0    0 -0.59507631663E+01  0.11035208230E+02 -0.31759381692E+01  0.12933444493E+02  0.51100000000E-03 0. -1.
        -11    1    3    3    0    0 -0.85504048292E+01  0.36305137826E+01 -0.11918353774E+02  0.15110830884E+02  0.51100000000E-03 0.  1.
         12    1    3    3    0    0 -0.20784474404E+01  0.82848306939E+01 -0.17799651968E+02  0.19742998090E+02  0.00000000000E+00 0. -1.
</event>
<event>
 7    1  0.2714068E-010  0.4778727E+02  0.7816164E-02  0.1312668E+00
        -11   -1    0    0    0    0  0.00000000000E+00  0.00000000000E+00  0.45593999997E+02  0.45594000000E+02  0.51100000000E-03 0.  1.
         11   -1    0    0    0    0 -0.00000000000E+00 -0.00000000000E+00 -0.45593999997E+02  0.45594000000E+02  0.51100000000E-03 0. -1.
    9900012    2    1    2    0    0 -0.39401419562E+01  0.29841317500E+02 -0.31266505543E+02  0.47787270540E+02  0.19999997700E+02 0.  0.
        -12    1    1    2    0    0  0.39401419562E+01 -0.29841317500E+02  0.31266505543E+02  0.43400729460E+02  0.00000000000E+00 0.  1.
         11    1    3    3    0    0  0.45762681128E+01  0.39879537778E+01 -0.33924912373E+01  0.69537761130E+01  0.51100000000E-03 0. -1.
        -11    1    3    3    0    0 -0.49911904716E+01  0.14176176067E+02 -0.23460960977E+02  0.27862028649E+02  0.51100000000E-03 0.  1.
        -12    1    3    3    0    0 -0.35252195974E+01  0.11677187655E+02 -0.44130533293E+01  0.12971465778E+02  0.00000000000E+00 0.  1.
</event>
<event>
 7    1  0.2714068E-010  0.4778727E+02  0.7816164E-02  0.1312668E+00
        -11   -1    0    0    0    0  0.00000000000E+00  0.00000000000E+00  0.45593999997E+02  0.45594000000E+02  0.51100000000E-03 0.  1.
         11   -1    0    0    0    0 -0.00000000000E+00 -0.00000000000E+00 -0.45593999997E+02  0.45594000000E+02  0.51100000000E-03 0. -1.
    9900012    2    1    2    0    0  0.41904621646E+02  0.58336063511E+01 -0.96744535671E+01  0.47787270396E+02  0.19999997043E+02 0.  0.
        -12    1    1    2    0    0 -0.41904621646E+02 -0.58336063511E+01  0.96744535671E+01  0.43400729604E+02  0.00000000000E+00 0.  1.
         11    1    3    3    0    0  0.60563036339E+01  0.21361738385E+01  0.30099303249E+01  0.70923714789E+01  0.51100000000E-03 0. -1.
        -11    1    3    3    0    0  0.10805090914E+02  0.52782073013E+01  0.10814952440E+01  0.12073901366E+02  0.51100000000E-03 0.  1.
        -12    1    3    3    0    0  0.25043227098E+02 -0.15807747887E+01 -0.13765879136E+02  0.28620997551E+02  0.00000000000E+00 0.  1.
</event>
<event>
 7    1  0.2714068E-010  0.4778727E+02  0.7816164E-02  0.1312668E+00
        -11   -1    0    0    0    0  0.00000000000E+00  0.00000000000E+00  0.45593999997E+02  0.45594000000E+02  0.51100000000E-03 0.  1.
         11   -1    0    0    0    0 -0.00000000000E+00 -0.00000000000E+00 -0.45593999997E+02  0.45594000000E+02  0.51100000000E-03 0. -1.
    9900012    2    1    2    0    0 -0.68054734926E+01  0.41822923829E+02  0.93889088299E+01  0.47787273784E+02  0.20000012490E+02 0.  0.
        -12    1    1    2    0    0  0.68054734926E+01 -0.41822923829E+02 -0.93889088299E+01  0.43400726216E+02  0.00000000000E+00 0.  1.
         11    1    3    3    0    0 -0.44167962549E+00  0.98142675825E+01  0.34273934845E+01  0.10404900549E+02  0.51100000000E-03 0. -1.
        -11    1    3    3    0    0 -0.74836791441E+01  0.11492690238E+02  0.92944960102E+01  0.16567288214E+02  0.51100000000E-03 0.  1.
        -12    1    3    3    0    0  0.11198852770E+01  0.20515966009E+02 -0.33329806648E+01  0.20815085021E+02  0.00000000000E+00 0.  1.
</event>
<event>
 7    1  0.2714068E-010  0.4778729E+02  0.7816164E-02  0.1312668E+00
        -11   -1    0    0    0    0  0.00000000000E+00  0.00000000000E+00  0.45593999997E+02  0.45594000000E+02  0.51100000000E-03 0.  1.
         11   -1    0    0    0    0 -0.00000000000E+00 -0.00000000000E+00 -0.45593999997E+02  0.45594000000E+02  0.51100000000E-03 0. -1.
    9900012    2    1    2    0    0 -0.26377772567E+02 -0.24402954307E+02 -0.24337843682E+02  0.47787289181E+02  0.20000082691E+02 0.  0.
        -12    1    1    2    0    0  0.26377772567E+02  0.24402954307E+02  0.24337843682E+02  0.43400710819E+02  0.00000000000E+00 0.  1.
         11    1    3    3    0    0 -0.11048794712E+02 -0.94273419467E+01 -0.97606164539E+01  0.17499150682E+02  0.51100000000E-03 0. -1.
        -11    1    3    3    0    0 -0.11958786405E+02 -0.33338869392E+01 -0.13150225489E+02  0.18084684269E+02  0.51100000000E-03 0.  1.
        -12    1    3    3    0    0 -0.33701914498E+01 -0.11641725421E+02 -0.14270017388E+01  0.12203454231E+02  0.00000000000E+00 0.  1.
</event>
<event>
 7    1  0.2714068E-010  0.4778728E+02  0.7816164E-02  0.1312668E+00
        -11   -1    0    0    0    0  0.00000000000E+00  0.00000000000E+00  0.45593999997E+02  0.45594000000E+02  0.51100000000E-03 0. -1.
         11   -1    0    0    0    0 -0.00000000000E+00 -0.00000000000E+00 -0.45593999997E+02  0.45594000000E+02  0.51100000000E-03 0.  1.
    9900012    2    1    2    0    0  0.42626775542E+02 -0.78129748648E+01  0.23533493304E+01  0.47787276246E+02  0.20000023714E+02 0.  0.
        -12    1    1    2    0    0 -0.42626775542E+02  0.78129748648E+01 -0.23533493304E+01  0.43400723754E+02  0.00000000000E+00 0.  1.
         11    1    3    3    0    0  0.40345596690E+02 -0.84583715478E+01 -0.23126832620E+01  0.41287525061E+02  0.51100000000E-03 0. -1.
        -11    1    3    3    0    0  0.27206300446E+01  0.24823685915E+00  0.50862471520E+01  0.57735049779E+01  0.51100000000E-03 0.  1.
         12    1    3    3    0    0 -0.43945119299E+00  0.39715982385E+00 -0.42021455964E+00  0.72624620676E+00  0.00000000000E+00 0. -1.
</event>
<event>
 7    1  0.2714068E-010  0.4778727E+02  0.7816164E-02  0.1312668E+00
        -11   -1    0    0    0    0  0.00000000000E+00  0.00000000000E+00  0.45593999997E+02  0.45594000000E+02  0.51100000000E-03 0. -1.
         11   -1    0    0    0    0 -0.00000000000E+00 -0.00000000000E+00 -0.45593999997E+02  0.45594000000E+02  0.51100000000E-03 0.  1.
    9900012    2    1    2    0    0  0.15332647480E+02 -0.20236696919E+02  0.35199560642E+02  0.47787273620E+02  0.20000011741E+02 0.  0.
        -12    1    1    2    0    0 -0.15332647480E+02  0.20236696919E+02 -0.35199560642E+02  0.43400726380E+02  0.00000000000E+00 0.  1.
         11    1    3    3    0    0  0.60308394901E+01 -0.94557724497E+01  0.90033888801E+01  0.14382060672E+02  0.51100000000E-03 0. -1.
        -11    1    3    3    0    0  0.81442264284E+00  0.31156979799E+01  0.97227111469E+01  0.10242166297E+02  0.51100000000E-03 0.  1.
        -12    1    3    3    0    0  0.84873853467E+01 -0.13896622449E+02  0.16473460615E+02  0.23163046651E+02  0.00000000000E+00 0.  1.
</event>
<event>
 7    1  0.2714068E-010  0.4778727E+02  0.7816164E-02  0.1312668E+00
        -11   -1    0    0    0    0  0.00000000000E+00  0.00000000000E+00  0.45593999997E+02  0.45594000000E+02  0.51100000000E-03 0. -1.
         11   -1    0    0    0    0 -0.00000000000E+00 -0.00000000000E+00 -0.45593999997E+02  0.45594000000E+02  0.51100000000E-03 0.  1.
    9900012    2    1    2    0    0 -0.21308851379E+02  0.46987594312E+00  0.37806548508E+02  0.47787273732E+02  0.20000012254E+02 0.  0.
        -12    1    1    2    0    0  0.21308851379E+02 -0.46987594312E+00 -0.37806548508E+02  0.43400726268E+02  0.00000000000E+00 0.  1.
         11    1    3    3    0    0 -0.10605248069E+02 -0.71291887844E+01  0.22718083298E+02  0.26065454693E+02  0.51100000000E-03 0.  1.
        -11    1    3    3    0    0 -0.53354638558E+01  0.21702388210E+01  0.12321172853E+02  0.13601044513E+02  0.51100000000E-03 0. -1.
         12    1    3    3    0    0 -0.53681394540E+01  0.54288259065E+01  0.27672923561E+01  0.81207745262E+01  0.00000000000E+00 0. -1.
</event>
<event>
 7    1  0.2714068E-010  0.4778727E+02  0.7816164E-02  0.1312668E+00
        -11   -1    0    0    0    0  0.00000000000E+00  0.00000000000E+00  0.45593999997E+02  0.45594000000E+02  0.51100000000E-03 0.  1.
         11   -1    0    0    0    0 -0.00000000000E+00 -0.00000000000E+00 -0.45593999997E+02  0.45594000000E+02  0.51100000000E-03 0. -1.
    9900012    2    1    2    0    0  0.13742978875E+02 -0.63315161267E+01 -0.40677580650E+02  0.47787272675E+02  0.20000007434E+02 0.  0.
        -12    1    1    2    0    0 -0.13742978875E+02  0.63315161267E+01  0.40677580650E+02  0.43400727325E+02  0.00000000000E+00 0.  1.
         11    1    3    3    0    0  0.17928292223E+00 -0.88881459297E+01 -0.10530976339E+02  0.13781608881E+02  0.51100000000E-03 0. -1.
        -11    1    3    3    0    0  0.29757908033E+01  0.11591336095E+00 -0.14328053733E+01  0.33047992845E+01  0.51100000000E-03 0.  1.
         12    1    3    3    0    0  0.10587905149E+02  0.24407164421E+01 -0.28713798937E+02  0.30700864509E+02  0.00000000000E+00 0. -1.
</event>
<event>
 7    1  0.2714068E-010  0.4778727E+02  0.7816164E-02  0.1312668E+00
        -11   -1    0    0    0    0  0.00000000000E+00  0.00000000000E+00  0.45593999997E+02  0.45594000000E+02  0.51100000000E-03 0.  1.
         11   -1    0    0    0    0 -0.00000000000E+00 -0.00000000000E+00 -0.45593999997E+02  0.45594000000E+02  0.51100000000E-03 0. -1.
    9900012    2    1    2    0    0  0.42677430487E+02  0.78717244969E+01 -0.54419931074E+00  0.47787271061E+02  0.20000000076E+02 0.  0.
        -12    1    1    2    0    0 -0.42677430487E+02 -0.78717244969E+01  0.54419931074E+00  0.43400728939E+02  0.00000000000E+00 0.  1.
         11    1    3    3    0    0  0.18990796834E+02  0.79715359197E+01 -0.22655614675E+01  0.20720244167E+02  0.51100000000E-03 0. -1.
        -11    1    3    3    0    0 -0.14818805748E+01 -0.96540635972E+00  0.56667111767E+00  0.18571741690E+01  0.51100000000E-03 0.  1.
        -12    1    3    3    0    0  0.25168514228E+02  0.86559493688E+00  0.11546910391E+01  0.25209852725E+02  0.00000000000E+00 0.  1.
</event>
<event>
 7    1  0.2714068E-010  0.4778727E+02  0.7816164E-02  0.1312668E+00
        -11   -1    0    0    0    0  0.00000000000E+00  0.00000000000E+00  0.45593999997E+02  0.45594000000E+02  0.51100000000E-03 0. -1.
         11   -1    0    0    0    0 -0.00000000000E+00 -0.00000000000E+00 -0.45593999997E+02  0.45594000000E+02  0.51100000000E-03 0.  1.
    9900012    2    1    2    0    0  0.34689282018E+02 -0.87235800063E+01 -0.24579992330E+02  0.47787272379E+02  0.20000006087E+02 0.  0.
        -12    1    1    2    0    0 -0.34689282018E+02  0.87235800063E+01  0.24579992330E+02  0.43400727621E+02  0.00000000000E+00 0.  1.
         11    1    3    3    0    0  0.31129611651E+02 -0.66701040460E+01 -0.12156531422E+02  0.34078208081E+02  0.51100000000E-03 0. -1.
        -11    1    3    3    0    0 -0.38370677255E+00 -0.53347281673E+00 -0.58986901600E+01  0.59351807047E+01  0.51100000000E-03 0.  1.
         12    1    3    3    0    0  0.39433771396E+01 -0.15200031436E+01 -0.65247707473E+01  0.77738835936E+01  0.00000000000E+00 0. -1.
</event>
<event>
 7    1  0.2714068E-010  0.4778728E+02  0.7816164E-02  0.1312668E+00
        -11   -1    0    0    0    0  0.00000000000E+00  0.00000000000E+00  0.45593999997E+02  0.45594000000E+02  0.51100000000E-03 0.  1.
         11   -1    0    0    0    0 -0.00000000000E+00 -0.00000000000E+00 -0.45593999997E+02  0.45594000000E+02  0.51100000000E-03 0. -1.
    9900012    2    1    2    0    0  0.29318248831E+02 -0.28699455258E+01 -0.31872030458E+02  0.47787278493E+02  0.20000033959E+02 0.  0.
        -12    1    1    2    0    0 -0.29318248831E+02  0.28699455258E+01  0.31872030458E+02  0.43400721507E+02  0.00000000000E+00 0.  1.
         11    1    3    3    0    0  0.17636904091E+02 -0.58316517590E+01 -0.29440051750E+02  0.34810705184E+02  0.51100000000E-03 0. -1.
        -11    1    3    3    0    0  0.11146441889E+02  0.31701807394E+01 -0.31957817797E+01  0.12021074584E+02  0.51100000000E-03 0.  1.
        -12    1    3    3    0    0  0.53490285112E+00 -0.20847450620E+00  0.76380307147E+00  0.95549872415E+00  0.00000000000E+00 0.  1.
</event>
<event>
 7    1  0.2714068E-010  0.4778727E+02  0.7816164E-02  0.1312668E+00
        -11   -1    0    0    0    0  0.00000000000E+00  0.00000000000E+00  0.45593999997E+02  0.45594000000E+02  0.51100000000E-03 0. -1.
         11   -1    0    0    0    0 -0.00000000000E+00 -0.00000000000E+00 -0.45593999997E+02  0.45594000000E+02  0.51100000000E-03 0.  1.
    9900012    2    1    2    0    0 -0.27608235762E+02  0.26464160825E+02  0.20519673617E+02  0.47787268492E+02  0.19999988364E+02 0.  0.
        -12    1    1    2    0    0  0.27608235762E+02 -0.26464160825E+02 -0.20519673617E+02  0.43400731508E+02  0.00000000000E+00 0.  1.
         11    1    3    3    0    0 -0.14468232911E+02  0.19401965127E+02  0.12463343159E+02  0.27223169127E+02  0.51100000000E-03 0. -1.
        -11    1    3    3    0    0 -0.20719617553E+01  0.20248714468E+00  0.72219070086E+01  0.75159808183E+01  0.51100000000E-03 0.  1.
         12    1    3    3    0    0 -0.11068041095E+02  0.68597085537E+01  0.83442344897E+00  0.13048118547E+02  0.00000000000E+00 0. -1.
</event>
<event>
 7    1  0.2714068E-010  0.4778727E+02  0.7816164E-02  0.1312668E+00
        -11   -1    0    0    0    0  0.00000000000E+00  0.00000000000E+00  0.45593999997E+02  0.45594000000E+02  0.51100000000E-03 0.  1.
         11   -1    0    0    0    0 -0.00000000000E+00 -0.00000000000E+00 -0.45593999997E+02  0.45594000000E+02  0.51100000000E-03 0. -1.
    9900012    2    1    2    0    0 -0.15358536311E+02  0.19368080598E+02 -0.35673742959E+02  0.47787272813E+02  0.20000008064E+02 0.  0.
        -12    1    1    2    0    0  0.15358536311E+02 -0.19368080598E+02  0.35673742959E+02  0.43400727187E+02  0.00000000000E+00 0.  1.
         11    1    3    3    0    0 -0.11222327753E+02  0.13670856254E+02 -0.26662698069E+02  0.31995818782E+02  0.51100000000E-03 0. -1.
        -11    1    3    3    0    0 -0.44690762259E+00  0.35318813238E+01  0.19259566956E+01  0.40476192463E+01  0.51100000000E-03 0.  1.
        -12    1    3    3    0    0 -0.36893009355E+01  0.21653430203E+01 -0.10937001585E+02  0.11743834785E+02  0.00000000000E+00 0.  1.
</event>
<event>
 7    1  0.2714068E-010  0.4778727E+02  0.7816164E-02  0.1312668E+00
        -11   -1    0    0    0    0  0.00000000000E+00  0.00000000000E+00  0.45593999997E+02  0.45594000000E+02  0.51100000000E-03 0.  1.
         11   -1    0    0    0    0 -0.00000000000E+00 -0.00000000000E+00 -0.45593999997E+02  0.45594000000E+02  0.51100000000E-03 0. -1.
    9900012    2    1    2    0    0  0.78347682540E+01 -0.31787692105E+02 -0.28491790698E+02  0.47787273046E+02  0.20000009125E+02 0.  0.
        -12    1    1    2    0    0 -0.78347682540E+01  0.31787692105E+02  0.28491790698E+02  0.43400726954E+02  0.00000000000E+00 0.  1.
         11    1    3    3    0    0  0.62316987903E+01 -0.95080012081E+01 -0.84110224713E+01  0.14141479981E+02  0.51100000000E-03 0. -1.
        -11    1    3    3    0    0  0.51987544153E+01 -0.12738547295E+02 -0.18905700502E+02  0.23382111675E+02  0.51100000000E-03 0.  1.
        -12    1    3    3    0    0 -0.35956849516E+01 -0.95411436020E+01 -0.11750677247E+01  0.10263681389E+02  0.00000000000E+00 0.  1.
</event>
<event>
 7    1  0.2714068E-010  0.4778727E+02  0.7816164E-02  0.1312668E+00
        -11   -1    0    0    0    0  0.00000000000E+00  0.00000000000E+00  0.45593999997E+02  0.45594000000E+02  0.51100000000E-03 0.  1.
         11   -1    0    0    0    0 -0.00000000000E+00 -0.00000000000E+00 -0.45593999997E+02  0.45594000000E+02  0.51100000000E-03 0. -1.
    9900012    2    1    2    0    0 -0.21086669395E+02  0.18408603283E+02 -0.33167735939E+02  0.47787274104E+02  0.20000013949E+02 0.  0.
        -12    1    1    2    0    0  0.21086669395E+02 -0.18408603283E+02  0.33167735939E+02  0.43400725896E+02  0.00000000000E+00 0.  1.
         11    1    3    3    0    0 -0.23684028377E+02  0.18208322432E+02 -0.29544134326E+02  0.42015855094E+02  0.51100000000E-03 0. -1.
        -11    1    3    3    0    0  0.15410996151E+00 -0.11688250672E+01  0.15897242500E-01  0.11790483033E+01  0.51100000000E-03 0.  1.
         12    1    3    3    0    0  0.24432490202E+01  0.13691059183E+01 -0.36394988554E+01  0.45923707068E+01  0.00000000000E+00 0. -1.
</event>
<event>
 7    1  0.2714068E-010  0.4778727E+02  0.7816164E-02  0.1312668E+00
        -11   -1    0    0    0    0  0.00000000000E+00  0.00000000000E+00  0.45593999997E+02  0.45594000000E+02  0.51100000000E-03 0. -1.
         11   -1    0    0    0    0 -0.00000000000E+00 -0.00000000000E+00 -0.45593999997E+02  0.45594000000E+02  0.51100000000E-03 0.  1.
    9900012    2    1    2    0    0  0.33581288050E+02  0.21430171441E+02 -0.17224063117E+02  0.47787268378E+02  0.19999987843E+02 0.  0.
        -12    1    1    2    0    0 -0.33581288050E+02 -0.21430171441E+02  0.17224063117E+02  0.43400731622E+02  0.00000000000E+00 0.  1.
         11    1    3    3    0    0  0.11616856575E+02  0.31673497471E+01 -0.37556862518E+01  0.12613034551E+02  0.51100000000E-03 0. -1.
        -11    1    3    3    0    0  0.13429701821E+02  0.19674996784E+02 -0.93133005466E+01  0.25577332870E+02  0.51100000000E-03 0.  1.
        -12    1    3    3    0    0  0.85347296543E+01 -0.14121750901E+01 -0.41550763187E+01  0.95969009566E+01  0.00000000000E+00 0.  1.
</event>
<event>
 7    1  0.2714068E-010  0.4778727E+02  0.7816164E-02  0.1312668E+00
        -11   -1    0    0    0    0  0.00000000000E+00  0.00000000000E+00  0.45593999997E+02  0.45594000000E+02  0.51100000000E-03 0. -1.
         11   -1    0    0    0    0 -0.00000000000E+00 -0.00000000000E+00 -0.45593999997E+02  0.45594000000E+02  0.51100000000E-03 0.  1.
    9900012    2    1    2    0    0  0.28353675532E+02  0.32856943319E+02 -0.33692467770E+00  0.47787272371E+02  0.20000006050E+02 0.  0.
        -12    1    1    2    0    0 -0.28353675532E+02 -0.32856943319E+02  0.33692467770E+00  0.43400727629E+02  0.00000000000E+00 0.  1.
         11    1    3    3    0    0 -0.11948205903E+01  0.85012237975E+01 -0.14452312287E+00  0.85859937976E+01  0.51100000000E-03 0.  1.
        -11    1    3    3    0    0  0.28503003077E+02  0.24514364798E+02 -0.13683772984E+01  0.37619778343E+02  0.51100000000E-03 0. -1.
        -12    1    3    3    0    0  0.10454930454E+01 -0.15864527657E+00  0.11759757435E+01  0.15815002312E+01  0.00000000000E+00 0.  1.
</event>
<event>
 7    1  0.2714068E-010  0.4778727E+02  0.7816164E-02  0.1312668E+00
        -11   -1    0    0    0    0  0.00000000000E+00  0.00000000000E+00  0.45593999997E+02  0.45594000000E+02  0.51100000000E-03 0.  1.
         11   -1    0    0    0    0 -0.00000000000E+00 -0.00000000000E+00 -0.45593999997E+02  0.45594000000E+02  0.51100000000E-03 0. -1.
    9900012    2    1    2    0    0  0.22778491664E+02  0.34993763593E+02 -0.11840614298E+02  0.47787270515E+02  0.19999997585E+02 0.  0.
        -12    1    1    2    0    0 -0.22778491664E+02 -0.34993763593E+02  0.11840614298E+02  0.43400729485E+02  0.00000000000E+00 0.  1.
         11    1    3    3    0    0  0.19066665128E+02  0.23996481305E+02 -0.60388360298E+01  0.31238379839E+02  0.51100000000E-03 0. -1.
        -11    1    3    3    0    0 -0.13195124080E+01  0.12748239093E+01  0.22910249475E+01  0.29351464300E+01  0.51100000000E-03 0.  1.
         12    1    3    3    0    0  0.50313389440E+01  0.97224583786E+01 -0.80928032161E+01  0.13613744246E+02  0.00000000000E+00 0. -1.
</event>
<event>
 7    1  0.2714068E-010  0.4778728E+02  0.7816164E-02  0.1312668E+00
        -11   -1    0    0    0    0  0.00000000000E+00  0.00000000000E+00  0.45593999997E+02  0.45594000000E+02  0.51100000000E-03 0.  1.
         11   -1    0    0    0    0 -0.00000000000E+00 -0.00000000000E+00 -0.45593999997E+02  0.45594000000E+02  0.51100000000E-03 0. -1.
    9900012    2    1    2    0    0 -0.21450819339E+02  0.10594545383E+02 -0.36211055850E+02  0.47787278716E+02  0.20000034979E+02 0.  0.
        -12    1    1    2    0    0  0.21450819339E+02 -0.10594545383E+02  0.36211055850E+02  0.43400721284E+02  0.00000000000E+00 0.  1.
         11    1    3    3    0    0 -0.86239999949E+01  0.24527614430E+01 -0.23755452160E+02  0.25391158347E+02  0.51100000000E-03 0. -1.
        -11    1    3    3    0    0 -0.13558995494E+02  0.94494428791E+01 -0.12744195742E+02  0.20869903088E+02  0.51100000000E-03 0.  1.
         12    1    3    3    0    0  0.73217614991E+00 -0.13076589392E+01  0.28859205293E+00  0.15262172810E+01  0.00000000000E+00 0. -1.
</event>
<event>
 7    1  0.2714068E-010  0.4778727E+02  0.7816164E-02  0.1312668E+00
        -11   -1    0    0    0    0  0.00000000000E+00  0.00000000000E+00  0.45593999997E+02  0.45594000000E+02  0.51100000000E-03 0.  1.
         11   -1    0    0    0    0 -0.00000000000E+00 -0.00000000000E+00 -0.45593999997E+02  0.45594000000E+02  0.51100000000E-03 0. -1.
    9900012    2    1    2    0    0  0.12829357926E+02  0.12372570848E+02 -0.39572087286E+02  0.47787273896E+02  0.20000013001E+02 0.  0.
        -12    1    1    2    0    0 -0.12829357926E+02 -0.12372570848E+02  0.39572087286E+02  0.43400726104E+02  0.00000000000E+00 0.  1.
         11    1    3    3    0    0  0.77167621351E+01  0.11229145336E+02 -0.24429524222E+02  0.27972196496E+02  0.51100000000E-03 0. -1.
        -11    1    3    3    0    0  0.57525312443E+01 -0.19576740437E+01 -0.21553869855E+01  0.64474643618E+01  0.51100000000E-03 0.  1.
         12    1    3    3    0    0 -0.63993545384E+00  0.31010995561E+01 -0.12987176079E+02  0.13367613038E+02  0.00000000000E+00 0. -1.
</event>
<event>
 7    1  0.2714068E-010  0.4778727E+02  0.7816164E-02  0.1312668E+00
        -11   -1    0    0    0    0  0.00000000000E+00  0.00000000000E+00  0.45593999997E+02  0.45594000000E+02  0.51100000000E-03 0. -1.
         11   -1    0    0    0    0 -0.00000000000E+00 -0.00000000000E+00 -0.45593999997E+02  0.45594000000E+02  0.51100000000E-03 0.  1.
    9900012    2    1    2    0    0  0.19157776047E+02 -0.23524877067E+02  0.31035188892E+02  0.47787272200E+02  0.20000005266E+02 0.  0.
        -12    1    1    2    0    0 -0.19157776047E+02  0.23524877067E+02 -0.31035188892E+02  0.43400727800E+02  0.00000000000E+00 0.  1.
         11    1    3    3    0    0  0.10950342020E+02 -0.62150013676E+01  0.20194882680E+02  0.23798519262E+02  0.51100000000E-03 0. -1.
        -11    1    3    3    0    0  0.48743919220E+01 -0.40592388769E+01 -0.31324379768E+00  0.63510029765E+01  0.51100000000E-03 0.  1.
        -12    1    3    3    0    0  0.33330421050E+01 -0.13250636822E+02  0.11153550009E+02  0.17637749961E+02  0.00000000000E+00 0.  1.
</event>
<event>
 7    1  0.2714068E-010  0.4778727E+02  0.7816164E-02  0.1312668E+00
        -11   -1    0    0    0    0  0.00000000000E+00  0.00000000000E+00  0.45593999997E+02  0.45594000000E+02  0.51100000000E-03 0.  1.
         11   -1    0    0    0    0 -0.00000000000E+00 -0.00000000000E+00 -0.45593999997E+02  0.45594000000E+02  0.51100000000E-03 0. -1.
    9900012    2    1    2    0    0 -0.30999526538E+02 -0.71481240959E+01 -0.29522143343E+02  0.47787271075E+02  0.20000000140E+02 0.  0.
        -12    1    1    2    0    0  0.30999526538E+02  0.71481240959E+01  0.29522143343E+02  0.43400728925E+02  0.00000000000E+00 0.  1.
         11    1    3    3    0    0 -0.55158840301E+01 -0.25325595740E+01  0.77901211234E+00  0.61192887464E+01  0.51100000000E-03 0.  1.
        -11    1    3    3    0    0 -0.13860967136E+02 -0.54272130234E+01 -0.90171856139E+01  0.17403754991E+02  0.51100000000E-03 0. -1.
         12    1    3    3    0    0 -0.11622675372E+02  0.81164850155E+00 -0.21283969841E+02  0.24264227338E+02  0.00000000000E+00 0. -1.
</event>
<event>
 7    1  0.2714068E-010  0.4778727E+02  0.7816164E-02  0.1312668E+00
        -11   -1    0    0    0    0  0.00000000000E+00  0.00000000000E+00  0.45593999997E+02  0.45594000000E+02  0.51100000000E-03 0. -1.
         11   -1    0    0    0    0 -0.00000000000E+00 -0.00000000000E+00 -0.45593999997E+02  0.45594000000E+02  0.51100000000E-03 0.  1.
    9900012    2    1    2    0    0 -0.83197423133E+01 -0.67222602991E+01  0.42062055791E+02  0.47787269211E+02  0.19999991639E+02 0.  0.
        -12    1    1    2    0    0  0.83197423133E+01  0.67222602991E+01 -0.42062055791E+02  0.43400730789E+02  0.00000000000E+00 0.  1.
         11    1    3    3    0    0 -0.80606659005E+01  0.31281111209E+01  0.29110594304E+02  0.30367517431E+02  0.51100000000E-03 0. -1.
        -11    1    3    3    0    0  0.15438671370E+01 -0.24497650591E+01  0.67672676338E+00  0.29736902924E+01  0.51100000000E-03 0.  1.
         12    1    3    3    0    0 -0.18029435498E+01 -0.74006063609E+01  0.12274734723E+02  0.14446061487E+02  0.00000000000E+00 0. -1.
</event>
<event>
 7    1  0.2714068E-010  0.4778728E+02  0.7816164E-02  0.1312668E+00
        -11   -1    0    0    0    0  0.00000000000E+00  0.00000000000E+00  0.45593999997E+02  0.45594000000E+02  0.51100000000E-03 0. -1.
         11   -1    0    0    0    0 -0.00000000000E+00 -0.00000000000E+00 -0.45593999997E+02  0.45594000000E+02  0.51100000000E-03 0.  1.
    9900012    2    1    2    0    0  0.18008237422E+02 -0.66553945571E+01  0.38923412061E+02  0.47787275372E+02  0.20000019732E+02 0.  0.
        -12    1    1    2    0    0 -0.18008237422E+02  0.66553945571E+01 -0.38923412061E+02  0.43400724628E+02  0.00000000000E+00 0.  1.
         11    1    3    3    0    0 -0.39483980811E+00  0.44911166812E+01  0.11741052502E+02  0.12576897138E+02  0.51100000000E-03 0. -1.
        -11    1    3    3    0    0  0.11095226449E+02 -0.42637366293E+01  0.18212071660E+02  0.21747713774E+02  0.51100000000E-03 0.  1.
         12    1    3    3    0    0  0.73078507809E+01 -0.68827746090E+01  0.89702878993E+01  0.13462664460E+02  0.00000000000E+00 0. -1.
</event>
<event>
 7    1  0.2714068E-010  0.4778733E+02  0.7816164E-02  0.1312667E+00
        -11   -1    0    0    0    0  0.00000000000E+00  0.00000000000E+00  0.45593999997E+02  0.45594000000E+02  0.51100000000E-03 0. -1.
         11   -1    0    0    0    0 -0.00000000000E+00 -0.00000000000E+00 -0.45593999997E+02  0.45594000000E+02  0.51100000000E-03 0.  1.
    9900012    2    1    2    0    0 -0.29571951432E+01 -0.21813458338E+02  0.37403820530E+02  0.47787334590E+02  0.20000289730E+02 0.  0.
        -12    1    1    2    0    0  0.29571951432E+01  0.21813458338E+02 -0.37403820530E+02  0.43400665410E+02  0.00000000000E+00 0.  1.
         11    1    3    3    0    0  0.45498166911E+00 -0.18654959546E+02  0.30666046879E+02  0.35897366971E+02  0.51100000000E-03 0. -1.
        -11    1    3    3    0    0  0.24448089187E+01  0.69416130524E+00  0.69549601333E+00  0.26348938370E+01  0.51100000000E-03 0.  1.
         12    1    3    3    0    0 -0.58569857310E+01 -0.38526600967E+01  0.60422776375E+01  0.92550737827E+01  0.00000000000E+00 0. -1.
</event>
<event>
 7    1  0.2714068E-010  0.4778727E+02  0.7816164E-02  0.1312668E+00
        -11   -1    0    0    0    0  0.00000000000E+00  0.00000000000E+00  0.45593999997E+02  0.45594000000E+02  0.51100000000E-03 0.  1.
         11   -1    0    0    0    0 -0.00000000000E+00 -0.00000000000E+00 -0.45593999997E+02  0.45594000000E+02  0.51100000000E-03 0. -1.
    9900012    2    1    2    0    0 -0.21964781187E+02  0.14256699036E+02 -0.34610957740E+02  0.47787268719E+02  0.19999989397E+02 0.  0.
        -12    1    1    2    0    0  0.21964781187E+02 -0.14256699036E+02  0.34610957740E+02  0.43400731281E+02  0.00000000000E+00 0.  1.
         11    1    3    3    0    0 -0.22769100082E+01  0.58589674612E+01 -0.57640002821E+01  0.85285120866E+01  0.51100000000E-03 0. -1.
        -11    1    3    3    0    0 -0.14497202091E+02  0.71802351612E+01 -0.86002033435E+01  0.18321794214E+02  0.51100000000E-03 0.  1.
        -12    1    3    3    0    0 -0.51906690885E+01  0.12174964136E+01 -0.20246754115E+02  0.20936962418E+02  0.00000000000E+00 0.  1.
</event>
<event>
 7    1  0.2714068E-010  0.4778727E+02  0.7816164E-02  0.1312668E+00
        -11   -1    0    0    0    0  0.00000000000E+00  0.00000000000E+00  0.45593999997E+02  0.45594000000E+02  0.51100000000E-03 0.  1.
         11   -1    0    0    0    0 -0.00000000000E+00 -0.00000000000E+00 -0.45593999997E+02  0.45594000000E+02  0.51100000000E-03 0. -1.
    9900012    2    1    2    0    0 -0.72527345680E+01  0.42306815625E+02  0.64151904142E+01  0.47787268726E+02  0.19999989429E+02 0.  0.
        -12    1    1    2    0    0  0.72527345680E+01 -0.42306815625E+02 -0.64151904142E+01  0.43400731274E+02  0.00000000000E+00 0.  1.
         11    1    3    3    0    0 -0.74757316338E+01  0.14635118268E+02 -0.50422968843E+01  0.17190055506E+02  0.51100000000E-03 0. -1.
        -11    1    3    3    0    0 -0.96294023043E+00  0.23747174625E+02  0.11699541688E+02  0.26490278076E+02  0.51100000000E-03 0.  1.
         12    1    3    3    0    0  0.11859372962E+01  0.39245227327E+01 -0.24205438941E+00  0.41069351440E+01  0.00000000000E+00 0. -1.
</event>
<event>
 7    1  0.2714068E-010  0.4778727E+02  0.7816164E-02  0.1312668E+00
        -11   -1    0    0    0    0  0.00000000000E+00  0.00000000000E+00  0.45593999997E+02  0.45594000000E+02  0.51100000000E-03 0. -1.
         11   -1    0    0    0    0 -0.00000000000E+00 -0.00000000000E+00 -0.45593999997E+02  0.45594000000E+02  0.51100000000E-03 0.  1.
    9900012    2    1    2    0    0 -0.25465107216E+02 -0.13034215767E+02  0.32638332489E+02  0.47787271736E+02  0.20000003152E+02 0.  0.
        -12    1    1    2    0    0  0.25465107216E+02  0.13034215767E+02 -0.32638332489E+02  0.43400728264E+02  0.00000000000E+00 0.  1.
         11    1    3    3    0    0 -0.11177069417E+02 -0.30533342683E+01  0.23117795999E+02  0.25858890599E+02  0.51100000000E-03 0. -1.
        -11    1    3    3    0    0 -0.27075575812E+01 -0.72359595161E+01  0.25494902295E+01  0.81357162479E+01  0.51100000000E-03 0.  1.
         12    1    3    3    0    0 -0.11580480218E+02 -0.27449219828E+01  0.69710462607E+01  0.13792664889E+02  0.00000000000E+00 0. -1.
</event>
<event>
 7    1  0.2714068E-010  0.4778727E+02  0.7816164E-02  0.1312668E+00
        -11   -1    0    0    0    0  0.00000000000E+00  0.00000000000E+00  0.45593999997E+02  0.45594000000E+02  0.51100000000E-03 0.  1.
         11   -1    0    0    0    0 -0.00000000000E+00 -0.00000000000E+00 -0.45593999997E+02  0.45594000000E+02  0.51100000000E-03 0. -1.
    9900012    2    1    2    0    0 -0.95954530087E+01 -0.22742565054E+02 -0.35697703346E+02  0.47787274109E+02  0.20000013973E+02 0.  0.
        -12    1    1    2    0    0  0.95954530087E+01  0.22742565054E+02  0.35697703346E+02  0.43400725891E+02  0.00000000000E+00 0.  1.
         11    1    3    3    0    0 -0.36769400237E+01 -0.97819713050E+01 -0.19615357845E+02  0.22225415951E+02  0.51100000000E-03 0. -1.
        -11    1    3    3    0    0 -0.77248251534E+01 -0.18256938357E+01 -0.99303254968E+01  0.12712885053E+02  0.51100000000E-03 0.  1.
        -12    1    3    3    0    0  0.18063121683E+01 -0.11134899913E+02 -0.61520200045E+01  0.12848973105E+02  0.00000000000E+00 0.  1.
</event>
<event>
 7    1  0.2714068E-010  0.4778727E+02  0.7816164E-02  0.1312668E+00
        -11   -1    0    0    0    0  0.00000000000E+00  0.00000000000E+00  0.45593999997E+02  0.45594000000E+02  0.51100000000E-03 0.  1.
         11   -1    0    0    0    0 -0.00000000000E+00 -0.00000000000E+00 -0.45593999997E+02  0.45594000000E+02  0.51100000000E-03 0. -1.
    9900012    2    1    2    0    0 -0.46347429270E+01 -0.28689255242E+02 -0.32234594505E+02  0.47787270844E+02  0.19999999086E+02 0.  0.
        -12    1    1    2    0    0  0.46347429270E+01  0.28689255242E+02  0.32234594505E+02  0.43400729156E+02  0.00000000000E+00 0.  1.
         11    1    3    3    0    0 -0.27364709396E+01 -0.91454611563E+01 -0.18082864151E+02  0.20447926768E+02  0.51100000000E-03 0. -1.
        -11    1    3    3    0    0  0.47962398894E+01 -0.11935103250E+02 -0.54048662819E+01  0.13952174972E+02  0.51100000000E-03 0.  1.
        -12    1    3    3    0    0 -0.66945118767E+01 -0.76086908357E+01 -0.87468640721E+01  0.13387169103E+02  0.00000000000E+00 0.  1.
</event>
<event>
 7    1  0.2714068E-010  0.4778727E+02  0.7816164E-02  0.1312668E+00
        -11   -1    0    0    0    0  0.00000000000E+00  0.00000000000E+00  0.45593999997E+02  0.45594000000E+02  0.51100000000E-03 0.  1.
         11   -1    0    0    0    0 -0.00000000000E+00 -0.00000000000E+00 -0.45593999997E+02  0.45594000000E+02  0.51100000000E-03 0. -1.
    9900012    2    1    2    0    0 -0.28621828101E+02  0.28727959013E+02  0.15463455481E+02  0.47787272721E+02  0.20000007646E+02 0.  0.
        -12    1    1    2    0    0  0.28621828101E+02 -0.28727959013E+02 -0.15463455481E+02  0.43400727279E+02  0.00000000000E+00 0.  1.
         11    1    3    3    0    0 -0.76363002663E+01  0.36265633788E+01  0.11180082253E+02  0.14016393371E+02  0.51100000000E-03 0. -1.
        -11    1    3    3    0    0 -0.32396713913E+01  0.10662498335E+01  0.16203344005E+01  0.37759559401E+01  0.51100000000E-03 0.  1.
         12    1    3    3    0    0 -0.17745856444E+02  0.24035145800E+02  0.26630388277E+01  0.29994923410E+02  0.00000000000E+00 0. -1.
</event>
<event>
 7    1  0.2714068E-010  0.4778729E+02  0.7816164E-02  0.1312668E+00
        -11   -1    0    0    0    0  0.00000000000E+00  0.00000000000E+00  0.45593999997E+02  0.45594000000E+02  0.51100000000E-03 0. -1.
         11   -1    0    0    0    0 -0.00000000000E+00 -0.00000000000E+00 -0.45593999997E+02  0.45594000000E+02  0.51100000000E-03 0.  1.
    9900012    2    1    2    0    0  0.34715864934E+02 -0.94747444407E+01  0.24262316147E+02  0.47787285200E+02  0.20000064539E+02 0.  0.
        -12    1    1    2    0    0 -0.34715864934E+02  0.94747444407E+01 -0.24262316147E+02  0.43400714800E+02  0.00000000000E+00 0.  1.
         11    1    3    3    0    0  0.93596860042E+01 -0.60887581089E+01  0.12203970767E+02  0.16541269605E+02  0.51100000000E-03 0. -1.
        -11    1    3    3    0    0  0.16166531718E+02 -0.11266728872E+01  0.37391409993E+00  0.16210057112E+02  0.51100000000E-03 0.  1.
        -12    1    3    3    0    0  0.91896472122E+01 -0.22593134446E+01  0.11684431280E+02  0.15035958482E+02  0.00000000000E+00 0.  1.
</event>
<event>
 7    1  0.2714068E-010  0.4778727E+02  0.7816164E-02  0.1312668E+00
        -11   -1    0    0    0    0  0.00000000000E+00  0.00000000000E+00  0.45593999997E+02  0.45594000000E+02  0.51100000000E-03 0. -1.
         11   -1    0    0    0    0 -0.00000000000E+00 -0.00000000000E+00 -0.45593999997E+02  0.45594000000E+02  0.51100000000E-03 0.  1.
    9900012    2    1    2    0    0 -0.40480235988E+02 -0.14737017231E+02  0.52719990918E+01  0.47787272392E+02  0.20000006142E+02 0.  0.
        -12    1    1    2    0    0  0.40480235988E+02  0.14737017231E+02 -0.52719990918E+01  0.43400727608E+02  0.00000000000E+00 0.  1.
         11    1    3    3    0    0 -0.87667732573E+01 -0.43111321268E+00  0.12202651128E+00  0.87782152330E+01  0.51100000000E-03 0. -1.
        -11    1    3    3    0    0 -0.32172041021E+02 -0.13015428359E+02  0.10876663126E+01  0.34722105597E+02  0.51100000000E-03 0.  1.
        -12    1    3    3    0    0  0.45857829022E+00 -0.12904756593E+01  0.40623062679E+01  0.42869515614E+01  0.00000000000E+00 0.  1.
</event>
<event>
 7    1  0.2714068E-010  0.4778727E+02  0.7816164E-02  0.1312668E+00
        -11   -1    0    0    0    0  0.00000000000E+00  0.00000000000E+00  0.45593999997E+02  0.45594000000E+02  0.51100000000E-03 0.  1.
         11   -1    0    0    0    0 -0.00000000000E+00 -0.00000000000E+00 -0.45593999997E+02  0.45594000000E+02  0.51100000000E-03 0. -1.
    9900012    2    1    2    0    0  0.62230642163E+01 -0.39461727327E+02 -0.16960801542E+02  0.47787271425E+02  0.20000001735E+02 0.  0.
        -12    1    1    2    0    0 -0.62230642163E+01  0.39461727327E+02  0.16960801542E+02  0.43400728575E+02  0.00000000000E+00 0.  1.
         11    1    3    3    0    0  0.56372437275E+01 -0.32787589122E+02 -0.63098041732E+01  0.33861750489E+02  0.51100000000E-03 0. -1.
        -11    1    3    3    0    0  0.26497380565E+01 -0.43948130715E+01 -0.91796366141E+01  0.10516711574E+02  0.51100000000E-03 0.  1.
        -12    1    3    3    0    0 -0.20639175677E+01 -0.22793251342E+01 -0.14713607547E+01  0.34088093617E+01  0.00000000000E+00 0.  1.
</event>
<event>
 7    1  0.2714068E-010  0.4778727E+02  0.7816164E-02  0.1312668E+00
        -11   -1    0    0    0    0  0.00000000000E+00  0.00000000000E+00  0.45593999997E+02  0.45594000000E+02  0.51100000000E-03 0.  1.
         11   -1    0    0    0    0 -0.00000000000E+00 -0.00000000000E+00 -0.45593999997E+02  0.45594000000E+02  0.51100000000E-03 0. -1.
    9900012    2    1    2    0    0  0.74855578711E+01 -0.12729346837E+01 -0.42731364166E+02  0.47787269328E+02  0.19999992174E+02 0.  0.
        -12    1    1    2    0    0 -0.74855578711E+01  0.12729346837E+01  0.42731364166E+02  0.43400730672E+02  0.00000000000E+00 0.  1.
         11    1    3    3    0    0  0.10130895814E+02  0.27060309956E+00 -0.10888153742E+02  0.14874816577E+02  0.51100000000E-03 0. -1.
        -11    1    3    3    0    0  0.11003602925E+01 -0.22260954367E+01 -0.33713907786E+01  0.41871911480E+01  0.51100000000E-03 0.  1.
         12    1    3    3    0    0 -0.37456982355E+01  0.68255765346E+00 -0.28471819646E+02  0.28725261603E+02  0.00000000000E+00 0. -1.
</event>
<event>
 7    1  0.2714068E-010  0.4778727E+02  0.7816164E-02  0.1312668E+00
        -11   -1    0    0    0    0  0.00000000000E+00  0.00000000000E+00  0.45593999997E+02  0.45594000000E+02  0.51100000000E-03 0.  1.
         11   -1    0    0    0    0 -0.00000000000E+00 -0.00000000000E+00 -0.45593999997E+02  0.45594000000E+02  0.51100000000E-03 0. -1.
    9900012    2    1    2    0    0 -0.96483664428E+01  0.40867201526E+02 -0.10972885866E+02  0.47787270054E+02  0.19999995484E+02 0.  0.
        -12    1    1    2    0    0  0.96483664428E+01 -0.40867201526E+02  0.10972885866E+02  0.43400729946E+02  0.00000000000E+00 0.  1.
         11    1    3    3    0    0  0.52169065692E+01  0.99605830966E+01 -0.35432387316E+01  0.11789142070E+02  0.51100000000E-03 0. -1.
        -11    1    3    3    0    0 -0.11618524549E+02  0.28583355892E+02 -0.82147544611E+01  0.31929305315E+02  0.51100000000E-03 0.  1.
         12    1    3    3    0    0 -0.32467484631E+01  0.23232625373E+01  0.78510732654E+00  0.40688226692E+01  0.00000000000E+00 0. -1.
</event>
<event>
 7    1  0.2714068E-010  0.4778727E+02  0.7816164E-02  0.1312668E+00
        -11   -1    0    0    0    0  0.00000000000E+00  0.00000000000E+00  0.45593999997E+02  0.45594000000E+02  0.51100000000E-03 0. -1.
         11   -1    0    0    0    0 -0.00000000000E+00 -0.00000000000E+00 -0.45593999997E+02  0.45594000000E+02  0.51100000000E-03 0.  1.
    9900012    2    1    2    0    0  0.24128315520E+02 -0.21063278854E+02  0.29287980137E+02  0.47787272974E+02  0.20000008796E+02 0.  0.
        -12    1    1    2    0    0 -0.24128315520E+02  0.21063278854E+02 -0.29287980137E+02  0.43400727026E+02  0.00000000000E+00 0.  1.
         11    1    3    3    0    0  0.24636683423E+02 -0.14479152437E+02  0.16310948255E+02  0.32903784868E+02  0.51100000000E-03 0. -1.
        -11    1    3    3    0    0 -0.81736866100E+00 -0.32784331592E+01  0.94674888747E+01  0.10052341089E+02  0.51100000000E-03 0.  1.
         12    1    3    3    0    0  0.30900075778E+00 -0.33056932581E+01  0.35095430065E+01  0.48311470170E+01  0.00000000000E+00 0. -1.
</event>
<event>
 7    1  0.2714068E-010  0.4778727E+02  0.7816164E-02  0.1312668E+00
        -11   -1    0    0    0    0  0.00000000000E+00  0.00000000000E+00  0.45593999997E+02  0.45594000000E+02  0.51100000000E-03 0. -1.
         11   -1    0    0    0    0 -0.00000000000E+00 -0.00000000000E+00 -0.45593999997E+02  0.45594000000E+02  0.51100000000E-03 0.  1.
    9900012    2    1    2    0    0  0.16405456165E+01  0.20551325981E+02  0.38191298548E+02  0.47787266432E+02  0.19999978969E+02 0.  0.
        -12    1    1    2    0    0 -0.16405456165E+01 -0.20551325981E+02 -0.38191298548E+02  0.43400733568E+02  0.00000000000E+00 0.  1.
         11    1    3    3    0    0  0.32384762395E+01  0.27671486753E+00 -0.26930552750E+00  0.32614146010E+01  0.51100000000E-03 0. -1.
        -11    1    3    3    0    0 -0.54065449759E+01  0.10521577616E+02  0.22826030912E+02  0.25709181464E+02  0.51100000000E-03 0.  1.
         12    1    3    3    0    0  0.38086143529E+01  0.97530334975E+01  0.15634573164E+02  0.18816670367E+02  0.00000000000E+00 0. -1.
</event>
<event>
 7    1  0.2714068E-010  0.4778727E+02  0.7816164E-02  0.1312668E+00
        -11   -1    0    0    0    0  0.00000000000E+00  0.00000000000E+00  0.45593999997E+02  0.45594000000E+02  0.51100000000E-03 0.  1.
         11   -1    0    0    0    0 -0.00000000000E+00 -0.00000000000E+00 -0.45593999997E+02  0.45594000000E+02  0.51100000000E-03 0. -1.
    9900012    2    1    2    0    0  0.38077217372E+02 -0.10750657489E+02 -0.17837380432E+02  0.47787271205E+02  0.20000000734E+02 0.  0.
        -12    1    1    2    0    0 -0.38077217372E+02  0.10750657489E+02  0.17837380432E+02  0.43400728795E+02  0.00000000000E+00 0.  1.
         11    1    3    3    0    0  0.55443618071E+01  0.11800575686E+01 -0.94136990619E+01  0.10988640225E+02  0.51100000000E-03 0. -1.
        -11    1    3    3    0    0  0.14553304267E+02 -0.10165779394E+02 -0.44251399379E+01  0.18295452974E+02  0.51100000000E-03 0.  1.
         12    1    3    3    0    0  0.17979551298E+02 -0.17649356635E+01 -0.39985414326E+01  0.18503178007E+02  0.00000000000E+00 0. -1.
</event>
<event>
 7    1  0.2714068E-010  0.4778727E+02  0.7816164E-02  0.1312668E+00
        -11   -1    0    0    0    0  0.00000000000E+00  0.00000000000E+00  0.45593999997E+02  0.45594000000E+02  0.51100000000E-03 0.  1.
         11   -1    0    0    0    0 -0.00000000000E+00 -0.00000000000E+00 -0.45593999997E+02  0.45594000000E+02  0.51100000000E-03 0. -1.
    9900012    2    1    2    0    0  0.38461249264E+02 -0.14478486890E+02 -0.13954529630E+02  0.47787272186E+02  0.20000005204E+02 0.  0.
        -12    1    1    2    0    0 -0.38461249264E+02  0.14478486890E+02  0.13954529630E+02  0.43400727814E+02  0.00000000000E+00 0.  1.
         11    1    3    3    0    0  0.29217048772E+02 -0.10158074144E+02 -0.42403546155E+01  0.31221835577E+02  0.51100000000E-03 0. -1.
        -11    1    3    3    0    0  0.42727321732E+01 -0.63385491083E+00 -0.94270998771E+01  0.10369581700E+02  0.51100000000E-03 0.  1.
        -12    1    3    3    0    0  0.49714683191E+01 -0.36865578353E+01 -0.28707513786E+00  0.61958549092E+01  0.00000000000E+00 0.  1.
</event>
<event>
 7    1  0.2714068E-010  0.4778727E+02  0.7816164E-02  0.1312668E+00
        -11   -1    0    0    0    0  0.00000000000E+00  0.00000000000E+00  0.45593999997E+02  0.45594000000E+02  0.51100000000E-03 0.  1.
         11   -1    0    0    0    0 -0.00000000000E+00 -0.00000000000E+00 -0.45593999997E+02  0.45594000000E+02  0.51100000000E-03 0. -1.
    9900012    2    1    2    0    0 -0.10256457165E+02 -0.27929651419E+02 -0.31596876436E+02  0.47787274862E+02  0.20000017407E+02 0.  0.
        -12    1    1    2    0    0  0.10256457165E+02  0.27929651419E+02  0.31596876436E+02  0.43400725138E+02  0.00000000000E+00 0.  1.
         11    1    3    3    0    0 -0.89170519124E+01 -0.83524386592E+01 -0.18870784603E+02  0.22480737491E+02  0.51100000000E-03 0. -1.
        -11    1    3    3    0    0  0.15366079711E+01 -0.16867225833E+01 -0.52130982168E+01  0.56905703062E+01  0.51100000000E-03 0.  1.
         12    1    3    3    0    0 -0.28760132239E+01 -0.17890490176E+02 -0.75129936165E+01  0.19615967065E+02  0.00000000000E+00 0. -1.
</event>
<event>
 7    1  0.2714068E-010  0.4778727E+02  0.7816164E-02  0.1312668E+00
        -11   -1    0    0    0    0  0.00000000000E+00  0.00000000000E+00  0.45593999997E+02  0.45594000000E+02  0.51100000000E-03 0. -1.
         11   -1    0    0    0    0 -0.00000000000E+00 -0.00000000000E+00 -0.45593999997E+02  0.45594000000E+02  0.51100000000E-03 0.  1.
    9900012    2    1    2    0    0 -0.38854218530E+02  0.39336289764E+01  0.18934084110E+02  0.47787271024E+02  0.19999999908E+02 0.  0.
        -12    1    1    2    0    0  0.38854218530E+02 -0.39336289764E+01 -0.18934084110E+02  0.43400728976E+02  0.00000000000E+00 0.  1.
         11    1    3    3    0    0 -0.15077886885E+02  0.54718555985E+00  0.12321969923E+02  0.19480067454E+02  0.51100000000E-03 0. -1.
        -11    1    3    3    0    0  0.17017499159E+01  0.69766627965E+00  0.94728628595E+00  0.20688263781E+01  0.51100000000E-03 0.  1.
        -12    1    3    3    0    0 -0.25478081562E+02  0.26887771369E+01  0.56648279008E+01  0.26238377193E+02  0.00000000000E+00 0.  1.
</event>
<event>
 7    1  0.2714068E-010  0.4778727E+02  0.7816164E-02  0.1312668E+00
        -11   -1    0    0    0    0  0.00000000000E+00  0.00000000000E+00  0.45593999997E+02  0.45594000000E+02  0.51100000000E-03 0. -1.
         11   -1    0    0    0    0 -0.00000000000E+00 -0.00000000000E+00 -0.45593999997E+02  0.45594000000E+02  0.51100000000E-03 0.  1.
    9900012    2    1    2    0    0 -0.27712181470E+02 -0.13778517347E+02 -0.30427139609E+02  0.47787269973E+02  0.19999995116E+02 0.  0.
        -12    1    1    2    0    0  0.27712181470E+02  0.13778517347E+02  0.30427139609E+02  0.43400730027E+02  0.00000000000E+00 0.  1.
         11    1    3    3    0    0 -0.18835398530E+02 -0.23356428282E+01 -0.73216227811E+01  0.20342901111E+02  0.51100000000E-03 0. -1.
        -11    1    3    3    0    0 -0.51099288670E+01 -0.52786687644E+01 -0.14101673678E+02  0.15900720667E+02  0.51100000000E-03 0.  1.
         12    1    3    3    0    0 -0.37668540728E+01 -0.61642057546E+01 -0.90038431496E+01  0.11543648195E+02  0.00000000000E+00 0. -1.
</event>
<event>
 7    1  0.2714068E-010  0.4778727E+02  0.7816164E-02  0.1312668E+00
        -11   -1    0    0    0    0  0.00000000000E+00  0.00000000000E+00  0.45593999997E+02  0.45594000000E+02  0.51100000000E-03 0.  1.
         11   -1    0    0    0    0 -0.00000000000E+00 -0.00000000000E+00 -0.45593999997E+02  0.45594000000E+02  0.51100000000E-03 0. -1.
    9900012    2    1    2    0    0  0.77483684940E+01 -0.34633509221E+02 -0.24982112630E+02  0.47787272739E+02  0.20000007726E+02 0.  0.
        -12    1    1    2    0    0 -0.77483684940E+01  0.34633509221E+02  0.24982112630E+02  0.43400727261E+02  0.00000000000E+00 0.  1.
         11    1    3    3    0    0  0.25029887561E+01 -0.13798765105E+01 -0.99324313146E+01  0.10335482765E+02  0.51100000000E-03 0. -1.
        -11    1    3    3    0    0  0.23584583899E+01 -0.29206161332E+02 -0.12385266760E+02  0.31811271881E+02  0.51100000000E-03 0.  1.
         12    1    3    3    0    0  0.28869213480E+01 -0.40474713792E+01 -0.26644145560E+01  0.56405180933E+01  0.00000000000E+00 0. -1.
</event>
<event>
 7    1  0.2714068E-010  0.4778726E+02  0.7816164E-02  0.1312668E+00
        -11   -1    0    0    0    0  0.00000000000E+00  0.00000000000E+00  0.45593999997E+02  0.45594000000E+02  0.51100000000E-03 0.  1.
         11   -1    0    0    0    0 -0.00000000000E+00 -0.00000000000E+00 -0.45593999997E+02  0.45594000000E+02  0.51100000000E-03 0. -1.
    9900012    2    1    2    0    0 -0.20769757077E+02  0.61284581561E+01 -0.37612282197E+02  0.47787255991E+02  0.19999931366E+02 0.  0.
        -12    1    1    2    0    0  0.20769757077E+02 -0.61284581561E+01  0.37612282197E+02  0.43400744009E+02  0.00000000000E+00 0.  1.
         11    1    3    3    0    0 -0.55330126648E+01  0.77042698262E+01 -0.12877481389E+02  0.15993734082E+02  0.51100000000E-03 0. -1.
        -11    1    3    3    0    0 -0.17013677388E+02 -0.17911546311E+01 -0.24645663774E+02  0.30001369907E+02  0.51100000000E-03 0.  1.
        -12    1    3    3    0    0  0.17769329753E+01  0.21534296100E+00 -0.89137034921E-01  0.17921520026E+01  0.00000000000E+00 0.  1.
</event>
<event>
 7    1  0.2714068E-010  0.4778727E+02  0.7816164E-02  0.1312668E+00
        -11   -1    0    0    0    0  0.00000000000E+00  0.00000000000E+00  0.45593999997E+02  0.45594000000E+02  0.51100000000E-03 0.  1.
         11   -1    0    0    0    0 -0.00000000000E+00 -0.00000000000E+00 -0.45593999997E+02  0.45594000000E+02  0.51100000000E-03 0. -1.
    9900012    2    1    2    0    0  0.11109116402E+02  0.23505429576E+02 -0.34752059077E+02  0.47787270779E+02  0.19999998789E+02 0.  0.
        -12    1    1    2    0    0 -0.11109116402E+02 -0.23505429576E+02  0.34752059077E+02  0.43400729221E+02  0.00000000000E+00 0.  1.
         11    1    3    3    0    0  0.39833171776E+01  0.72992803770E+01 -0.54624816788E+01  0.99491213739E+01  0.51100000000E-03 0. -1.
        -11    1    3    3    0    0  0.10480583612E+02  0.38783165439E+01 -0.13330566264E+02  0.17395055885E+02  0.51100000000E-03 0.  1.
        -12    1    3    3    0    0 -0.33547843879E+01  0.12327832656E+02 -0.15959011135E+02  0.20443093520E+02  0.00000000000E+00 0.  1.
</event>
<event>
 7    1  0.2714068E-010  0.4778727E+02  0.7816164E-02  0.1312668E+00
        -11   -1    0    0    0    0  0.00000000000E+00  0.00000000000E+00  0.45593999997E+02  0.45594000000E+02  0.51100000000E-03 0. -1.
         11   -1    0    0    0    0 -0.00000000000E+00 -0.00000000000E+00 -0.45593999997E+02  0.45594000000E+02  0.51100000000E-03 0.  1.
    9900012    2    1    2    0    0 -0.25993124759E+02 -0.30140715385E+02 -0.17306592446E+02  0.47787269583E+02  0.19999993337E+02 0.  0.
        -12    1    1    2    0    0  0.25993124759E+02  0.30140715385E+02  0.17306592446E+02  0.43400730417E+02  0.00000000000E+00 0.  1.
         11    1    3    3    0    0 -0.20733268370E+02 -0.13739316166E+02 -0.42481723891E+01  0.25232601826E+02  0.51100000000E-03 0. -1.
        -11    1    3    3    0    0  0.36594047439E+00  0.20671145957E+00  0.29540271694E+00  0.51371693043E+00  0.51100000000E-03 0.  1.
         12    1    3    3    0    0 -0.56257968628E+01 -0.16608110679E+02 -0.13353822774E+02  0.22040950826E+02  0.00000000000E+00 0. -1.
</event>
<event>
 7    1  0.2714068E-010  0.4778727E+02  0.7816164E-02  0.1312668E+00
        -11   -1    0    0    0    0  0.00000000000E+00  0.00000000000E+00  0.45593999997E+02  0.45594000000E+02  0.51100000000E-03 0.  1.
         11   -1    0    0    0    0 -0.00000000000E+00 -0.00000000000E+00 -0.45593999997E+02  0.45594000000E+02  0.51100000000E-03 0. -1.
    9900012    2    1    2    0    0 -0.17068068568E+02 -0.33224654151E+01 -0.39765132485E+02  0.47787268409E+02  0.19999987985E+02 0.  0.
        -12    1    1    2    0    0  0.17068068568E+02  0.33224654151E+01  0.39765132485E+02  0.43400731591E+02  0.00000000000E+00 0.  1.
         11    1    3    3    0    0 -0.53863882231E+01 -0.87597175706E+01 -0.16513297005E+02  0.19453400943E+02  0.51100000000E-03 0. -1.
        -11    1    3    3    0    0 -0.84023723863E+00  0.17666782759E-02  0.94703648999E+00  0.12660490168E+01  0.51100000000E-03 0.  1.
         12    1    3    3    0    0 -0.10841443107E+02  0.54354854773E+01 -0.24198871970E+02  0.27067818450E+02  0.00000000000E+00 0. -1.
</event>
<event>
 7    1  0.2714068E-010  0.4778727E+02  0.7816164E-02  0.1312668E+00
        -11   -1    0    0    0    0  0.00000000000E+00  0.00000000000E+00  0.45593999997E+02  0.45594000000E+02  0.51100000000E-03 0.  1.
         11   -1    0    0    0    0 -0.00000000000E+00 -0.00000000000E+00 -0.45593999997E+02  0.45594000000E+02  0.51100000000E-03 0. -1.
    9900012    2    1    2    0    0 -0.31045654131E+02  0.12073459354E+02 -0.27821259376E+02  0.47787268042E+02  0.19999986311E+02 0.  0.
        -12    1    1    2    0    0  0.31045654131E+02 -0.12073459354E+02  0.27821259376E+02  0.43400731958E+02  0.00000000000E+00 0.  1.
         11    1    3    3    0    0 -0.87009664117E+01  0.81535519769E+00 -0.16614024945E+02  0.18772252016E+02  0.51100000000E-03 0. -1.
        -11    1    3    3    0    0 -0.80637747597E+01  0.12050222781E+01  0.19892272353E+00  0.81557410808E+01  0.51100000000E-03 0.  1.
         12    1    3    3    0    0 -0.14280912960E+02  0.10053081879E+02 -0.11406157154E+02  0.20859274945E+02  0.00000000000E+00 0. -1.
</event>
<event>
 7    1  0.2714068E-010  0.4778727E+02  0.7816164E-02  0.1312668E+00
        -11   -1    0    0    0    0  0.00000000000E+00  0.00000000000E+00  0.45593999997E+02  0.45594000000E+02  0.51100000000E-03 0.  1.
         11   -1    0    0    0    0 -0.00000000000E+00 -0.00000000000E+00 -0.45593999997E+02  0.45594000000E+02  0.51100000000E-03 0. -1.
    9900012    2    1    2    0    0  0.89054543766E+01  0.14579758677E+02 -0.39896698303E+02  0.47787274013E+02  0.20000013535E+02 0.  0.
        -12    1    1    2    0    0 -0.89054543766E+01 -0.14579758677E+02  0.39896698303E+02  0.43400725987E+02  0.00000000000E+00 0.  1.
         11    1    3    3    0    0  0.32499094949E+01 -0.42625205334E+00 -0.51626094388E+01  0.61152382633E+01  0.51100000000E-03 0. -1.
        -11    1    3    3    0    0 -0.19136329424E+01  0.22052411759E+01 -0.21705314529E+02  0.21900816395E+02  0.51100000000E-03 0.  1.
        -12    1    3    3    0    0  0.75691778241E+01  0.12800769554E+02 -0.13028774335E+02  0.19771219355E+02  0.00000000000E+00 0.  1.
</event>
<event>
 7    1  0.2714068E-010  0.4778727E+02  0.7816164E-02  0.1312668E+00
        -11   -1    0    0    0    0  0.00000000000E+00  0.00000000000E+00  0.45593999997E+02  0.45594000000E+02  0.51100000000E-03 0.  1.
         11   -1    0    0    0    0 -0.00000000000E+00 -0.00000000000E+00 -0.45593999997E+02  0.45594000000E+02  0.51100000000E-03 0. -1.
    9900012    2    1    2    0    0 -0.29704249006E+02  0.26930725427E+02 -0.16613762204E+02  0.47787268720E+02  0.19999989404E+02 0.  0.
        -12    1    1    2    0    0  0.29704249006E+02 -0.26930725427E+02  0.16613762204E+02  0.43400731280E+02  0.00000000000E+00 0.  1.
         11    1    3    3    0    0 -0.13723804664E+02  0.31278323874E+01 -0.29007057329E+01  0.14371508060E+02  0.51100000000E-03 0.  1.
        -11    1    3    3    0    0 -0.39225716798E+01  0.12561376694E+02 -0.22843965433E+01  0.13356392509E+02  0.51100000000E-03 0. -1.
         12    1    3    3    0    0 -0.12057872662E+02  0.11241516345E+02 -0.11428659928E+02  0.20059368151E+02  0.00000000000E+00 0. -1.
</event>
<event>
 7    1  0.2714068E-010  0.4778727E+02  0.7816164E-02  0.1312668E+00
        -11   -1    0    0    0    0  0.00000000000E+00  0.00000000000E+00  0.45593999997E+02  0.45594000000E+02  0.51100000000E-03 0.  1.
         11   -1    0    0    0    0 -0.00000000000E+00 -0.00000000000E+00 -0.45593999997E+02  0.45594000000E+02  0.51100000000E-03 0. -1.
    9900012    2    1    2    0    0 -0.25592824103E+02  0.33483501226E+02 -0.10367536639E+02  0.47787270560E+02  0.19999997793E+02 0.  0.
        -12    1    1    2    0    0  0.25592824103E+02 -0.33483501226E+02  0.10367536639E+02  0.43400729440E+02  0.00000000000E+00 0.  1.
         11    1    3    3    0    0 -0.50575601947E+01  0.60172630331E+00 -0.71261281371E+01  0.87591490542E+01  0.51100000000E-03 0. -1.
        -11    1    3    3    0    0 -0.14590222635E+02  0.25867077664E+02 -0.24482399482E+01  0.29798895659E+02  0.51100000000E-03 0.  1.
         12    1    3    3    0    0 -0.59450412736E+01  0.70146972593E+01 -0.79316855323E+00  0.92292258472E+01  0.00000000000E+00 0. -1.
</event>
<event>
 7    1  0.2714068E-010  0.4778727E+02  0.7816164E-02  0.1312668E+00
        -11   -1    0    0    0    0  0.00000000000E+00  0.00000000000E+00  0.45593999997E+02  0.45594000000E+02  0.51100000000E-03 0.  1.
         11   -1    0    0    0    0 -0.00000000000E+00 -0.00000000000E+00 -0.45593999997E+02  0.45594000000E+02  0.51100000000E-03 0. -1.
    9900012    2    1    2    0    0  0.28571005188E+02 -0.28109504080E+02 -0.16648623741E+02  0.47787271555E+02  0.20000002328E+02 0.  0.
        -12    1    1    2    0    0 -0.28571005188E+02  0.28109504080E+02  0.16648623741E+02  0.43400728445E+02  0.00000000000E+00 0.  1.
         11    1    3    3    0    0  0.16625417302E+02 -0.17257057295E+02 -0.26412767620E+01  0.24107817615E+02  0.51100000000E-03 0. -1.
        -11    1    3    3    0    0  0.76618439120E+01 -0.11912749512E+02 -0.12832874496E+02  0.19112826090E+02  0.51100000000E-03 0.  1.
         12    1    3    3    0    0  0.42837439738E+01  0.10603027268E+01 -0.11744724828E+01  0.45666278498E+01  0.00000000000E+00 0. -1.
</event>
<event>
 7    1  0.2714068E-010  0.4778728E+02  0.7816164E-02  0.1312668E+00
        -11   -1    0    0    0    0  0.00000000000E+00  0.00000000000E+00  0.45593999997E+02  0.45594000000E+02  0.51100000000E-03 0. -1.
         11   -1    0    0    0    0 -0.00000000000E+00 -0.00000000000E+00 -0.45593999997E+02  0.45594000000E+02  0.51100000000E-03 0.  1.
    9900012    2    1    2    0    0  0.21663282533E+02  0.24694387032E+02  0.28363925362E+02  0.47787276239E+02  0.20000023685E+02 0.  0.
        -12    1    1    2    0    0 -0.21663282533E+02 -0.24694387032E+02 -0.28363925362E+02  0.43400723761E+02  0.00000000000E+00 0.  1.
         11    1    3    3    0    0  0.15347623188E+02  0.98749789012E+01  0.17149345265E+02  0.25043258357E+02  0.51100000000E-03 0. -1.
        -11    1    3    3    0    0  0.35595557039E+01  0.16176065320E+02  0.83720676609E+01  0.18558745734E+02  0.51100000000E-03 0.  1.
        -12    1    3    3    0    0  0.27561036405E+01 -0.13566571887E+01  0.28425124366E+01  0.41852721485E+01  0.00000000000E+00 0.  1.
</event>
<event>
 7    1  0.2714068E-010  0.4778727E+02  0.7816164E-02  0.1312668E+00
        -11   -1    0    0    0    0  0.00000000000E+00  0.00000000000E+00  0.45593999997E+02  0.45594000000E+02  0.51100000000E-03 0.  1.
         11   -1    0    0    0    0 -0.00000000000E+00 -0.00000000000E+00 -0.45593999997E+02  0.45594000000E+02  0.51100000000E-03 0. -1.
    9900012    2    1    2    0    0 -0.31164150914E+02  0.43127465136E+01 -0.29896809478E+02  0.47787270725E+02  0.19999998541E+02 0.  0.
        -12    1    1    2    0    0  0.31164150914E+02 -0.43127465136E+01  0.29896809478E+02  0.43400729275E+02  0.00000000000E+00 0.  1.
         11    1    3    3    0    0 -0.10262755386E+02  0.36942190659E+01 -0.14966458170E+02  0.18519348613E+02  0.51100000000E-03 0. -1.
        -11    1    3    3    0    0 -0.33254590506E+01  0.20356401049E+01  0.23719530283E+01  0.45638437707E+01  0.51100000000E-03 0.  1.
        -12    1    3    3    0    0 -0.17575936477E+02 -0.14171126572E+01 -0.17302304336E+02  0.24704078341E+02  0.00000000000E+00 0.  1.
</event>
<event>
 7    1  0.2714068E-010  0.4778727E+02  0.7816164E-02  0.1312668E+00
        -11   -1    0    0    0    0  0.00000000000E+00  0.00000000000E+00  0.45593999997E+02  0.45594000000E+02  0.51100000000E-03 0.  1.
         11   -1    0    0    0    0 -0.00000000000E+00 -0.00000000000E+00 -0.45593999997E+02  0.45594000000E+02  0.51100000000E-03 0. -1.
    9900012    2    1    2    0    0 -0.22780995859E+02 -0.33573292945E+02 -0.15410499971E+02  0.47787270963E+02  0.19999999631E+02 0.  0.
        -12    1    1    2    0    0  0.22780995859E+02  0.33573292945E+02  0.15410499971E+02  0.43400729037E+02  0.00000000000E+00 0.  1.
         11    1    3    3    0    0 -0.18737891941E+02 -0.16989630178E+02 -0.11689117671E+02  0.27863804481E+02  0.51100000000E-03 0. -1.
        -11    1    3    3    0    0 -0.33149770726E+01 -0.64238910849E+01  0.28845460300E+01  0.77830621046E+01  0.51100000000E-03 0.  1.
         12    1    3    3    0    0 -0.72812684522E+00 -0.10159771683E+02 -0.66059283303E+01  0.12140404378E+02  0.00000000000E+00 0. -1.
</event>
<event>
 7    1  0.2714068E-010  0.4778727E+02  0.7816164E-02  0.1312668E+00
        -11   -1    0    0    0    0  0.00000000000E+00  0.00000000000E+00  0.45593999997E+02  0.45594000000E+02  0.51100000000E-03 0. -1.
         11   -1    0    0    0    0 -0.00000000000E+00 -0.00000000000E+00 -0.45593999997E+02  0.45594000000E+02  0.51100000000E-03 0.  1.
    9900012    2    1    2    0    0 -0.25122760224E+02  0.10299609128E+02  0.33858354821E+02  0.47787271658E+02  0.20000002796E+02 0.  0.
        -12    1    1    2    0    0  0.25122760224E+02 -0.10299609128E+02 -0.33858354821E+02  0.43400728342E+02  0.00000000000E+00 0.  1.
         11    1    3    3    0    0 -0.39548083157E+00 -0.45031522355E+01  0.72512438351E+01  0.85449003833E+01  0.51100000000E-03 0. -1.
        -11    1    3    3    0    0 -0.10097113344E+02  0.55425897414E+01  0.10077070994E+02  0.15304226835E+02  0.51100000000E-03 0.  1.
         12    1    3    3    0    0 -0.14630166048E+02  0.92601716226E+01  0.16530039992E+02  0.23938144440E+02  0.00000000000E+00 0. -1.
</event>
<event>
 7    1  0.2714068E-010  0.4778727E+02  0.7816164E-02  0.1312668E+00
        -11   -1    0    0    0    0  0.00000000000E+00  0.00000000000E+00  0.45593999997E+02  0.45594000000E+02  0.51100000000E-03 0. -1.
         11   -1    0    0    0    0 -0.00000000000E+00 -0.00000000000E+00 -0.45593999997E+02  0.45594000000E+02  0.51100000000E-03 0.  1.
    9900012    2    1    2    0    0  0.31392071620E+02  0.82788184948E+01  0.28803165519E+02  0.47787270281E+02  0.19999996517E+02 0.  0.
        -12    1    1    2    0    0 -0.31392071620E+02 -0.82788184948E+01 -0.28803165519E+02  0.43400729719E+02  0.00000000000E+00 0.  1.
         11    1    3    3    0    0  0.22460209320E+02 -0.13378075492E+01  0.19041524975E+02  0.29475929254E+02  0.51100000000E-03 0. -1.
        -11    1    3    3    0    0  0.29551729046E+01  0.12434475731E+01 -0.10632718045E+01  0.33778330265E+01  0.51100000000E-03 0.  1.
         12    1    3    3    0    0  0.59766893946E+01  0.83731784708E+01  0.10824912349E+02  0.14933508000E+02  0.00000000000E+00 0. -1.
</event>
<event>
 7    1  0.2714068E-010  0.4778727E+02  0.7816164E-02  0.1312668E+00
        -11   -1    0    0    0    0  0.00000000000E+00  0.00000000000E+00  0.45593999997E+02  0.45594000000E+02  0.51100000000E-03 0. -1.
         11   -1    0    0    0    0 -0.00000000000E+00 -0.00000000000E+00 -0.45593999997E+02  0.45594000000E+02  0.51100000000E-03 0.  1.
    9900012    2    1    2    0    0  0.30846764036E+02  0.22537816499E+02  0.20594831711E+02  0.47787272849E+02  0.20000008226E+02 0.  0.
        -12    1    1    2    0    0 -0.30846764036E+02 -0.22537816499E+02 -0.20594831711E+02  0.43400727151E+02  0.00000000000E+00 0.  1.
         11    1    3    3    0    0  0.10613371125E+02  0.42659595867E+01  0.30962090820E+01  0.11850256064E+02  0.51100000000E-03 0. -1.
        -11    1    3    3    0    0  0.11858873159E+02  0.16071226413E+02  0.18495074084E+02  0.27221038861E+02  0.51100000000E-03 0.  1.
        -12    1    3    3    0    0  0.83745197521E+01  0.22006304999E+01 -0.99645145520E+00  0.87159779243E+01  0.00000000000E+00 0.  1.
</event>
<event>
 7    1  0.2714068E-010  0.4778727E+02  0.7816164E-02  0.1312668E+00
        -11   -1    0    0    0    0  0.00000000000E+00  0.00000000000E+00  0.45593999997E+02  0.45594000000E+02  0.51100000000E-03 0.  1.
         11   -1    0    0    0    0 -0.00000000000E+00 -0.00000000000E+00 -0.45593999997E+02  0.45594000000E+02  0.51100000000E-03 0. -1.
    9900012    2    1    2    0    0 -0.25900773301E+02 -0.31346079702E+02 -0.15172230818E+02  0.47787270072E+02  0.19999995568E+02 0.  0.
        -12    1    1    2    0    0  0.25900773301E+02  0.31346079702E+02  0.15172230818E+02  0.43400729928E+02  0.00000000000E+00 0.  1.
         11    1    3    3    0    0 -0.18276226788E+02 -0.30338803414E+02 -0.17320283107E+02  0.39426585769E+02  0.51100000000E-03 0. -1.
        -11    1    3    3    0    0 -0.26172080681E+01  0.74331374259E+00  0.11933817499E+01  0.29709348114E+01  0.51100000000E-03 0.  1.
         12    1    3    3    0    0 -0.50073384443E+01 -0.17505900304E+01  0.95467053879E+00  0.53897494921E+01  0.00000000000E+00 0. -1.
</event>
<event>
 7    1  0.2714068E-010  0.4778727E+02  0.7816164E-02  0.1312668E+00
        -11   -1    0    0    0    0  0.00000000000E+00  0.00000000000E+00  0.45593999997E+02  0.45594000000E+02  0.51100000000E-03 0.  1.
         11   -1    0    0    0    0 -0.00000000000E+00 -0.00000000000E+00 -0.45593999997E+02  0.45594000000E+02  0.51100000000E-03 0. -1.
    9900012    2    1    2    0    0 -0.37041854490E+02 -0.22611509824E+02 -0.49376016704E+00  0.47787272360E+02  0.20000005996E+02 0.  0.
        -12    1    1    2    0    0  0.37041854490E+02  0.22611509824E+02  0.49376016704E+00  0.43400727640E+02  0.00000000000E+00 0.  1.
         11    1    3    3    0    0 -0.52688795343E+01 -0.13213232710E+02  0.19803714042E+01  0.14362189295E+02  0.51100000000E-03 0. -1.
        -11    1    3    3    0    0 -0.10262171276E+02 -0.17960400546E+01 -0.19826418383E+01  0.10605130272E+02  0.51100000000E-03 0.  1.
         12    1    3    3    0    0 -0.21510803680E+02 -0.76022370599E+01 -0.49148973292E+00  0.22819952792E+02  0.00000000000E+00 0. -1.
</event>
<event>
 7    1  0.2714068E-010  0.4778727E+02  0.7816164E-02  0.1312668E+00
        -11   -1    0    0    0    0  0.00000000000E+00  0.00000000000E+00  0.45593999997E+02  0.45594000000E+02  0.51100000000E-03 0. -1.
         11   -1    0    0    0    0 -0.00000000000E+00 -0.00000000000E+00 -0.45593999997E+02  0.45594000000E+02  0.51100000000E-03 0.  1.
    9900012    2    1    2    0    0  0.43310094263E+01 -0.36161007446E+02  0.23606082470E+02  0.47787271530E+02  0.20000002212E+02 0.  0.
        -12    1    1    2    0    0 -0.43310094263E+01  0.36161007446E+02 -0.23606082470E+02  0.43400728470E+02  0.00000000000E+00 0.  1.
         11    1    3    3    0    0  0.23125993897E+01 -0.20158392210E+02  0.78677272157E+01  0.21762583124E+02  0.51100000000E-03 0. -1.
        -11    1    3    3    0    0 -0.18692268981E+01 -0.85963321400E+01  0.15299723283E+02  0.17648582613E+02  0.51100000000E-03 0.  1.
        -12    1    3    3    0    0  0.38876369346E+01 -0.74062830963E+01  0.43863197135E+00  0.83761057923E+01  0.00000000000E+00 0.  1.
</event>
<event>
 7    1  0.2714068E-010  0.4778727E+02  0.7816164E-02  0.1312668E+00
        -11   -1    0    0    0    0  0.00000000000E+00  0.00000000000E+00  0.45593999997E+02  0.45594000000E+02  0.51100000000E-03 0. -1.
         11   -1    0    0    0    0 -0.00000000000E+00 -0.00000000000E+00 -0.45593999997E+02  0.45594000000E+02  0.51100000000E-03 0.  1.
    9900012    2    1    2    0    0  0.33635132331E+02 -0.27335974890E+02  0.22462272604E+01  0.47787272045E+02  0.20000004561E+02 0.  0.
        -12    1    1    2    0    0 -0.33635132331E+02  0.27335974890E+02 -0.22462272604E+01  0.43400727955E+02  0.00000000000E+00 0.  1.
         11    1    3    3    0    0  0.21368560933E+02 -0.11908500473E+02  0.76925810727E+01  0.25643782554E+02  0.51100000000E-03 0. -1.
        -11    1    3    3    0    0  0.86991695138E+01 -0.88026250596E+01 -0.73343929717E+01  0.14385933362E+02  0.51100000000E-03 0.  1.
         12    1    3    3    0    0  0.35674018841E+01 -0.66248493582E+01  0.18880391594E+01  0.77575561286E+01  0.00000000000E+00 0. -1.
</event>
<event>
 7    1  0.2714068E-010  0.4778727E+02  0.7816164E-02  0.1312668E+00
        -11   -1    0    0    0    0  0.00000000000E+00  0.00000000000E+00  0.45593999997E+02  0.45594000000E+02  0.51100000000E-03 0. -1.
         11   -1    0    0    0    0 -0.00000000000E+00 -0.00000000000E+00 -0.45593999997E+02  0.45594000000E+02  0.51100000000E-03 0.  1.
    9900012    2    1    2    0    0 -0.35665278980E+02 -0.95994302515E+01  0.22791705417E+02  0.47787273949E+02  0.20000013245E+02 0.  0.
        -12    1    1    2    0    0  0.35665278980E+02  0.95994302515E+01 -0.22791705417E+02  0.43400726051E+02  0.00000000000E+00 0.  1.
         11    1    3    3    0    0 -0.31975139432E+02 -0.11150222950E+02  0.20120777368E+02  0.39390134497E+02  0.51100000000E-03 0. -1.
        -11    1    3    3    0    0 -0.68580196629E+00  0.16549970671E+01  0.45239657205E+01  0.48657584948E+01  0.51100000000E-03 0.  1.
         12    1    3    3    0    0 -0.30043375818E+01 -0.10420436889E+00 -0.18530376715E+01  0.35313809577E+01  0.00000000000E+00 0. -1.
</event>
<event>
 7    1  0.2714068E-010  0.4778726E+02  0.7816164E-02  0.1312668E+00
        -11   -1    0    0    0    0  0.00000000000E+00  0.00000000000E+00  0.45593999997E+02  0.45594000000E+02  0.51100000000E-03 0.  1.
         11   -1    0    0    0    0 -0.00000000000E+00 -0.00000000000E+00 -0.45593999997E+02  0.45594000000E+02  0.51100000000E-03 0. -1.
    9900012    2    1    2    0    0 -0.69537507998E+01  0.17338748836E+02 -0.39174446925E+02  0.47787260913E+02  0.19999953808E+02 0.  0.
        -12    1    1    2    0    0  0.69537507998E+01 -0.17338748836E+02  0.39174446925E+02  0.43400739087E+02  0.00000000000E+00 0.  1.
         11    1    3    3    0    0 -0.47400121549E+01  0.15150775646E+02 -0.18613684302E+02  0.24463911410E+02  0.51100000000E-03 0. -1.
        -11    1    3    3    0    0  0.30032978964E+01  0.24762634799E+01 -0.27603287394E+01  0.47719067559E+01  0.51100000000E-03 0.  1.
         12    1    3    3    0    0 -0.52170365413E+01 -0.28829029071E+00 -0.17800433883E+02  0.18551442747E+02  0.00000000000E+00 0. -1.
</event>
<event>
 7    1  0.2714068E-010  0.4778728E+02  0.7816164E-02  0.1312668E+00
        -11   -1    0    0    0    0  0.00000000000E+00  0.00000000000E+00  0.45593999997E+02  0.45594000000E+02  0.51100000000E-03 0.  1.
         11   -1    0    0    0    0 -0.00000000000E+00 -0.00000000000E+00 -0.45593999997E+02  0.45594000000E+02  0.51100000000E-03 0. -1.
    9900012    2    1    2    0    0 -0.29876733245E+02 -0.28934124034E+02  0.12402393366E+02  0.47787284750E+02  0.20000062488E+02 0.  0.
        -12    1    1    2    0    0  0.29876733245E+02  0.28934124034E+02 -0.12402393366E+02  0.43400715250E+02  0.00000000000E+00 0.  1.
         11    1    3    3    0    0 -0.89157187878E+01 -0.68930046089E+01  0.28450106273E+01  0.11623151026E+02  0.51100000000E-03 0. -1.
        -11    1    3    3    0    0 -0.19261842827E+02 -0.22782269643E+02  0.12772520992E+02  0.32452853371E+02  0.51100000000E-03 0.  1.
        -12    1    3    3    0    0 -0.16991716303E+01  0.74115021734E+00 -0.32151382528E+01  0.37112803530E+01  0.00000000000E+00 0.  1.
</event>
<event>
 7    1  0.2714068E-010  0.4778727E+02  0.7816164E-02  0.1312668E+00
        -11   -1    0    0    0    0  0.00000000000E+00  0.00000000000E+00  0.45593999997E+02  0.45594000000E+02  0.51100000000E-03 0.  1.
         11   -1    0    0    0    0 -0.00000000000E+00 -0.00000000000E+00 -0.45593999997E+02  0.45594000000E+02  0.51100000000E-03 0. -1.
    9900012    2    1    2    0    0  0.31738444280E+02 -0.21160822441E+02 -0.20700580496E+02  0.47787270922E+02  0.19999999441E+02 0.  0.
        -12    1    1    2    0    0 -0.31738444280E+02  0.21160822441E+02  0.20700580496E+02  0.43400729078E+02  0.00000000000E+00 0.  1.
         11    1    3    3    0    0  0.15855157842E+02 -0.99458758332E+01 -0.12495415727E+01  0.18758140385E+02  0.51100000000E-03 0. -1.
        -11    1    3    3    0    0  0.94001152584E+01 -0.88104243744E+01 -0.66944461274E+01  0.14518999750E+02  0.51100000000E-03 0.  1.
         12    1    3    3    0    0  0.64831711794E+01 -0.24045222329E+01 -0.12756592795E+02  0.14510130787E+02  0.00000000000E+00 0. -1.
</event>
<event>
 7    1  0.2714068E-010  0.4778728E+02  0.7816164E-02  0.1312668E+00
        -11   -1    0    0    0    0  0.00000000000E+00  0.00000000000E+00  0.45593999997E+02  0.45594000000E+02  0.51100000000E-03 0.  1.
         11   -1    0    0    0    0 -0.00000000000E+00 -0.00000000000E+00 -0.45593999997E+02  0.45594000000E+02  0.51100000000E-03 0. -1.
    9900012    2    1    2    0    0  0.15604917977E+02  0.38185529865E+02 -0.13489780653E+02  0.47787281824E+02  0.20000049149E+02 0.  0.
        -12    1    1    2    0    0 -0.15604917977E+02 -0.38185529865E+02  0.13489780653E+02  0.43400718176E+02  0.00000000000E+00 0.  1.
         11    1    3    3    0    0  0.72077485756E+00  0.18075018010E+02 -0.45024236832E+01  0.18641287824E+02  0.51100000000E-03 0. -1.
        -11    1    3    3    0    0  0.15645468823E+02  0.21212591722E+02 -0.82620295933E+01  0.27622741998E+02  0.51100000000E-03 0.  1.
        -12    1    3    3    0    0 -0.76132570355E+00 -0.11020798665E+01 -0.72532737627E+00  0.15232520021E+01  0.00000000000E+00 0.  1.
</event>
<event>
 7    1  0.2714068E-010  0.4778727E+02  0.7816164E-02  0.1312668E+00
        -11   -1    0    0    0    0  0.00000000000E+00  0.00000000000E+00  0.45593999997E+02  0.45594000000E+02  0.51100000000E-03 0.  1.
         11   -1    0    0    0    0 -0.00000000000E+00 -0.00000000000E+00 -0.45593999997E+02  0.45594000000E+02  0.51100000000E-03 0. -1.
    9900012    2    1    2    0    0 -0.28233661978E+02 -0.19857650742E+02 -0.26308885039E+02  0.47787269664E+02  0.19999993708E+02 0.  0.
        -12    1    1    2    0    0  0.28233661978E+02  0.19857650742E+02  0.26308885039E+02  0.43400730336E+02  0.00000000000E+00 0.  1.
         11    1    3    3    0    0 -0.48160337421E+01 -0.51418499868E+01 -0.80114921420E+01  0.10668496093E+02  0.51100000000E-03 0. -1.
        -11    1    3    3    0    0 -0.25921215964E+02 -0.14042957757E+02 -0.17917760574E+02  0.34498699162E+02  0.51100000000E-03 0.  1.
        -12    1    3    3    0    0  0.25035877277E+01 -0.67284299778E+00 -0.37963232267E+00  0.26200744093E+01  0.00000000000E+00 0.  1.
</event>
<event>
 7    1  0.2714068E-010  0.4778727E+02  0.7816164E-02  0.1312668E+00
        -11   -1    0    0    0    0  0.00000000000E+00  0.00000000000E+00  0.45593999997E+02  0.45594000000E+02  0.51100000000E-03 0.  1.
         11   -1    0    0    0    0 -0.00000000000E+00 -0.00000000000E+00 -0.45593999997E+02  0.45594000000E+02  0.51100000000E-03 0. -1.
    9900012    2    1    2    0    0 -0.37096047594E+02  0.14653096330E+02 -0.17111207456E+02  0.47787269594E+02  0.19999993388E+02 0.  0.
        -12    1    1    2    0    0  0.37096047594E+02 -0.14653096330E+02  0.17111207456E+02  0.43400730406E+02  0.00000000000E+00 0.  1.
         11    1    3    3    0    0 -0.78321249827E+01  0.66136046977E+00 -0.26099723078E+01  0.82820006716E+01  0.51100000000E-03 0. -1.
        -11    1    3    3    0    0 -0.18968942873E+02  0.15597312565E+01 -0.20966746014E+01  0.19148096510E+02  0.51100000000E-03 0.  1.
        -12    1    3    3    0    0 -0.10294979739E+02  0.12432004604E+02 -0.12404560547E+02  0.20357172413E+02  0.00000000000E+00 0.  1.
</event>
<event>
 7    1  0.2714068E-010  0.4778727E+02  0.7816164E-02  0.1312668E+00
        -11   -1    0    0    0    0  0.00000000000E+00  0.00000000000E+00  0.45593999997E+02  0.45594000000E+02  0.51100000000E-03 0. -1.
         11   -1    0    0    0    0 -0.00000000000E+00 -0.00000000000E+00 -0.45593999997E+02  0.45594000000E+02  0.51100000000E-03 0.  1.
    9900012    2    1    2    0    0 -0.92116046063E+01 -0.29183054251E+02  0.30775295500E+02  0.47787272726E+02  0.20000007667E+02 0.  0.
        -12    1    1    2    0    0  0.92116046063E+01  0.29183054251E+02 -0.30775295500E+02  0.43400727274E+02  0.00000000000E+00 0.  1.
         11    1    3    3    0    0  0.46960993723E+01 -0.11360217784E+02  0.16993365489E+02  0.20973372840E+02  0.51100000000E-03 0. -1.
        -11    1    3    3    0    0 -0.51113745416E+01 -0.50366854797E+01  0.23955691982E+01  0.75652562661E+01  0.51100000000E-03 0.  1.
         12    1    3    3    0    0 -0.87963294369E+01 -0.12786150987E+02  0.11386360813E+02  0.19248643619E+02  0.00000000000E+00 0. -1.
</event>
<event>
 7    1  0.2714068E-010  0.4778726E+02  0.7816164E-02  0.1312668E+00
        -11   -1    0    0    0    0  0.00000000000E+00  0.00000000000E+00  0.45593999997E+02  0.45594000000E+02  0.51100000000E-03 0.  1.
         11   -1    0    0    0    0 -0.00000000000E+00 -0.00000000000E+00 -0.45593999997E+02  0.45594000000E+02  0.51100000000E-03 0. -1.
    9900012    2    1    2    0    0  0.20162798896E+02  0.18694327199E+02 -0.33579870163E+02  0.47787262576E+02  0.19999961390E+02 0.  0.
        -12    1    1    2    0    0 -0.20162798896E+02 -0.18694327199E+02  0.33579870163E+02  0.43400737424E+02  0.00000000000E+00 0.  1.
         11    1    3    3    0    0  0.15334444534E+02  0.11200439315E+02 -0.91927761673E+01  0.21097444489E+02  0.51100000000E-03 0. -1.
        -11    1    3    3    0    0  0.58399225277E+01  0.70211990564E+01 -0.23649722984E+02  0.25351751987E+02  0.51100000000E-03 0.  1.
        -12    1    3    3    0    0 -0.10115681656E+01  0.47268882771E+00 -0.73737101138E+00  0.13380661007E+01  0.00000000000E+00 0.  1.
</event>
<event>
 7    1  0.2714068E-010  0.4778727E+02  0.7816164E-02  0.1312668E+00
        -11   -1    0    0    0    0  0.00000000000E+00  0.00000000000E+00  0.45593999997E+02  0.45594000000E+02  0.51100000000E-03 0. -1.
         11   -1    0    0    0    0 -0.00000000000E+00 -0.00000000000E+00 -0.45593999997E+02  0.45594000000E+02  0.51100000000E-03 0.  1.
    9900012    2    1    2    0    0  0.15469705211E+02 -0.39376290238E+02  0.96860288506E+01  0.47787272274E+02  0.20000005606E+02 0.  0.
        -12    1    1    2    0    0 -0.15469705211E+02  0.39376290238E+02 -0.96860288506E+01  0.43400727726E+02  0.00000000000E+00 0.  1.
         11    1    3    3    0    0  0.14591009613E+02 -0.13716307953E+02  0.42101228338E+01  0.20463621379E+02  0.51100000000E-03 0. -1.
        -11    1    3    3    0    0 -0.32391081422E+01 -0.79283211313E+01  0.16250329893E+01  0.87172719354E+01  0.51100000000E-03 0.  1.
        -12    1    3    3    0    0  0.41178037402E+01 -0.17731661154E+02  0.38508730276E+01  0.18606378960E+02  0.00000000000E+00 0.  1.
</event>
<event>
 7    1  0.2714068E-010  0.4778727E+02  0.7816164E-02  0.1312668E+00
        -11   -1    0    0    0    0  0.00000000000E+00  0.00000000000E+00  0.45593999997E+02  0.45594000000E+02  0.51100000000E-03 0.  1.
         11   -1    0    0    0    0 -0.00000000000E+00 -0.00000000000E+00 -0.45593999997E+02  0.45594000000E+02  0.51100000000E-03 0. -1.
    9900012    2    1    2    0    0  0.22522794171E+02 -0.34884906223E+02 -0.12624999269E+02  0.47787267910E+02  0.19999985709E+02 0.  0.
        -12    1    1    2    0    0 -0.22522794171E+02  0.34884906223E+02  0.12624999269E+02  0.43400732090E+02  0.00000000000E+00 0.  1.
         11    1    3    3    0    0  0.63609288747E+01 -0.10292424487E+02 -0.58006902116E+01  0.13418026128E+02  0.51100000000E-03 0. -1.
        -11    1    3    3    0    0  0.11519458738E+02 -0.26119276100E+02 -0.72819192172E+01  0.29460836060E+02  0.51100000000E-03 0.  1.
        -12    1    3    3    0    0  0.46424065577E+01  0.15267943642E+01  0.45761015994E+00  0.49084057224E+01  0.00000000000E+00 0.  1.
</event>
<event>
 7    1  0.2714068E-010  0.4778727E+02  0.7816164E-02  0.1312668E+00
        -11   -1    0    0    0    0  0.00000000000E+00  0.00000000000E+00  0.45593999997E+02  0.45594000000E+02  0.51100000000E-03 0.  1.
         11   -1    0    0    0    0 -0.00000000000E+00 -0.00000000000E+00 -0.45593999997E+02  0.45594000000E+02  0.51100000000E-03 0. -1.
    9900012    2    1    2    0    0  0.33972802557E+02 -0.27003507248E+02 -0.53164376421E+00  0.47787270025E+02  0.19999995350E+02 0.  0.
        -12    1    1    2    0    0 -0.33972802557E+02  0.27003507248E+02  0.53164376421E+00  0.43400729975E+02  0.00000000000E+00 0.  1.
         11    1    3    3    0    0  0.21459463678E+02 -0.13975555208E+02  0.89091169459E+01  0.27114518062E+02  0.51100000000E-03 0.  1.
        -11    1    3    3    0    0  0.10349551180E+02 -0.85756934569E+01 -0.69333975587E+01  0.15123747216E+02  0.51100000000E-03 0. -1.
        -12    1    3    3    0    0  0.21637876995E+01 -0.44522585837E+01 -0.25073631514E+01  0.55490047466E+01  0.00000000000E+00 0.  1.
</event>
<event>
 7    1  0.2714068E-010  0.4778727E+02  0.7816164E-02  0.1312668E+00
        -11   -1    0    0    0    0  0.00000000000E+00  0.00000000000E+00  0.45593999997E+02  0.45594000000E+02  0.51100000000E-03 0.  1.
         11   -1    0    0    0    0 -0.00000000000E+00 -0.00000000000E+00 -0.45593999997E+02  0.45594000000E+02  0.51100000000E-03 0. -1.
    9900012    2    1    2    0    0 -0.40257754558E+02 -0.79979193097E+01 -0.14105667784E+02  0.47787269833E+02  0.19999994479E+02 0.  0.
        -12    1    1    2    0    0  0.40257754558E+02  0.79979193097E+01  0.14105667784E+02  0.43400730167E+02  0.00000000000E+00 0.  1.
         11    1    3    3    0    0 -0.21244179454E+02 -0.30799594976E+01 -0.13759891987E+02  0.25497763411E+02  0.51100000000E-03 0. -1.
        -11    1    3    3    0    0 -0.15813913300E+02 -0.13457452413E+01  0.33673618726E+01  0.16224364714E+02  0.51100000000E-03 0.  1.
         12    1    3    3    0    0 -0.31996618039E+01 -0.35722145708E+01 -0.37131376694E+01  0.60651417091E+01  0.00000000000E+00 0. -1.
</event>
<event>
 7    1  0.2714068E-010  0.4778727E+02  0.7816164E-02  0.1312668E+00
        -11   -1    0    0    0    0  0.00000000000E+00  0.00000000000E+00  0.45593999997E+02  0.45594000000E+02  0.51100000000E-03 0.  1.
         11   -1    0    0    0    0 -0.00000000000E+00 -0.00000000000E+00 -0.45593999997E+02  0.45594000000E+02  0.51100000000E-03 0. -1.
    9900012    2    1    2    0    0 -0.34538120542E+02  0.38588523481E+01 -0.25997129819E+02  0.47787271079E+02  0.20000000156E+02 0.  0.
        -12    1    1    2    0    0  0.34538120542E+02 -0.38588523481E+01  0.25997129819E+02  0.43400728921E+02  0.00000000000E+00 0.  1.
         11    1    3    3    0    0 -0.18890892454E+02 -0.63933872563E+01 -0.17484234203E+02  0.26522436997E+02  0.51100000000E-03 0.  1.
        -11    1    3    3    0    0 -0.10656883849E+02  0.73027869358E+01 -0.29947492492E+01  0.13261538136E+02  0.51100000000E-03 0. -1.
        -12    1    3    3    0    0 -0.49903442398E+01  0.29494526686E+01 -0.55181463669E+01  0.80032959462E+01  0.00000000000E+00 0.  1.
</event>
<event>
 7    1  0.2714068E-010  0.4778728E+02  0.7816164E-02  0.1312668E+00
        -11   -1    0    0    0    0  0.00000000000E+00  0.00000000000E+00  0.45593999997E+02  0.45594000000E+02  0.51100000000E-03 0.  1.
         11   -1    0    0    0    0 -0.00000000000E+00 -0.00000000000E+00 -0.45593999997E+02  0.45594000000E+02  0.51100000000E-03 0. -1.
    9900012    2    1    2    0    0  0.33621113261E+00 -0.27181412913E+02 -0.33833128672E+02  0.47787276025E+02  0.20000022708E+02 0.  0.
        -12    1    1    2    0    0 -0.33621113261E+00  0.27181412913E+02  0.33833128672E+02  0.43400723975E+02  0.00000000000E+00 0.  1.
         11    1    3    3    0    0  0.21943926080E+01 -0.63090572000E+01 -0.66393652769E+01  0.94181066681E+01  0.51100000000E-03 0. -1.
        -11    1    3    3    0    0 -0.36858065048E+01 -0.14292872716E+02 -0.57102330672E+01  0.15826501257E+02  0.51100000000E-03 0.  1.
        -12    1    3    3    0    0  0.18276250294E+01 -0.65794829961E+01 -0.21483530328E+02  0.22542668100E+02  0.00000000000E+00 0.  1.
</event>
<event>
 7    1  0.2714068E-010  0.4778727E+02  0.7816164E-02  0.1312668E+00
        -11   -1    0    0    0    0  0.00000000000E+00  0.00000000000E+00  0.45593999997E+02  0.45594000000E+02  0.51100000000E-03 0.  1.
         11   -1    0    0    0    0 -0.00000000000E+00 -0.00000000000E+00 -0.45593999997E+02  0.45594000000E+02  0.51100000000E-03 0. -1.
    9900012    2    1    2    0    0  0.27956624105E+02 -0.28112625802E+02 -0.17655893244E+02  0.47787272736E+02  0.20000007711E+02 0.  0.
        -12    1    1    2    0    0 -0.27956624105E+02  0.28112625802E+02  0.17655893244E+02  0.43400727264E+02  0.00000000000E+00 0.  1.
         11    1    3    3    0    0  0.17124374607E+02 -0.11413195794E+02 -0.50050891364E+01  0.21179144493E+02  0.51100000000E-03 0. -1.
        -11    1    3    3    0    0 -0.19332707411E+01 -0.47169380893E+01 -0.15874627568E+00  0.51002197343E+01  0.51100000000E-03 0.  1.
        -12    1    3    3    0    0  0.12765520239E+02 -0.11982491918E+02 -0.12492057832E+02  0.21507908509E+02  0.00000000000E+00 0.  1.
</event>
<event>
 7    1  0.2714068E-010  0.4778727E+02  0.7816164E-02  0.1312668E+00
        -11   -1    0    0    0    0  0.00000000000E+00  0.00000000000E+00  0.45593999997E+02  0.45594000000E+02  0.51100000000E-03 0.  1.
         11   -1    0    0    0    0 -0.00000000000E+00 -0.00000000000E+00 -0.45593999997E+02  0.45594000000E+02  0.51100000000E-03 0. -1.
    9900012    2    1    2    0    0 -0.18186249416E+02 -0.30564184615E+02 -0.24873971842E+02  0.47787268161E+02  0.19999986851E+02 0.  0.
        -12    1    1    2    0    0  0.18186249416E+02  0.30564184615E+02  0.24873971842E+02  0.43400731839E+02  0.00000000000E+00 0.  1.
         11    1    3    3    0    0 -0.50616509609E+01  0.74219142735E+00 -0.48536128285E+00  0.51387483302E+01  0.51100000000E-03 0.  1.
        -11    1    3    3    0    0 -0.12415648610E+02 -0.20170376111E+02 -0.14742873844E+02  0.27898830303E+02  0.51100000000E-03 0. -1.
        -12    1    3    3    0    0 -0.70894984465E+00 -0.11135999932E+02 -0.96457367153E+01  0.14749689527E+02  0.00000000000E+00 0.  1.
</event>
<event>
 7    1  0.2714068E-010  0.4778727E+02  0.7816164E-02  0.1312668E+00
        -11   -1    0    0    0    0  0.00000000000E+00  0.00000000000E+00  0.45593999997E+02  0.45594000000E+02  0.51100000000E-03 0.  1.
         11   -1    0    0    0    0 -0.00000000000E+00 -0.00000000000E+00 -0.45593999997E+02  0.45594000000E+02  0.51100000000E-03 0. -1.
    9900012    2    1    2    0    0 -0.22346341789E+02  0.29493288725E+01 -0.37088624926E+02  0.47787266930E+02  0.19999981241E+02 0.  0.
        -12    1    1    2    0    0  0.22346341789E+02 -0.29493288725E+01  0.37088624926E+02  0.43400733070E+02  0.00000000000E+00 0.  1.
         11    1    3    3    0    0 -0.11341898593E+02 -0.57447052245E+01 -0.20473809958E+02  0.24100149300E+02  0.51100000000E-03 0. -1.
        -11    1    3    3    0    0 -0.43448806451E+01 -0.15279137908E+01 -0.35776550132E+01  0.58319914289E+01  0.51100000000E-03 0.  1.
         12    1    3    3    0    0 -0.66595625507E+01  0.10221947888E+02 -0.13037159955E+02  0.17855126201E+02  0.00000000000E+00 0. -1.
</event>
<event>
 7    1  0.2714068E-010  0.4778728E+02  0.7816164E-02  0.1312668E+00
        -11   -1    0    0    0    0  0.00000000000E+00  0.00000000000E+00  0.45593999997E+02  0.45594000000E+02  0.51100000000E-03 0. -1.
         11   -1    0    0    0    0 -0.00000000000E+00 -0.00000000000E+00 -0.45593999997E+02  0.45594000000E+02  0.51100000000E-03 0.  1.
    9900012    2    1    2    0    0 -0.37156986060E+02 -0.15015058559E+01 -0.22376906959E+02  0.47787284592E+02  0.20000061767E+02 0.  0.
        -12    1    1    2    0    0  0.37156986060E+02  0.15015058559E+01  0.22376906959E+02  0.43400715408E+02  0.00000000000E+00 0.  1.
         11    1    3    3    0    0 -0.25246296241E+02  0.66397607309E+00 -0.91850621415E+01  0.26873438651E+02  0.51100000000E-03 0. -1.
        -11    1    3    3    0    0 -0.22110841632E+01 -0.49401223527E+01 -0.77449377644E+01  0.94486910878E+01  0.51100000000E-03 0.  1.
        -12    1    3    3    0    0 -0.96996056556E+01  0.27746404237E+01 -0.54469070532E+01  0.11465154853E+02  0.00000000000E+00 0.  1.
</event>
<event>
 7    1  0.2714068E-010  0.4778727E+02  0.7816164E-02  0.1312668E+00
        -11   -1    0    0    0    0  0.00000000000E+00  0.00000000000E+00  0.45593999997E+02  0.45594000000E+02  0.51100000000E-03 0. -1.
         11   -1    0    0    0    0 -0.00000000000E+00 -0.00000000000E+00 -0.45593999997E+02  0.45594000000E+02  0.51100000000E-03 0.  1.
    9900012    2    1    2    0    0 -0.27835792450E+02 -0.22543322921E+02  0.24506943352E+02  0.47787273945E+02  0.20000013226E+02 0.  0.
        -12    1    1    2    0    0  0.27835792450E+02  0.22543322921E+02 -0.24506943352E+02  0.43400726055E+02  0.00000000000E+00 0.  1.
         11    1    3    3    0    0 -0.80021022264E+01  0.13177590026E+01  0.58369020884E+01  0.99919745337E+01  0.51100000000E-03 0.  1.
        -11    1    3    3    0    0 -0.26806047479E+01 -0.11263450863E+02  0.67721919382E+01  0.13413185716E+02  0.51100000000E-03 0. -1.
        -12    1    3    3    0    0 -0.17153085476E+02 -0.12597631061E+02  0.11897849325E+02  0.24382113695E+02  0.00000000000E+00 0.  1.
</event>
<event>
 7    1  0.2714068E-010  0.4778727E+02  0.7816164E-02  0.1312668E+00
        -11   -1    0    0    0    0  0.00000000000E+00  0.00000000000E+00  0.45593999997E+02  0.45594000000E+02  0.51100000000E-03 0.  1.
         11   -1    0    0    0    0 -0.00000000000E+00 -0.00000000000E+00 -0.45593999997E+02  0.45594000000E+02  0.51100000000E-03 0. -1.
    9900012    2    1    2    0    0 -0.24300675305E+02 -0.27096297440E+02 -0.23640875117E+02  0.47787272685E+02  0.20000007478E+02 0.  0.
        -12    1    1    2    0    0  0.24300675305E+02  0.27096297440E+02  0.23640875117E+02  0.43400727315E+02  0.00000000000E+00 0.  1.
         11    1    3    3    0    0 -0.17366316123E+02 -0.11289977959E+02 -0.76955534998E+01  0.22096924717E+02  0.51100000000E-03 0. -1.
        -11    1    3    3    0    0 -0.78858357629E+00 -0.10928728247E+02 -0.45709951641E+01  0.11872361273E+02  0.51100000000E-03 0.  1.
         12    1    3    3    0    0 -0.61457756051E+01 -0.48775912336E+01 -0.11374326453E+02  0.13817986694E+02  0.00000000000E+00 0. -1.
</event>
<event>
 7    1  0.2714068E-010  0.4778727E+02  0.7816164E-02  0.1312668E+00
        -11   -1    0    0    0    0  0.00000000000E+00  0.00000000000E+00  0.45593999997E+02  0.45594000000E+02  0.51100000000E-03 0.  1.
         11   -1    0    0    0    0 -0.00000000000E+00 -0.00000000000E+00 -0.45593999997E+02  0.45594000000E+02  0.51100000000E-03 0. -1.
    9900012    2    1    2    0    0  0.17181481104E+02  0.38814198512E+02  0.90486639066E+01  0.47787267085E+02  0.19999981949E+02 0.  0.
        -12    1    1    2    0    0 -0.17181481104E+02 -0.38814198512E+02 -0.90486639066E+01  0.43400732915E+02  0.00000000000E+00 0.  1.
         11    1    3    3    0    0  0.12812795772E+02  0.12847944488E+02  0.45383060467E+01  0.18703840116E+02  0.51100000000E-03 0. -1.
        -11    1    3    3    0    0  0.14218246884E+01  0.15808882813E+02 -0.29450474655E+01  0.16143595203E+02  0.51100000000E-03 0.  1.
        -12    1    3    3    0    0  0.29468606430E+01  0.10157371211E+02  0.74554053254E+01  0.12939831766E+02  0.00000000000E+00 0.  1.
</event>
<event>
 7    1  0.2714068E-010  0.4778727E+02  0.7816164E-02  0.1312668E+00
        -11   -1    0    0    0    0  0.00000000000E+00  0.00000000000E+00  0.45593999997E+02  0.45594000000E+02  0.51100000000E-03 0.  1.
         11   -1    0    0    0    0 -0.00000000000E+00 -0.00000000000E+00 -0.45593999997E+02  0.45594000000E+02  0.51100000000E-03 0. -1.
    9900012    2    1    2    0    0  0.37227454932E+02  0.10109337450E+00 -0.22309859732E+02  0.47787268879E+02  0.19999990128E+02 0.  0.
        -12    1    1    2    0    0 -0.37227454932E+02 -0.10109337450E+00  0.22309859732E+02  0.43400731121E+02  0.00000000000E+00 0.  1.
         11    1    3    3    0    0  0.34864334608E+01  0.41504840723E+01 -0.10042259932E+01  0.55127313029E+01  0.51100000000E-03 0. -1.
        -11    1    3    3    0    0  0.28673639899E+02  0.38395090865E+00 -0.20984105747E+02  0.35533895615E+02  0.51100000000E-03 0.  1.
        -12    1    3    3    0    0  0.50673815721E+01 -0.44333416065E+01 -0.32152799143E+00  0.67406419610E+01  0.00000000000E+00 0.  1.
</event>
<event>
 7    1  0.2714068E-010  0.4778728E+02  0.7816164E-02  0.1312668E+00
        -11   -1    0    0    0    0  0.00000000000E+00  0.00000000000E+00  0.45593999997E+02  0.45594000000E+02  0.51100000000E-03 0.  1.
         11   -1    0    0    0    0 -0.00000000000E+00 -0.00000000000E+00 -0.45593999997E+02  0.45594000000E+02  0.51100000000E-03 0. -1.
    9900012    2    1    2    0    0 -0.12567572267E+02  0.23183424994E+02 -0.34470391052E+02  0.47787275047E+02  0.20000018249E+02 0.  0.
        -12    1    1    2    0    0  0.12567572267E+02 -0.23183424994E+02  0.34470391052E+02  0.43400724953E+02  0.00000000000E+00 0.  1.
         11    1    3    3    0    0 -0.39074074144E+01  0.17721518377E+02 -0.25329584593E+02  0.31159395087E+02  0.51100000000E-03 0. -1.
        -11    1    3    3    0    0  0.11927058176E+01 -0.10638209784E+01  0.13572454994E+00  0.16039587451E+01  0.51100000000E-03 0.  1.
         12    1    3    3    0    0 -0.98528706705E+01  0.65257275958E+01 -0.92765310091E+01  0.15023921215E+02  0.00000000000E+00 0. -1.
</event>
<event>
 7    1  0.2714068E-010  0.4778727E+02  0.7816164E-02  0.1312668E+00
        -11   -1    0    0    0    0  0.00000000000E+00  0.00000000000E+00  0.45593999997E+02  0.45594000000E+02  0.51100000000E-03 0.  1.
         11   -1    0    0    0    0 -0.00000000000E+00 -0.00000000000E+00 -0.45593999997E+02  0.45594000000E+02  0.51100000000E-03 0. -1.
    9900012    2    1    2    0    0  0.16339658270E+02  0.38015648710E+02 -0.13093882963E+02  0.47787265556E+02  0.19999974977E+02 0.  0.
        -12    1    1    2    0    0 -0.16339658270E+02 -0.38015648710E+02  0.13093882963E+02  0.43400734444E+02  0.00000000000E+00 0.  1.
         11    1    3    3    0    0  0.62522349725E+01  0.20413642121E+02 -0.81417591707E+01  0.22849408514E+02  0.51100000000E-03 0. -1.
        -11    1    3    3    0    0 -0.14668486234E+01  0.40992846442E+01  0.31826512206E+01  0.53930555839E+01  0.51100000000E-03 0.  1.
        -12    1    3    3    0    0  0.11554271921E+02  0.13502721945E+02 -0.81347750125E+01  0.19544801459E+02  0.00000000000E+00 0.  1.
</event>
<event>
 7    1  0.2714068E-010  0.4778727E+02  0.7816164E-02  0.1312668E+00
        -11   -1    0    0    0    0  0.00000000000E+00  0.00000000000E+00  0.45593999997E+02  0.45594000000E+02  0.51100000000E-03 0.  1.
         11   -1    0    0    0    0 -0.00000000000E+00 -0.00000000000E+00 -0.45593999997E+02  0.45594000000E+02  0.51100000000E-03 0. -1.
    9900012    2    1    2    0    0 -0.18476151134E+02 -0.31398800344E+00 -0.39270302321E+02  0.47787269666E+02  0.19999993713E+02 0.  0.
        -12    1    1    2    0    0  0.18476151134E+02  0.31398800344E+00  0.39270302321E+02  0.43400730334E+02  0.00000000000E+00 0.  1.
         11    1    3    3    0    0 -0.15483394788E+02  0.35552366856E+01 -0.27390681518E+02  0.31664248867E+02  0.51100000000E-03 0. -1.
        -11    1    3    3    0    0  0.20394633429E+01 -0.49318156315E+01 -0.38236558951E+01  0.65652540557E+01  0.51100000000E-03 0.  1.
        -12    1    3    3    0    0 -0.50322196890E+01  0.10625909425E+01 -0.80559649076E+01  0.95577667424E+01  0.00000000000E+00 0.  1.
</event>
<event>
 7    1  0.2714068E-010  0.4778727E+02  0.7816164E-02  0.1312668E+00
        -11   -1    0    0    0    0  0.00000000000E+00  0.00000000000E+00  0.45593999997E+02  0.45594000000E+02  0.51100000000E-03 0.  1.
         11   -1    0    0    0    0 -0.00000000000E+00 -0.00000000000E+00 -0.45593999997E+02  0.45594000000E+02  0.51100000000E-03 0. -1.
    9900012    2    1    2    0    0  0.11894523103E+02 -0.21515990555E+02 -0.35765988492E+02  0.47787268874E+02  0.19999990105E+02 0.  0.
        -12    1    1    2    0    0 -0.11894523103E+02  0.21515990555E+02  0.35765988492E+02  0.43400731126E+02  0.00000000000E+00 0.  1.
         11    1    3    3    0    0 -0.20384768757E+01 -0.12657534793E+02 -0.13219097296E+02  0.18415023991E+02  0.51100000000E-03 0. -1.
        -11    1    3    3    0    0  0.81726506829E+00 -0.40186085913E+01 -0.90694270856E+01  0.99534740228E+01  0.51100000000E-03 0.  1.
         12    1    3    3    0    0  0.13115734910E+02 -0.48398471715E+01 -0.13477464111E+02  0.19418770861E+02  0.00000000000E+00 0. -1.
</event>
<event>
 7    1  0.2714068E-010  0.4778727E+02  0.7816164E-02  0.1312668E+00
        -11   -1    0    0    0    0  0.00000000000E+00  0.00000000000E+00  0.45593999997E+02  0.45594000000E+02  0.51100000000E-03 0. -1.
         11   -1    0    0    0    0 -0.00000000000E+00 -0.00000000000E+00 -0.45593999997E+02  0.45594000000E+02  0.51100000000E-03 0.  1.
    9900012    2    1    2    0    0  0.42333683671E+02  0.68074673296E+01  0.67186993385E+01  0.47787270681E+02  0.19999998344E+02 0.  0.
        -12    1    1    2    0    0 -0.42333683671E+02 -0.68074673296E+01 -0.67186993385E+01  0.43400729319E+02  0.00000000000E+00 0.  1.
         11    1    3    3    0    0  0.34888106234E+02  0.69942435561E+01  0.37030618371E+01  0.35774461097E+02  0.51100000000E-03 0. -1.
        -11    1    3    3    0    0  0.46342553279E+01  0.23714049509E+01  0.54200774750E+01  0.75151263450E+01  0.51100000000E-03 0.  1.
         12    1    3    3    0    0  0.28113221085E+01 -0.25581811775E+01 -0.24044399736E+01  0.44976832393E+01  0.00000000000E+00 0. -1.
</event>
<event>
 7    1  0.2714068E-010  0.4778728E+02  0.7816164E-02  0.1312668E+00
        -11   -1    0    0    0    0  0.00000000000E+00  0.00000000000E+00  0.45593999997E+02  0.45594000000E+02  0.51100000000E-03 0.  1.
         11   -1    0    0    0    0 -0.00000000000E+00 -0.00000000000E+00 -0.45593999997E+02  0.45594000000E+02  0.51100000000E-03 0. -1.
    9900012    2    1    2    0    0 -0.31350127791E+02 -0.21134014828E+02 -0.21310681911E+02  0.47787282739E+02  0.20000053321E+02 0.  0.
        -12    1    1    2    0    0  0.31350127791E+02  0.21134014828E+02  0.21310681911E+02  0.43400717261E+02  0.00000000000E+00 0.  1.
         11    1    3    3    0    0 -0.44078290299E+01 -0.70152220864E+01 -0.80518293902E+01  0.11553105836E+02  0.51100000000E-03 0. -1.
        -11    1    3    3    0    0 -0.21469617281E+02 -0.38509166445E+01 -0.10810001557E+02  0.24343996367E+02  0.51100000000E-03 0.  1.
        -12    1    3    3    0    0 -0.54726814796E+01 -0.10267876097E+02 -0.24488509634E+01  0.11890180535E+02  0.00000000000E+00 0.  1.
</event>
<event>
 7    1  0.2714068E-010  0.4778727E+02  0.7816164E-02  0.1312668E+00
        -11   -1    0    0    0    0  0.00000000000E+00  0.00000000000E+00  0.45593999997E+02  0.45594000000E+02  0.51100000000E-03 0. -1.
         11   -1    0    0    0    0 -0.00000000000E+00 -0.00000000000E+00 -0.45593999997E+02  0.45594000000E+02  0.51100000000E-03 0.  1.
    9900012    2    1    2    0    0  0.22386340710E+01  0.42334420735E+01  0.43135713081E+02  0.47787271235E+02  0.20000000869E+02 0.  0.
        -12    1    1    2    0    0 -0.22386340710E+01 -0.42334420735E+01 -0.43135713081E+02  0.43400728765E+02  0.00000000000E+00 0.  1.
         11    1    3    3    0    0  0.73033047547E+00  0.10015059310E+02  0.28863589253E+02  0.30560457791E+02  0.51100000000E-03 0. -1.
        -11    1    3    3    0    0 -0.40096230697E+00 -0.70951318349E+00 -0.84115165807E+00  0.11712028442E+01  0.51100000000E-03 0.  1.
         12    1    3    3    0    0  0.19092659025E+01 -0.50721040525E+01  0.15113275486E+02  0.16055610600E+02  0.00000000000E+00 0. -1.
</event>
<event>
 7    1  0.2714068E-010  0.4778727E+02  0.7816164E-02  0.1312668E+00
        -11   -1    0    0    0    0  0.00000000000E+00  0.00000000000E+00  0.45593999997E+02  0.45594000000E+02  0.51100000000E-03 0.  1.
         11   -1    0    0    0    0 -0.00000000000E+00 -0.00000000000E+00 -0.45593999997E+02  0.45594000000E+02  0.51100000000E-03 0. -1.
    9900012    2    1    2    0    0  0.35794817149E+02  0.61483560417E+01 -0.23760301168E+02  0.47787272721E+02  0.20000007644E+02 0.  0.
        -12    1    1    2    0    0 -0.35794817149E+02 -0.61483560417E+01  0.23760301168E+02  0.43400727279E+02  0.00000000000E+00 0.  1.
         11    1    3    3    0    0  0.15812251256E+02 -0.14315870702E+01 -0.19828870555E+02  0.25401984943E+02  0.51100000000E-03 0. -1.
        -11    1    3    3    0    0  0.19625491157E+02  0.68164454025E+01 -0.46362230827E+01  0.21286577832E+02  0.51100000000E-03 0.  1.
        -12    1    3    3    0    0  0.35707473695E+00  0.76349770930E+00  0.70479246964E+00  0.10987099459E+01  0.00000000000E+00 0.  1.
</event>
<event>
 7    1  0.2714068E-010  0.4778727E+02  0.7816164E-02  0.1312668E+00
        -11   -1    0    0    0    0  0.00000000000E+00  0.00000000000E+00  0.45593999997E+02  0.45594000000E+02  0.51100000000E-03 0.  1.
         11   -1    0    0    0    0 -0.00000000000E+00 -0.00000000000E+00 -0.45593999997E+02  0.45594000000E+02  0.51100000000E-03 0. -1.
    9900012    2    1    2    0    0 -0.27037831261E+02 -0.33773952255E+02  0.34495417855E+01  0.47787268338E+02  0.19999987660E+02 0.  0.
        -12    1    1    2    0    0  0.27037831261E+02  0.33773952255E+02 -0.34495417855E+01  0.43400731662E+02  0.00000000000E+00 0.  1.
         11    1    3    3    0    0 -0.13885636135E+02 -0.23870341160E+02  0.29479891484E+01  0.27772193256E+02  0.51100000000E-03 0. -1.
        -11    1    3    3    0    0 -0.14132633734E+01  0.15787976143E+01  0.27167321362E+01  0.34453663129E+01  0.51100000000E-03 0.  1.
        -12    1    3    3    0    0 -0.11738931753E+02 -0.11482408709E+02 -0.22151794991E+01  0.16569708769E+02  0.00000000000E+00 0.  1.
</event>
<event>
 7    1  0.2714068E-010  0.4778727E+02  0.7816164E-02  0.1312668E+00
        -11   -1    0    0    0    0  0.00000000000E+00  0.00000000000E+00  0.45593999997E+02  0.45594000000E+02  0.51100000000E-03 0.  1.
         11   -1    0    0    0    0 -0.00000000000E+00 -0.00000000000E+00 -0.45593999997E+02  0.45594000000E+02  0.51100000000E-03 0. -1.
    9900012    2    1    2    0    0  0.44622659311E+01  0.58665526674E+01 -0.42770258171E+02  0.47787271418E+02  0.20000001704E+02 0.  0.
        -12    1    1    2    0    0 -0.44622659311E+01 -0.58665526674E+01  0.42770258171E+02  0.43400728582E+02  0.00000000000E+00 0.  1.
         11    1    3    3    0    0  0.10978959135E+01  0.77846080118E+00 -0.21788146083E+02  0.21829674451E+02  0.51100000000E-03 0. -1.
        -11    1    3    3    0    0  0.26616747702E+01  0.44879238673E+01 -0.26995016247E+00  0.52248298128E+01  0.51100000000E-03 0.  1.
        -12    1    3    3    0    0  0.70269524743E+00  0.60016799888E+00 -0.20712161926E+02  0.20732767154E+02  0.00000000000E+00 0.  1.
</event>
<event>
 7    1  0.2714068E-010  0.4778727E+02  0.7816164E-02  0.1312668E+00
        -11   -1    0    0    0    0  0.00000000000E+00  0.00000000000E+00  0.45593999997E+02  0.45594000000E+02  0.51100000000E-03 0. -1.
         11   -1    0    0    0    0 -0.00000000000E+00 -0.00000000000E+00 -0.45593999997E+02  0.45594000000E+02  0.51100000000E-03 0.  1.
    9900012    2    1    2    0    0  0.33550235447E+01  0.14961478238E+02  0.40601987031E+02  0.47787269996E+02  0.19999995218E+02 0.  0.
        -12    1    1    2    0    0 -0.33550235447E+01 -0.14961478238E+02 -0.40601987031E+02  0.43400730004E+02  0.00000000000E+00 0.  1.
         11    1    3    3    0    0  0.64547879983E+01  0.91988999754E+01  0.11765378261E+02  0.16269854786E+02  0.51100000000E-03 0. -1.
        -11    1    3    3    0    0 -0.65787345655E+01  0.14582571024E+01  0.11612375566E+02  0.13425853001E+02  0.51100000000E-03 0.  1.
        -12    1    3    3    0    0  0.34789701120E+01  0.43043211604E+01  0.17224233204E+02  0.18091562209E+02  0.00000000000E+00 0.  1.
</event>
<event>
 7    1  0.2714068E-010  0.4778727E+02  0.7816164E-02  0.1312668E+00
        -11   -1    0    0    0    0  0.00000000000E+00  0.00000000000E+00  0.45593999997E+02  0.45594000000E+02  0.51100000000E-03 0.  1.
         11   -1    0    0    0    0 -0.00000000000E+00 -0.00000000000E+00 -0.45593999997E+02  0.45594000000E+02  0.51100000000E-03 0. -1.
    9900012    2    1    2    0    0  0.28322784798E+02  0.99530640870E+00 -0.32870237172E+02  0.47787271143E+02  0.20000000450E+02 0.  0.
        -12    1    1    2    0    0 -0.28322784798E+02 -0.99530640870E+00  0.32870237172E+02  0.43400728857E+02  0.00000000000E+00 0.  1.
         11    1    3    3    0    0  0.40014192191E+01 -0.25675496193E+01 -0.17155178833E+02  0.17801792827E+02  0.51100000000E-03 0. -1.
        -11    1    3    3    0    0  0.20738712752E+02  0.15940902944E+01 -0.10327857633E+02  0.23222833032E+02  0.51100000000E-03 0.  1.
         12    1    3    3    0    0  0.35826528273E+01  0.19687657335E+01 -0.53872007055E+01  0.67626452839E+01  0.00000000000E+00 0. -1.
</event>
<event>
 7    1  0.2714068E-010  0.4778728E+02  0.7816164E-02  0.1312668E+00
        -11   -1    0    0    0    0  0.00000000000E+00  0.00000000000E+00  0.45593999997E+02  0.45594000000E+02  0.51100000000E-03 0. -1.
         11   -1    0    0    0    0 -0.00000000000E+00 -0.00000000000E+00 -0.45593999997E+02  0.45594000000E+02  0.51100000000E-03 0.  1.
    9900012    2    1    2    0    0 -0.25415516054E+01 -0.28211507700E+02  0.32882728864E+02  0.47787279858E+02  0.20000040187E+02 0.  0.
        -12    1    1    2    0    0  0.25415516054E+01  0.28211507700E+02 -0.32882728864E+02  0.43400720142E+02  0.00000000000E+00 0.  1.
         11    1    3    3    0    0  0.89334246954E+00 -0.68233471513E+01  0.12723131829E+02  0.14464930381E+02  0.51100000000E-03 0. -1.
        -11    1    3    3    0    0  0.20685385241E+01 -0.17662191854E+02  0.80742883818E+01  0.19530130718E+02  0.51100000000E-03 0.  1.
        -12    1    3    3    0    0 -0.55034325990E+01 -0.37259686941E+01  0.12085308653E+02  0.13792218760E+02  0.00000000000E+00 0.  1.
</event>
<event>
 7    1  0.2714068E-010  0.4778727E+02  0.7816164E-02  0.1312668E+00
        -11   -1    0    0    0    0  0.00000000000E+00  0.00000000000E+00  0.45593999997E+02  0.45594000000E+02  0.51100000000E-03 0.  1.
         11   -1    0    0    0    0 -0.00000000000E+00 -0.00000000000E+00 -0.45593999997E+02  0.45594000000E+02  0.51100000000E-03 0. -1.
    9900012    2    1    2    0    0  0.23976372699E+02 -0.14618937289E+02 -0.33091443285E+02  0.47787269661E+02  0.19999993693E+02 0.  0.
        -12    1    1    2    0    0 -0.23976372699E+02  0.14618937289E+02  0.33091443285E+02  0.43400730339E+02  0.00000000000E+00 0.  1.
         11    1    3    3    0    0  0.58312270386E+01 -0.13471375452E+01 -0.13826474244E+02  0.15066166686E+02  0.51100000000E-03 0. -1.
        -11    1    3    3    0    0  0.67199482870E+01 -0.30244884446E+01  0.85193466287E+00  0.74182901172E+01  0.51100000000E-03 0.  1.
        -12    1    3    3    0    0  0.11425197373E+02 -0.10247311299E+02 -0.20116903704E+02  0.25302812858E+02  0.00000000000E+00 0.  1.
</event>
<event>
 7    1  0.2714068E-010  0.4778727E+02  0.7816164E-02  0.1312668E+00
        -11   -1    0    0    0    0  0.00000000000E+00  0.00000000000E+00  0.45593999997E+02  0.45594000000E+02  0.51100000000E-03 0.  1.
         11   -1    0    0    0    0 -0.00000000000E+00 -0.00000000000E+00 -0.45593999997E+02  0.45594000000E+02  0.51100000000E-03 0. -1.
    9900012    2    1    2    0    0 -0.15177058637E+02  0.15081654143E+02 -0.37760082726E+02  0.47787271342E+02  0.20000001358E+02 0.  0.
        -12    1    1    2    0    0  0.15177058637E+02 -0.15081654143E+02  0.37760082726E+02  0.43400728658E+02  0.00000000000E+00 0.  1.
         11    1    3    3    0    0 -0.62915339592E+00  0.83039214710E+01 -0.24182482385E+02  0.25576227250E+02  0.51100000000E-03 0.  1.
        -11    1    3    3    0    0 -0.12937839383E+02  0.56215543101E+01 -0.78354881527E+01  0.16136431935E+02  0.51100000000E-03 0. -1.
         12    1    3    3    0    0 -0.16100658581E+01  0.11561783615E+01 -0.57421121888E+01  0.60746121571E+01  0.00000000000E+00 0. -1.
</event>
<event>
 7    1  0.2714068E-010  0.4778728E+02  0.7816164E-02  0.1312668E+00
        -11   -1    0    0    0    0  0.00000000000E+00  0.00000000000E+00  0.45593999997E+02  0.45594000000E+02  0.51100000000E-03 0.  1.
         11   -1    0    0    0    0 -0.00000000000E+00 -0.00000000000E+00 -0.45593999997E+02  0.45594000000E+02  0.51100000000E-03 0. -1.
    9900012    2    1    2    0    0 -0.18855633961E+02 -0.17416107694E+02 -0.34996673514E+02  0.47787275394E+02  0.20000019832E+02 0.  0.
        -12    1    1    2    0    0  0.18855633961E+02  0.17416107694E+02  0.34996673514E+02  0.43400724606E+02  0.00000000000E+00 0.  1.
         11    1    3    3    0    0 -0.15202331116E+02 -0.20190269257E+02 -0.30435929163E+02  0.39561390627E+02  0.51100000000E-03 0. -1.
        -11    1    3    3    0    0 -0.44283142753E+00  0.25989698978E+01 -0.42424639024E+01  0.49949218640E+01  0.51100000000E-03 0.  1.
         12    1    3    3    0    0 -0.32104714170E+01  0.17519166485E+00 -0.31828044806E+00  0.32309629033E+01  0.00000000000E+00 0. -1.
</event>
<event>
 7    1  0.2714068E-010  0.4778727E+02  0.7816164E-02  0.1312668E+00
        -11   -1    0    0    0    0  0.00000000000E+00  0.00000000000E+00  0.45593999997E+02  0.45594000000E+02  0.51100000000E-03 0.  1.
         11   -1    0    0    0    0 -0.00000000000E+00 -0.00000000000E+00 -0.45593999997E+02  0.45594000000E+02  0.51100000000E-03 0. -1.
    9900012    2    1    2    0    0  0.62937432023E+01  0.20875927164E+02 -0.37526095034E+02  0.47787270203E+02  0.19999996163E+02 0.  0.
        -12    1    1    2    0    0 -0.62937432023E+01 -0.20875927164E+02  0.37526095034E+02  0.43400729797E+02  0.00000000000E+00 0.  1.
         11    1    3    3    0    0  0.19616530530E+01  0.68265967808E+01 -0.23745602329E+02  0.24785159602E+02  0.51100000000E-03 0. -1.
        -11    1    3    3    0    0  0.78793764436E+01  0.11872798496E+02 -0.10907963945E+02  0.17945238782E+02  0.51100000000E-03 0.  1.
        -12    1    3    3    0    0 -0.35472862944E+01  0.21765318870E+01 -0.28725287598E+01  0.50568718182E+01  0.00000000000E+00 0.  1.
</event>
<event>
 7    1  0.2714068E-010  0.4778727E+02  0.7816164E-02  0.1312668E+00
        -11   -1    0    0    0    0  0.00000000000E+00  0.00000000000E+00  0.45593999997E+02  0.45594000000E+02  0.51100000000E-03 0.  1.
         11   -1    0    0    0    0 -0.00000000000E+00 -0.00000000000E+00 -0.45593999997E+02  0.45594000000E+02  0.51100000000E-03 0. -1.
    9900012    2    1    2    0    0 -0.10132816940E+02 -0.41275305678E+02 -0.87919486621E+01  0.47787271905E+02  0.20000003923E+02 0.  0.
        -12    1    1    2    0    0  0.10132816940E+02  0.41275305678E+02  0.87919486621E+01  0.43400728095E+02  0.00000000000E+00 0.  1.
         11    1    3    3    0    0 -0.12438731284E+02 -0.37733366905E+02 -0.47505086485E+01  0.40013701986E+02  0.51100000000E-03 0. -1.
        -11    1    3    3    0    0  0.18382095524E+01  0.94517799243E+00 -0.79104587400E+00  0.22131718487E+01  0.51100000000E-03 0.  1.
         12    1    3    3    0    0  0.46770479178E+00 -0.44871167648E+01 -0.32503941395E+01  0.55603980699E+01  0.00000000000E+00 0. -1.
</event>
<event>
 7    1  0.2714068E-010  0.4778725E+02  0.7816164E-02  0.1312668E+00
        -11   -1    0    0    0    0  0.00000000000E+00  0.00000000000E+00  0.45593999997E+02  0.45594000000E+02  0.51100000000E-03 0.  1.
         11   -1    0    0    0    0 -0.00000000000E+00 -0.00000000000E+00 -0.45593999997E+02  0.45594000000E+02  0.51100000000E-03 0. -1.
    9900012    2    1    2    0    0 -0.15457564387E+02 -0.38973259080E+02  0.11214890868E+02  0.47787251190E+02  0.19999909475E+02 0.  0.
        -12    1    1    2    0    0  0.15457564387E+02  0.38973259080E+02 -0.11214890868E+02  0.43400748810E+02  0.00000000000E+00 0.  1.
         11    1    3    3    0    0 -0.13830168159E+02 -0.21323716847E+02 -0.20359626914E+01  0.25497442927E+02  0.51100000000E-03 0. -1.
        -11    1    3    3    0    0 -0.15180039005E+01 -0.11634023684E+02  0.10187413122E+02  0.15538282701E+02  0.51100000000E-03 0.  1.
        -12    1    3    3    0    0 -0.10939232699E+00 -0.60155185491E+01  0.30634404365E+01  0.67515255612E+01  0.00000000000E+00 0.  1.
</event>
<event>
 7    1  0.2714068E-010  0.4778727E+02  0.7816164E-02  0.1312668E+00
        -11   -1    0    0    0    0  0.00000000000E+00  0.00000000000E+00  0.45593999997E+02  0.45594000000E+02  0.51100000000E-03 0. -1.
         11   -1    0    0    0    0 -0.00000000000E+00 -0.00000000000E+00 -0.45593999997E+02  0.45594000000E+02  0.51100000000E-03 0.  1.
    9900012    2    1    2    0    0 -0.35113257428E+01  0.43242125055E+02 -0.11884789231E+01  0.47787271090E+02  0.20000000208E+02 0.  0.
        -12    1    1    2    0    0  0.35113257428E+01 -0.43242125055E+02  0.11884789231E+01  0.43400728910E+02  0.00000000000E+00 0.  1.
         11    1    3    3    0    0 -0.23063640605E+01  0.14658043578E+01  0.30959315435E+01  0.41294902807E+01  0.51100000000E-03 0. -1.
        -11    1    3    3    0    0  0.45981166727E+01  0.21195211698E+02 -0.50196854337E+01  0.22261556953E+02  0.51100000000E-03 0.  1.
        -12    1    3    3    0    0 -0.58030783550E+01  0.20581108999E+02  0.73527496700E+00  0.21396223856E+02  0.00000000000E+00 0.  1.
</event>
<event>
 7    1  0.2714068E-010  0.4778727E+02  0.7816164E-02  0.1312668E+00
        -11   -1    0    0    0    0  0.00000000000E+00  0.00000000000E+00  0.45593999997E+02  0.45594000000E+02  0.51100000000E-03 0.  1.
         11   -1    0    0    0    0 -0.00000000000E+00 -0.00000000000E+00 -0.45593999997E+02  0.45594000000E+02  0.51100000000E-03 0. -1.
    9900012    2    1    2    0    0 -0.16620244781E+02  0.72405095623E+01 -0.39433058303E+02  0.47787267260E+02  0.19999982744E+02 0.  0.
        -12    1    1    2    0    0  0.16620244781E+02 -0.72405095623E+01  0.39433058303E+02  0.43400732740E+02  0.00000000000E+00 0.  1.
         11    1    3    3    0    0 -0.92442955051E+01  0.26987519119E+01 -0.11097018307E+02  0.14692994141E+02  0.51100000000E-03 0. -1.
        -11    1    3    3    0    0 -0.68765563297E+01  0.89192995602E+01 -0.13309561050E+02  0.17435175571E+02  0.51100000000E-03 0.  1.
        -12    1    3    3    0    0 -0.49939294575E+00 -0.43775419098E+01 -0.15026478946E+02  0.15659097547E+02  0.00000000000E+00 0.  1.
</event>
<event>
 7    1  0.2714068E-010  0.4778726E+02  0.7816164E-02  0.1312668E+00
        -11   -1    0    0    0    0  0.00000000000E+00  0.00000000000E+00  0.45593999997E+02  0.45594000000E+02  0.51100000000E-03 0. -1.
         11   -1    0    0    0    0 -0.00000000000E+00 -0.00000000000E+00 -0.45593999997E+02  0.45594000000E+02  0.51100000000E-03 0.  1.
    9900012    2    1    2    0    0 -0.94588082176E+01  0.40500028144E+02  0.12405757185E+02  0.47787261021E+02  0.19999954299E+02 0.  0.
        -12    1    1    2    0    0  0.94588082176E+01 -0.40500028144E+02 -0.12405757185E+02  0.43400738979E+02  0.00000000000E+00 0.  1.
         11    1    3    3    0    0 -0.12703181159E+02  0.28966364711E+02  0.54590696401E+01  0.32097079894E+02  0.51100000000E-03 0. -1.
        -11    1    3    3    0    0  0.29776311527E+01  0.62314336577E+00  0.23667880528E+01  0.38543846311E+01  0.51100000000E-03 0.  1.
         12    1    3    3    0    0  0.26674178921E+00  0.10910520067E+02  0.45798994923E+01  0.11835796495E+02  0.00000000000E+00 0. -1.
</event>
<event>
 7    1  0.2714068E-010  0.4778727E+02  0.7816164E-02  0.1312668E+00
        -11   -1    0    0    0    0  0.00000000000E+00  0.00000000000E+00  0.45593999997E+02  0.45594000000E+02  0.51100000000E-03 0. -1.
         11   -1    0    0    0    0 -0.00000000000E+00 -0.00000000000E+00 -0.45593999997E+02  0.45594000000E+02  0.51100000000E-03 0.  1.
    9900012    2    1    2    0    0 -0.90519736055E+01 -0.38336081381E+02  0.18221699802E+02  0.47787266072E+02  0.19999977329E+02 0.  0.
        -12    1    1    2    0    0  0.90519736055E+01  0.38336081381E+02 -0.18221699802E+02  0.43400733928E+02  0.00000000000E+00 0.  1.
         11    1    3    3    0    0 -0.46063358526E+00 -0.24270739512E+02  0.17192735882E+02  0.29746783812E+02  0.51100000000E-03 0. -1.
        -11    1    3    3    0    0 -0.43051068609E+01 -0.37445907606E+01  0.33641567474E+01  0.66237040945E+01  0.51100000000E-03 0.  1.
         12    1    3    3    0    0 -0.42862331593E+01 -0.10320751109E+02 -0.23351928282E+01  0.11416778166E+02  0.00000000000E+00 0. -1.
</event>
<event>
 7    1  0.2714068E-010  0.4778727E+02  0.7816164E-02  0.1312668E+00
        -11   -1    0    0    0    0  0.00000000000E+00  0.00000000000E+00  0.45593999997E+02  0.45594000000E+02  0.51100000000E-03 0.  1.
         11   -1    0    0    0    0 -0.00000000000E+00 -0.00000000000E+00 -0.45593999997E+02  0.45594000000E+02  0.51100000000E-03 0. -1.
    9900012    2    1    2    0    0  0.29504837212E+01  0.13129096610E+01 -0.43280411890E+02  0.47787272595E+02  0.20000007069E+02 0.  0.
        -12    1    1    2    0    0 -0.29504837212E+01 -0.13129096610E+01  0.43280411890E+02  0.43400727405E+02  0.00000000000E+00 0.  1.
         11    1    3    3    0    0 -0.48736369793E+01 -0.19523409455E+01 -0.25186831104E+02  0.25728203083E+02  0.51100000000E-03 0. -1.
        -11    1    3    3    0    0  0.24793128962E+01  0.11374751274E+01  0.33979369957E+00  0.27488728821E+01  0.51100000000E-03 0.  1.
        -12    1    3    3    0    0  0.53448078043E+01  0.21277754791E+01 -0.18433374486E+02  0.19310196630E+02  0.00000000000E+00 0.  1.
</event>
<event>
 7    1  0.2714068E-010  0.4778727E+02  0.7816164E-02  0.1312668E+00
        -11   -1    0    0    0    0  0.00000000000E+00  0.00000000000E+00  0.45593999997E+02  0.45594000000E+02  0.51100000000E-03 0.  1.
         11   -1    0    0    0    0 -0.00000000000E+00 -0.00000000000E+00 -0.45593999997E+02  0.45594000000E+02  0.51100000000E-03 0. -1.
    9900012    2    1    2    0    0  0.25790157406E+02  0.19398584168E+02 -0.29020443692E+02  0.47787269144E+02  0.19999991336E+02 0.  0.
        -12    1    1    2    0    0 -0.25790157406E+02 -0.19398584168E+02  0.29020443692E+02  0.43400730856E+02  0.00000000000E+00 0.  1.
         11    1    3    3    0    0  0.97577759737E+01 -0.16694186551E+01 -0.13409281518E+02  0.16667632756E+02  0.51100000000E-03 0. -1.
        -11    1    3    3    0    0  0.12176241562E+02  0.15529919932E+02 -0.13958516195E+02  0.24171873041E+02  0.51100000000E-03 0.  1.
         12    1    3    3    0    0  0.38561398695E+01  0.55380828906E+01 -0.16526459798E+01  0.69477633474E+01  0.00000000000E+00 0. -1.
</event>
<event>
 7    1  0.2714068E-010  0.4778727E+02  0.7816164E-02  0.1312668E+00
        -11   -1    0    0    0    0  0.00000000000E+00  0.00000000000E+00  0.45593999997E+02  0.45594000000E+02  0.51100000000E-03 0.  1.
         11   -1    0    0    0    0 -0.00000000000E+00 -0.00000000000E+00 -0.45593999997E+02  0.45594000000E+02  0.51100000000E-03 0. -1.
    9900012    2    1    2    0    0 -0.15433658369E+02  0.30109699576E+00 -0.40562726724E+02  0.47787271096E+02  0.20000000237E+02 0.  0.
        -12    1    1    2    0    0  0.15433658369E+02 -0.30109699576E+00  0.40562726724E+02  0.43400728904E+02  0.00000000000E+00 0.  1.
         11    1    3    3    0    0 -0.34954479324E+01  0.28519872022E+00 -0.10204807548E+02  0.10790625186E+02  0.51100000000E-03 0. -1.
        -11    1    3    3    0    0 -0.91797730377E+01  0.81091084005E+01 -0.21075972034E+02  0.24376678804E+02  0.51100000000E-03 0.  1.
        -12    1    3    3    0    0 -0.27584373985E+01 -0.80932101249E+01 -0.92819471427E+01  0.12619967106E+02  0.00000000000E+00 0.  1.
</event>
<event>
 7    1  0.2714068E-010  0.4778727E+02  0.7816164E-02  0.1312668E+00
        -11   -1    0    0    0    0  0.00000000000E+00  0.00000000000E+00  0.45593999997E+02  0.45594000000E+02  0.51100000000E-03 0.  1.
         11   -1    0    0    0    0 -0.00000000000E+00 -0.00000000000E+00 -0.45593999997E+02  0.45594000000E+02  0.51100000000E-03 0. -1.
    9900012    2    1    2    0    0  0.36502176807E+02  0.22562520506E+02 -0.64920693354E+01  0.47787271810E+02  0.20000003489E+02 0.  0.
        -12    1    1    2    0    0 -0.36502176807E+02 -0.22562520506E+02  0.64920693354E+01  0.43400728190E+02  0.00000000000E+00 0.  1.
         11    1    3    3    0    0  0.23525608851E+02  0.14312270176E+02 -0.95623275481E+01  0.29150187955E+02  0.51100000000E-03 0.  1.
        -11    1    3    3    0    0  0.13767136153E+02  0.57881223807E+01  0.46071740404E+01  0.15628897960E+02  0.51100000000E-03 0. -1.
        -12    1    3    3    0    0 -0.79056819783E+00  0.24621279490E+01 -0.15369158277E+01  0.30081858942E+01  0.00000000000E+00 0.  1.
</event>
<event>
 7    1  0.2714068E-010  0.4778727E+02  0.7816164E-02  0.1312668E+00
        -11   -1    0    0    0    0  0.00000000000E+00  0.00000000000E+00  0.45593999997E+02  0.45594000000E+02  0.51100000000E-03 0.  1.
         11   -1    0    0    0    0 -0.00000000000E+00 -0.00000000000E+00 -0.45593999997E+02  0.45594000000E+02  0.51100000000E-03 0. -1.
    9900012    2    1    2    0    0 -0.23071223608E+02  0.78146016827E+01 -0.35920380973E+02  0.47787272731E+02  0.20000007690E+02 0.  0.
        -12    1    1    2    0    0  0.23071223608E+02 -0.78146016827E+01  0.35920380973E+02  0.43400727269E+02  0.00000000000E+00 0.  1.
         11    1    3    3    0    0 -0.95600981872E+01  0.38759124864E+01 -0.20282899619E+02  0.22755531024E+02  0.51100000000E-03 0. -1.
        -11    1    3    3    0    0 -0.97559037418E+01 -0.18407903634E+01 -0.15161718822E+02  0.18123020854E+02  0.51100000000E-03 0.  1.
         12    1    3    3    0    0 -0.37552216794E+01  0.57794795597E+01 -0.47576253175E+00  0.69087208533E+01  0.00000000000E+00 0. -1.
</event>
<event>
 7    1  0.2714068E-010  0.4778727E+02  0.7816164E-02  0.1312668E+00
        -11   -1    0    0    0    0  0.00000000000E+00  0.00000000000E+00  0.45593999997E+02  0.45594000000E+02  0.51100000000E-03 0.  1.
         11   -1    0    0    0    0 -0.00000000000E+00 -0.00000000000E+00 -0.45593999997E+02  0.45594000000E+02  0.51100000000E-03 0. -1.
    9900012    2    1    2    0    0  0.57952220873E+01 -0.35277255633E+02 -0.24608008325E+02  0.47787269156E+02  0.19999991390E+02 0.  0.
        -12    1    1    2    0    0 -0.57952220873E+01  0.35277255633E+02  0.24608008325E+02  0.43400730844E+02  0.00000000000E+00 0.  1.
         11    1    3    3    0    0 -0.23522455246E+00 -0.18287137538E+02 -0.14874829758E+02  0.23574038485E+02  0.51100000000E-03 0. -1.
        -11    1    3    3    0    0 -0.34361162355E+01 -0.87750763541E+01 -0.25331536496E+01  0.97583670497E+01  0.51100000000E-03 0.  1.
         12    1    3    3    0    0  0.94665628752E+01 -0.82150417416E+01 -0.72000249178E+01  0.14454863621E+02  0.00000000000E+00 0. -1.
</event>
<event>
 7    1  0.2714068E-010  0.4778727E+02  0.7816164E-02  0.1312668E+00
        -11   -1    0    0    0    0  0.00000000000E+00  0.00000000000E+00  0.45593999997E+02  0.45594000000E+02  0.51100000000E-03 0.  1.
         11   -1    0    0    0    0 -0.00000000000E+00 -0.00000000000E+00 -0.45593999997E+02  0.45594000000E+02  0.51100000000E-03 0. -1.
    9900012    2    1    2    0    0 -0.92524971165E+01 -0.41529665827E+02 -0.85616258323E+01  0.47787270934E+02  0.19999999496E+02 0.  0.
        -12    1    1    2    0    0  0.92524971165E+01  0.41529665827E+02  0.85616258323E+01  0.43400729066E+02  0.00000000000E+00 0.  1.
         11    1    3    3    0    0 -0.61567851821E+01 -0.28903504163E+02 -0.10730329795E+02  0.31439760407E+02  0.51100000000E-03 0. -1.
        -11    1    3    3    0    0  0.74117961389E+00 -0.39050366685E+01  0.50191844596E+01  0.64024113819E+01  0.51100000000E-03 0.  1.
        -12    1    3    3    0    0 -0.38368915484E+01 -0.87211249952E+01 -0.28504804967E+01  0.99450991447E+01  0.00000000000E+00 0.  1.
</event>
<event>
 7    1  0.2714068E-010  0.4778727E+02  0.7816164E-02  0.1312668E+00
        -11   -1    0    0    0    0  0.00000000000E+00  0.00000000000E+00  0.45593999997E+02  0.45594000000E+02  0.51100000000E-03 0.  1.
         11   -1    0    0    0    0 -0.00000000000E+00 -0.00000000000E+00 -0.45593999997E+02  0.45594000000E+02  0.51100000000E-03 0. -1.
    9900012    2    1    2    0    0  0.18013072724E+02  0.30327453599E+02 -0.25286316532E+02  0.47787273802E+02  0.20000012573E+02 0.  0.
        -12    1    1    2    0    0 -0.18013072724E+02 -0.30327453599E+02  0.25286316532E+02  0.43400726198E+02  0.00000000000E+00 0.  1.
         11    1    3    3    0    0  0.17867938876E+02  0.30721733682E+02 -0.23969615772E+02  0.42867594295E+02  0.51100000000E-03 0. -1.
        -11    1    3    3    0    0  0.81616638458E-01 -0.24754677649E+01 -0.13824081077E+01  0.28364862715E+01  0.51100000000E-03 0.  1.
        -12    1    3    3    0    0  0.63517209482E-01  0.20811876817E+01  0.65707347761E-01  0.20831932358E+01  0.00000000000E+00 0.  1.
</event>
<event>
 7    1  0.2714068E-010  0.4778727E+02  0.7816164E-02  0.1312668E+00
        -11   -1    0    0    0    0  0.00000000000E+00  0.00000000000E+00  0.45593999997E+02  0.45594000000E+02  0.51100000000E-03 0.  1.
         11   -1    0    0    0    0 -0.00000000000E+00 -0.00000000000E+00 -0.45593999997E+02  0.45594000000E+02  0.51100000000E-03 0. -1.
    9900012    2    1    2    0    0 -0.13037574193E+02  0.13281444894E+02 -0.39207762786E+02  0.47787265190E+02  0.19999973309E+02 0.  0.
        -12    1    1    2    0    0  0.13037574193E+02 -0.13281444894E+02  0.39207762786E+02  0.43400734810E+02  0.00000000000E+00 0.  1.
         11    1    3    3    0    0 -0.54643142712E+01  0.13088779958E+01 -0.22226374927E+01  0.60425168388E+01  0.51100000000E-03 0.  1.
        -11    1    3    3    0    0 -0.56792520232E+01  0.14196029817E+02 -0.35053433767E+02  0.38242965173E+02  0.51100000000E-03 0. -1.
         12    1    3    3    0    0 -0.18940078984E+01 -0.22234629196E+01 -0.19316915267E+01  0.35017831784E+01  0.00000000000E+00 0. -1.
</event>
<event>
 7    1  0.2714068E-010  0.4778727E+02  0.7816164E-02  0.1312668E+00
        -11   -1    0    0    0    0  0.00000000000E+00  0.00000000000E+00  0.45593999997E+02  0.45594000000E+02  0.51100000000E-03 0. -1.
         11   -1    0    0    0    0 -0.00000000000E+00 -0.00000000000E+00 -0.45593999997E+02  0.45594000000E+02  0.51100000000E-03 0.  1.
    9900012    2    1    2    0    0 -0.33737054536E+02 -0.24640972133E+02 -0.11758270756E+02  0.47787270887E+02  0.19999999282E+02 0.  0.
        -12    1    1    2    0    0  0.33737054536E+02  0.24640972133E+02  0.11758270756E+02  0.43400729113E+02  0.00000000000E+00 0.  1.
         11    1    3    3    0    0 -0.21073655641E+02 -0.10202460607E+02 -0.16111452140E+01  0.23468808101E+02  0.51100000000E-03 0. -1.
        -11    1    3    3    0    0  0.11255006412E+01 -0.41057809315E+01  0.12329401922E+00  0.42590363261E+01  0.51100000000E-03 0.  1.
        -12    1    3    3    0    0 -0.13788899535E+02 -0.10332730594E+02 -0.10270419561E+02  0.20059426459E+02  0.00000000000E+00 0.  1.
</event>
<event>
 7    1  0.2714068E-010  0.4778728E+02  0.7816164E-02  0.1312668E+00
        -11   -1    0    0    0    0  0.00000000000E+00  0.00000000000E+00  0.45593999997E+02  0.45594000000E+02  0.51100000000E-03 0.  1.
         11   -1    0    0    0    0 -0.00000000000E+00 -0.00000000000E+00 -0.45593999997E+02  0.45594000000E+02  0.51100000000E-03 0. -1.
    9900012    2    1    2    0    0  0.11399492425E+02  0.41203791386E+02 -0.74780648423E+01  0.47787282196E+02  0.20000050843E+02 0.  0.
        -12    1    1    2    0    0 -0.11399492425E+02 -0.41203791386E+02  0.74780648423E+01  0.43400717804E+02  0.00000000000E+00 0.  1.
         11    1    3    3    0    0  0.14464575611E+02  0.18961484100E+02 -0.12327658588E+00  0.23849046611E+02  0.51100000000E-03 0. -1.
        -11    1    3    3    0    0 -0.93608738826E+00  0.13468159447E+02 -0.26539569873E+01  0.13759035811E+02  0.51100000000E-03 0.  1.
         12    1    3    3    0    0 -0.21289957981E+01  0.87741478393E+01 -0.47008312691E+01  0.10179199774E+02  0.00000000000E+00 0. -1.
</event>
<event>
 7    1  0.2714068E-010  0.4778731E+02  0.7816164E-02  0.1312668E+00
        -11   -1    0    0    0    0  0.00000000000E+00  0.00000000000E+00  0.45593999997E+02  0.45594000000E+02  0.51100000000E-03 0. -1.
         11   -1    0    0    0    0 -0.00000000000E+00 -0.00000000000E+00 -0.45593999997E+02  0.45594000000E+02  0.51100000000E-03 0.  1.
    9900012    2    1    2    0    0  0.24723154714E+02 -0.14888505403E+02  0.32414783767E+02  0.47787306701E+02  0.20000162573E+02 0.  0.
        -12    1    1    2    0    0 -0.24723154714E+02  0.14888505403E+02 -0.32414783767E+02  0.43400693299E+02  0.00000000000E+00 0.  1.
         11    1    3    3    0    0  0.20642666939E+02 -0.97395853151E+01  0.32387356754E+02  0.39622217231E+02  0.51100000000E-03 0. -1.
        -11    1    3    3    0    0  0.19330160874E+01 -0.11170960491E+01 -0.21545377795E+01  0.31026582283E+01  0.51100000000E-03 0.  1.
         12    1    3    3    0    0  0.21474716874E+01 -0.40318240391E+01  0.21819647917E+01  0.50624312423E+01  0.00000000000E+00 0. -1.
</event>
<event>
 7    1  0.2714068E-010  0.4778727E+02  0.7816164E-02  0.1312668E+00
        -11   -1    0    0    0    0  0.00000000000E+00  0.00000000000E+00  0.45593999997E+02  0.45594000000E+02  0.51100000000E-03 0. -1.
         11   -1    0    0    0    0 -0.00000000000E+00 -0.00000000000E+00 -0.45593999997E+02  0.45594000000E+02  0.51100000000E-03 0.  1.
    9900012    2    1    2    0    0  0.24129311099E+02 -0.14583404704E+02  0.32995812805E+02  0.47787274090E+02  0.20000013885E+02 0.  0.
        -12    1    1    2    0    0 -0.24129311099E+02  0.14583404704E+02 -0.32995812805E+02  0.43400725910E+02  0.00000000000E+00 0.  1.
         11    1    3    3    0    0  0.86167462868E+01 -0.11189203887E+02  0.10860706267E+02  0.17815766643E+02  0.51100000000E-03 0. -1.
        -11    1    3    3    0    0  0.46257952788E+01  0.44105121144E+01  0.44590766057E+01  0.77931998248E+01  0.51100000000E-03 0.  1.
        -12    1    3    3    0    0  0.10886769533E+02 -0.78047129318E+01  0.17676029932E+02  0.22178307622E+02  0.00000000000E+00 0.  1.
</event>
<event>
 7    1  0.2714068E-010  0.4778728E+02  0.7816164E-02  0.1312668E+00
        -11   -1    0    0    0    0  0.00000000000E+00  0.00000000000E+00  0.45593999997E+02  0.45594000000E+02  0.51100000000E-03 0. -1.
         11   -1    0    0    0    0 -0.00000000000E+00 -0.00000000000E+00 -0.45593999997E+02  0.45594000000E+02  0.51100000000E-03 0.  1.
    9900012    2    1    2    0    0 -0.29384734450E+02 -0.23001184220E+02  0.22160888668E+02  0.47787284789E+02  0.20000062669E+02 0.  0.
        -12    1    1    2    0    0  0.29384734450E+02  0.23001184220E+02 -0.22160888668E+02  0.43400715211E+02  0.00000000000E+00 0.  1.
         11    1    3    3    0    0 -0.15857937102E+02 -0.18743983701E+02  0.11234042205E+02  0.27000274047E+02  0.51100000000E-03 0. -1.
        -11    1    3    3    0    0 -0.49969375294E+01  0.27642993989E+00  0.98741529810E+01  0.11069990765E+02  0.51100000000E-03 0.  1.
        -12    1    3    3    0    0 -0.85298598186E+01 -0.45336304592E+01  0.10526934823E+01  0.97170199770E+01  0.00000000000E+00 0.  1.
</event>
<event>
 7    1  0.2714068E-010  0.4778727E+02  0.7816164E-02  0.1312668E+00
        -11   -1    0    0    0    0  0.00000000000E+00  0.00000000000E+00  0.45593999997E+02  0.45594000000E+02  0.51100000000E-03 0.  1.
         11   -1    0    0    0    0 -0.00000000000E+00 -0.00000000000E+00 -0.45593999997E+02  0.45594000000E+02  0.51100000000E-03 0. -1.
    9900012    2    1    2    0    0 -0.21334199975E+02 -0.24081696277E+01 -0.37718375347E+02  0.47787271799E+02  0.20000003442E+02 0.  0.
        -12    1    1    2    0    0  0.21334199975E+02  0.24081696277E+01  0.37718375347E+02  0.43400728201E+02  0.00000000000E+00 0.  1.
         11    1    3    3    0    0 -0.86451872206E+01 -0.78082986902E+01 -0.15658921806E+02  0.19516931698E+02  0.51100000000E-03 0. -1.
        -11    1    3    3    0    0 -0.71651167663E+01  0.86673466125E+01 -0.14634176711E+02  0.18455918396E+02  0.51100000000E-03 0.  1.
        -12    1    3    3    0    0 -0.55238959881E+01 -0.32672175499E+01 -0.74252768297E+01  0.98144217050E+01  0.00000000000E+00 0.  1.
</event>
<event>
 7    1  0.2714068E-010  0.4778727E+02  0.7816164E-02  0.1312668E+00
        -11   -1    0    0    0    0  0.00000000000E+00  0.00000000000E+00  0.45593999997E+02  0.45594000000E+02  0.51100000000E-03 0. -1.
         11   -1    0    0    0    0 -0.00000000000E+00 -0.00000000000E+00 -0.45593999997E+02  0.45594000000E+02  0.51100000000E-03 0.  1.
    9900012    2    1    2    0    0  0.18375170409E+01  0.20898254235E+02  0.37993547382E+02  0.47787272568E+02  0.20000006948E+02 0.  0.
        -12    1    1    2    0    0 -0.18375170409E+01 -0.20898254235E+02 -0.37993547382E+02  0.43400727432E+02  0.00000000000E+00 0.  1.
         11    1    3    3    0    0  0.78139677533E+00  0.18720842245E+01  0.14657399772E+01  0.25027333470E+01  0.51100000000E-03 0. -1.
        -11    1    3    3    0    0  0.42068368691E+01  0.10543534759E+02  0.48584888322E+01  0.12347814206E+02  0.51100000000E-03 0.  1.
        -12    1    3    3    0    0 -0.31507166035E+01  0.84826352514E+01  0.31669318572E+02  0.32936725016E+02  0.00000000000E+00 0.  1.
</event>
<event>
 7    1  0.2714068E-010  0.4778727E+02  0.7816164E-02  0.1312668E+00
        -11   -1    0    0    0    0  0.00000000000E+00  0.00000000000E+00  0.45593999997E+02  0.45594000000E+02  0.51100000000E-03 0.  1.
         11   -1    0    0    0    0 -0.00000000000E+00 -0.00000000000E+00 -0.45593999997E+02  0.45594000000E+02  0.51100000000E-03 0. -1.
    9900012    2    1    2    0    0  0.41419111150E+02  0.12553657153E+02  0.32382410474E+01  0.47787270957E+02  0.19999999603E+02 0.  0.
        -12    1    1    2    0    0 -0.41419111150E+02 -0.12553657153E+02 -0.32382410474E+01  0.43400729043E+02  0.00000000000E+00 0.  1.
         11    1    3    3    0    0  0.14880168471E+02  0.50307122195E+01 -0.53138166764E+01  0.16582042307E+02  0.51100000000E-03 0. -1.
        -11    1    3    3    0    0  0.16321447328E+01  0.11093656419E+01  0.48304881511E+01  0.52180652157E+01  0.51100000000E-03 0.  1.
         12    1    3    3    0    0  0.24906797947E+02  0.64135792912E+01  0.37215695727E+01  0.25987163434E+02  0.00000000000E+00 0. -1.
</event>
<event>
 7    1  0.2714068E-010  0.4778727E+02  0.7816164E-02  0.1312668E+00
        -11   -1    0    0    0    0  0.00000000000E+00  0.00000000000E+00  0.45593999997E+02  0.45594000000E+02  0.51100000000E-03 0.  1.
         11   -1    0    0    0    0 -0.00000000000E+00 -0.00000000000E+00 -0.45593999997E+02  0.45594000000E+02  0.51100000000E-03 0. -1.
    9900012    2    1    2    0    0  0.22627775841E+02  0.55457758460E+01 -0.36617638961E+02  0.47787270141E+02  0.19999995880E+02 0.  0.
        -12    1    1    2    0    0 -0.22627775841E+02 -0.55457758460E+01  0.36617638961E+02  0.43400729859E+02  0.00000000000E+00 0.  1.
         11    1    3    3    0    0  0.39718863243E+01 -0.12272057487E+01 -0.67039428482E+01  0.78882675472E+01  0.51100000000E-03 0. -1.
        -11    1    3    3    0    0  0.20934896542E+02  0.82285423920E+01 -0.21712870162E+02  0.31263837481E+02  0.51100000000E-03 0.  1.
        -12    1    3    3    0    0 -0.22790070250E+01 -0.14555607974E+01 -0.82008259502E+01  0.86351651125E+01  0.00000000000E+00 0.  1.
</event>
<event>
 7    1  0.2714068E-010  0.4778727E+02  0.7816164E-02  0.1312668E+00
        -11   -1    0    0    0    0  0.00000000000E+00  0.00000000000E+00  0.45593999997E+02  0.45594000000E+02  0.51100000000E-03 0.  1.
         11   -1    0    0    0    0 -0.00000000000E+00 -0.00000000000E+00 -0.45593999997E+02  0.45594000000E+02  0.51100000000E-03 0. -1.
    9900012    2    1    2    0    0 -0.34084225674E+02 -0.31421431241E+01 -0.26683622162E+02  0.47787271954E+02  0.20000004147E+02 0.  0.
        -12    1    1    2    0    0  0.34084225674E+02  0.31421431241E+01  0.26683622162E+02  0.43400728046E+02  0.00000000000E+00 0.  1.
         11    1    3    3    0    0 -0.26260217606E+02 -0.78726453401E+01 -0.22987185192E+02  0.35776923522E+02  0.51100000000E-03 0. -1.
        -11    1    3    3    0    0 -0.66415749034E+01  0.57697499620E+01 -0.48617673090E+01  0.10051731863E+02  0.51100000000E-03 0.  1.
         12    1    3    3    0    0 -0.11824331648E+01 -0.10392477460E+01  0.11653303388E+01  0.19586165692E+01  0.00000000000E+00 0. -1.
</event>
<event>
 7    1  0.2714068E-010  0.4778727E+02  0.7816164E-02  0.1312668E+00
        -11   -1    0    0    0    0  0.00000000000E+00  0.00000000000E+00  0.45593999997E+02  0.45594000000E+02  0.51100000000E-03 0. -1.
         11   -1    0    0    0    0 -0.00000000000E+00 -0.00000000000E+00 -0.45593999997E+02  0.45594000000E+02  0.51100000000E-03 0.  1.
    9900012    2    1    2    0    0  0.30364701531E+02  0.92643172056E+00  0.30995962936E+02  0.47787273127E+02  0.20000009495E+02 0.  0.
        -12    1    1    2    0    0 -0.30364701531E+02 -0.92643172056E+00 -0.30995962936E+02  0.43400726873E+02  0.00000000000E+00 0.  1.
         11    1    3    3    0    0  0.15614670279E+02  0.98347177637E+00  0.26929547176E+02  0.31144592726E+02  0.51100000000E-03 0. -1.
        -11    1    3    3    0    0  0.97639013987E+01  0.26891385702E+01  0.99938310917E+00  0.10176640096E+02  0.51100000000E-03 0.  1.
         12    1    3    3    0    0  0.49861298531E+01 -0.27461786260E+01  0.30670326501E+01  0.64660403057E+01  0.00000000000E+00 0. -1.
</event>
<event>
 7    1  0.2714068E-010  0.4778727E+02  0.7816164E-02  0.1312668E+00
        -11   -1    0    0    0    0  0.00000000000E+00  0.00000000000E+00  0.45593999997E+02  0.45594000000E+02  0.51100000000E-03 0.  1.
         11   -1    0    0    0    0 -0.00000000000E+00 -0.00000000000E+00 -0.45593999997E+02  0.45594000000E+02  0.51100000000E-03 0. -1.
    9900012    2    1    2    0    0 -0.14967680787E+02  0.31301092893E+02 -0.26073621891E+02  0.47787266793E+02  0.19999980614E+02 0.  0.
        -12    1    1    2    0    0  0.14967680787E+02 -0.31301092893E+02  0.26073621891E+02  0.43400733207E+02  0.00000000000E+00 0.  1.
         11    1    3    3    0    0 -0.20430737409E+01  0.39295974318E+01 -0.58738228326E+01  0.73564720632E+01  0.51100000000E-03 0. -1.
        -11    1    3    3    0    0 -0.13051824975E+02  0.28857725659E+02 -0.15043676607E+02  0.35063238178E+02  0.51100000000E-03 0.  1.
        -12    1    3    3    0    0  0.12721792911E+00 -0.14862301980E+01 -0.51561224511E+01  0.53675565516E+01  0.00000000000E+00 0.  1.
</event>
<event>
 7    1  0.2714068E-010  0.4778727E+02  0.7816164E-02  0.1312668E+00
        -11   -1    0    0    0    0  0.00000000000E+00  0.00000000000E+00  0.45593999997E+02  0.45594000000E+02  0.51100000000E-03 0.  1.
         11   -1    0    0    0    0 -0.00000000000E+00 -0.00000000000E+00 -0.45593999997E+02  0.45594000000E+02  0.51100000000E-03 0. -1.
    9900012    2    1    2    0    0 -0.13874271053E+02 -0.29206454312E+02 -0.28950147723E+02  0.47787269316E+02  0.19999992120E+02 0.  0.
        -12    1    1    2    0    0  0.13874271053E+02  0.29206454312E+02  0.28950147723E+02  0.43400730684E+02  0.00000000000E+00 0.  1.
         11    1    3    3    0    0 -0.79617852682E+01 -0.63991004027E+01 -0.15298655463E+02  0.18395308365E+02  0.51100000000E-03 0. -1.
        -11    1    3    3    0    0  0.17283884645E+01 -0.12175837600E+02 -0.33878240982E+01  0.12756006441E+02  0.51100000000E-03 0.  1.
         12    1    3    3    0    0 -0.76408742490E+01 -0.10631516309E+02 -0.10263668162E+02  0.16635954510E+02  0.00000000000E+00 0. -1.
</event>
<event>
 7    1  0.2714068E-010  0.4778727E+02  0.7816164E-02  0.1312668E+00
        -11   -1    0    0    0    0  0.00000000000E+00  0.00000000000E+00  0.45593999997E+02  0.45594000000E+02  0.51100000000E-03 0.  1.
         11   -1    0    0    0    0 -0.00000000000E+00 -0.00000000000E+00 -0.45593999997E+02  0.45594000000E+02  0.51100000000E-03 0. -1.
    9900012    2    1    2    0    0  0.15318784012E+02  0.39366976223E+02  0.99598901943E+01  0.47787269900E+02  0.19999994782E+02 0.  0.
        -12    1    1    2    0    0 -0.15318784012E+02 -0.39366976223E+02 -0.99598901943E+01  0.43400730100E+02  0.00000000000E+00 0.  1.
         11    1    3    3    0    0  0.11749068133E+02  0.30906996373E+02  0.53453823236E+00  0.33069151156E+02  0.51100000000E-03 0. -1.
        -11    1    3    3    0    0  0.49739406885E+01  0.78855350135E+01  0.93425614278E+01  0.13198681855E+02  0.51100000000E-03 0.  1.
         12    1    3    3    0    0 -0.14042248097E+01  0.57444483614E+00  0.82790534079E-01  0.15194368886E+01  0.00000000000E+00 0. -1.
</event>
<event>
 7    1  0.2714068E-010  0.4778728E+02  0.7816164E-02  0.1312668E+00
        -11   -1    0    0    0    0  0.00000000000E+00  0.00000000000E+00  0.45593999997E+02  0.45594000000E+02  0.51100000000E-03 0.  1.
         11   -1    0    0    0    0 -0.00000000000E+00 -0.00000000000E+00 -0.45593999997E+02  0.45594000000E+02  0.51100000000E-03 0. -1.
    9900012    2    1    2    0    0  0.11350964200E+02  0.30981382435E+02 -0.28194546438E+02  0.47787275412E+02  0.20000019916E+02 0.  0.
        -12    1    1    2    0    0 -0.11350964200E+02 -0.30981382435E+02  0.28194546438E+02  0.43400724588E+02  0.00000000000E+00 0.  1.
         11    1    3    3    0    0  0.41753421540E+01  0.23110461092E+02 -0.17345136005E+02  0.29195558520E+02  0.51100000000E-03 0. -1.
        -11    1    3    3    0    0  0.43324814362E+01 -0.97522337969E+00 -0.74971185621E+01  0.87136813708E+01  0.51100000000E-03 0.  1.
        -12    1    3    3    0    0  0.28431406099E+01  0.88461447224E+01 -0.33522918709E+01  0.98780355216E+01  0.00000000000E+00 0.  1.
</event>
<event>
 7    1  0.2714068E-010  0.4778727E+02  0.7816164E-02  0.1312668E+00
        -11   -1    0    0    0    0  0.00000000000E+00  0.00000000000E+00  0.45593999997E+02  0.45594000000E+02  0.51100000000E-03 0. -1.
         11   -1    0    0    0    0 -0.00000000000E+00 -0.00000000000E+00 -0.45593999997E+02  0.45594000000E+02  0.51100000000E-03 0.  1.
    9900012    2    1    2    0    0 -0.11396990289E+02 -0.34928385754E+02  0.23102808898E+02  0.47787270767E+02  0.19999998734E+02 0.  0.
        -12    1    1    2    0    0  0.11396990289E+02  0.34928385754E+02 -0.23102808898E+02  0.43400729233E+02  0.00000000000E+00 0.  1.
         11    1    3    3    0    0 -0.97072015301E+01 -0.21563937718E+02  0.76939265490E+01  0.24868246368E+02  0.51100000000E-03 0. -1.
        -11    1    3    3    0    0  0.40568338508E+01 -0.65113256063E+01  0.48273291394E+01  0.90641253812E+01  0.51100000000E-03 0.  1.
         12    1    3    3    0    0 -0.57466226099E+01 -0.68531224297E+01  0.10581553209E+02  0.13854899017E+02  0.00000000000E+00 0. -1.
</event>
<event>
 7    1  0.2714068E-010  0.4778727E+02  0.7816164E-02  0.1312668E+00
        -11   -1    0    0    0    0  0.00000000000E+00  0.00000000000E+00  0.45593999997E+02  0.45594000000E+02  0.51100000000E-03 0.  1.
         11   -1    0    0    0    0 -0.00000000000E+00 -0.00000000000E+00 -0.45593999997E+02  0.45594000000E+02  0.51100000000E-03 0. -1.
    9900012    2    1    2    0    0  0.36468024405E+02 -0.13996148383E+02 -0.18915981140E+02  0.47787270558E+02  0.19999997783E+02 0.  0.
        -12    1    1    2    0    0 -0.36468024405E+02  0.13996148383E+02  0.18915981140E+02  0.43400729442E+02  0.00000000000E+00 0.  1.
         11    1    3    3    0    0  0.25062612567E+02 -0.88087608708E+01 -0.28296042824E+01  0.26715828218E+02  0.51100000000E-03 0. -1.
        -11    1    3    3    0    0  0.25610397869E+01 -0.34705115237E+01 -0.73479853798E+01  0.85203441497E+01  0.51100000000E-03 0.  1.
         12    1    3    3    0    0  0.88443720517E+01 -0.17168759890E+01 -0.87383914780E+01  0.12551098190E+02  0.00000000000E+00 0. -1.
</event>
<event>
 7    1  0.2714068E-010  0.4778727E+02  0.7816164E-02  0.1312668E+00
        -11   -1    0    0    0    0  0.00000000000E+00  0.00000000000E+00  0.45593999997E+02  0.45594000000E+02  0.51100000000E-03 0.  1.
         11   -1    0    0    0    0 -0.00000000000E+00 -0.00000000000E+00 -0.45593999997E+02  0.45594000000E+02  0.51100000000E-03 0. -1.
    9900012    2    1    2    0    0  0.16403743091E+02  0.40155982599E+02  0.14274255627E+01  0.47787271094E+02  0.20000000225E+02 0.  0.
        -12    1    1    2    0    0 -0.16403743091E+02 -0.40155982599E+02 -0.14274255627E+01  0.43400728906E+02  0.00000000000E+00 0.  1.
         11    1    3    3    0    0  0.46206048564E+01  0.46595564342E+01  0.12889656102E+01  0.66875173277E+01  0.51100000000E-03 0. -1.
        -11    1    3    3    0    0  0.10269258954E+02  0.34302855259E+02 -0.44884917422E+01  0.36087256986E+02  0.51100000000E-03 0.  1.
        -12    1    3    3    0    0  0.15138792804E+01  0.11935709049E+01  0.46269516947E+01  0.50124967796E+01  0.00000000000E+00 0.  1.
</event>
<event>
 7    1  0.2714068E-010  0.4778728E+02  0.7816164E-02  0.1312668E+00
        -11   -1    0    0    0    0  0.00000000000E+00  0.00000000000E+00  0.45593999997E+02  0.45594000000E+02  0.51100000000E-03 0. -1.
         11   -1    0    0    0    0 -0.00000000000E+00 -0.00000000000E+00 -0.45593999997E+02  0.45594000000E+02  0.51100000000E-03 0.  1.
    9900012    2    1    2    0    0 -0.26091543821E+02  0.17455052747E+02  0.29969561463E+02  0.47787284111E+02  0.20000059577E+02 0.  0.
        -12    1    1    2    0    0  0.26091543821E+02 -0.17455052747E+02 -0.29969561463E+02  0.43400715889E+02  0.00000000000E+00 0.  1.
         11    1    3    3    0    0 -0.14085576664E+02  0.13510206174E+02  0.18210418900E+02  0.26693604058E+02  0.51100000000E-03 0. -1.
        -11    1    3    3    0    0  0.24452470740E+01  0.11816581241E+01  0.26180815541E+01  0.37722540291E+01  0.51100000000E-03 0.  1.
        -12    1    3    3    0    0 -0.14451214230E+02  0.27631884491E+01  0.91410610094E+01  0.17321426024E+02  0.00000000000E+00 0.  1.
</event>
<event>
 7    1  0.2714068E-010  0.4778729E+02  0.7816164E-02  0.1312668E+00
        -11   -1    0    0    0    0  0.00000000000E+00  0.00000000000E+00  0.45593999997E+02  0.45594000000E+02  0.51100000000E-03 0. -1.
         11   -1    0    0    0    0 -0.00000000000E+00 -0.00000000000E+00 -0.45593999997E+02  0.45594000000E+02  0.51100000000E-03 0.  1.
    9900012    2    1    2    0    0  0.32785496638E+02 -0.81514991686E+00  0.28426541579E+02  0.47787291189E+02  0.20000091847E+02 0.  0.
        -12    1    1    2    0    0 -0.32785496638E+02  0.81514991686E+00 -0.28426541579E+02  0.43400708811E+02  0.00000000000E+00 0.  1.
         11    1    3    3    0    0  0.83759534452E+01  0.10979017836E+01 -0.41005970310E+00  0.84575489159E+01  0.51100000000E-03 0. -1.
        -11    1    3    3    0    0  0.75472259055E+01 -0.47762115687E+01  0.58453068049E+01  0.10674288160E+02  0.51100000000E-03 0.  1.
         12    1    3    3    0    0  0.16862317287E+02  0.28631598682E+01  0.22991294477E+02  0.28655454113E+02  0.00000000000E+00 0. -1.
</event>
<event>
 7    1  0.2714068E-010  0.4778727E+02  0.7816164E-02  0.1312668E+00
        -11   -1    0    0    0    0  0.00000000000E+00  0.00000000000E+00  0.45593999997E+02  0.45594000000E+02  0.51100000000E-03 0. -1.
         11   -1    0    0    0    0 -0.00000000000E+00 -0.00000000000E+00 -0.45593999997E+02  0.45594000000E+02  0.51100000000E-03 0.  1.
    9900012    2    1    2    0    0  0.67796527544E+00  0.32729982779E+02  0.28494061560E+02  0.47787274732E+02  0.20000016813E+02 0.  0.
        -12    1    1    2    0    0 -0.67796527544E+00 -0.32729982779E+02 -0.28494061560E+02  0.43400725268E+02  0.00000000000E+00 0.  1.
         11    1    3    3    0    0  0.10927330427E+01  0.12217374745E+02  0.61456205578E+01  0.13719583210E+02  0.51100000000E-03 0. -1.
        -11    1    3    3    0    0  0.38208032517E+01  0.25756328799E+01 -0.58660717996E+00  0.46450544093E+01  0.51100000000E-03 0.  1.
        -12    1    3    3    0    0 -0.42355710190E+01  0.17936975154E+02  0.22935048182E+02  0.29422637112E+02  0.00000000000E+00 0.  1.
</event>
<event>
 7    1  0.2714068E-010  0.4778728E+02  0.7816164E-02  0.1312668E+00
        -11   -1    0    0    0    0  0.00000000000E+00  0.00000000000E+00  0.45593999997E+02  0.45594000000E+02  0.51100000000E-03 0.  1.
         11   -1    0    0    0    0 -0.00000000000E+00 -0.00000000000E+00 -0.45593999997E+02  0.45594000000E+02  0.51100000000E-03 0. -1.
    9900012    2    1    2    0    0  0.27977969296E+01 -0.18732698498E+02 -0.39049724382E+02  0.47787278405E+02  0.20000033558E+02 0.  0.
        -12    1    1    2    0    0 -0.27977969296E+01  0.18732698498E+02  0.39049724382E+02  0.43400721595E+02  0.00000000000E+00 0.  1.
         11    1    3    3    0    0 -0.26351803132E+01 -0.63297506270E+01 -0.17532208877E+02  0.18825202964E+02  0.51100000000E-03 0. -1.
        -11    1    3    3    0    0  0.48837803193E+01 -0.14502428099E+02 -0.12714403111E+02  0.19895421024E+02  0.51100000000E-03 0.  1.
        -12    1    3    3    0    0  0.54919692351E+00  0.20994802279E+01 -0.88031123943E+01  0.90666544169E+01  0.00000000000E+00 0.  1.
</event>
<event>
 7    1  0.2714068E-010  0.4778727E+02  0.7816164E-02  0.1312668E+00
        -11   -1    0    0    0    0  0.00000000000E+00  0.00000000000E+00  0.45593999997E+02  0.45594000000E+02  0.51100000000E-03 0. -1.
         11   -1    0    0    0    0 -0.00000000000E+00 -0.00000000000E+00 -0.45593999997E+02  0.45594000000E+02  0.51100000000E-03 0.  1.
    9900012    2    1    2    0    0  0.16868992738E+02  0.20140050695E+02  0.34546180271E+02  0.47787272710E+02  0.20000007594E+02 0.  0.
        -12    1    1    2    0    0 -0.16868992738E+02 -0.20140050695E+02 -0.34546180271E+02  0.43400727290E+02  0.00000000000E+00 0.  1.
         11    1    3    3    0    0  0.15773309495E+02  0.20111421197E+02  0.21002190440E+02  0.33081090649E+02  0.51100000000E-03 0. -1.
        -11    1    3    3    0    0  0.61039122238E+00 -0.20077262918E+01  0.17632956433E+01  0.27409403667E+01  0.51100000000E-03 0.  1.
         12    1    3    3    0    0  0.48529202028E+00  0.20363557893E+01  0.11780694188E+02  0.11965241694E+02  0.00000000000E+00 0. -1.
</event>
<event>
 7    1  0.2714068E-010  0.4778728E+02  0.7816164E-02  0.1312668E+00
        -11   -1    0    0    0    0  0.00000000000E+00  0.00000000000E+00  0.45593999997E+02  0.45594000000E+02  0.51100000000E-03 0.  1.
         11   -1    0    0    0    0 -0.00000000000E+00 -0.00000000000E+00 -0.45593999997E+02  0.45594000000E+02  0.51100000000E-03 0. -1.
    9900012    2    1    2    0    0  0.99431351748E+01  0.39645286679E+02 -0.14594785558E+02  0.47787280439E+02  0.20000042834E+02 0.  0.
        -12    1    1    2    0    0 -0.99431351748E+01 -0.39645286679E+02  0.14594785558E+02  0.43400719561E+02  0.00000000000E+00 0.  1.
         11    1    3    3    0    0 -0.38498712508E+00  0.31708470530E+01  0.23567673098E+01  0.39694884473E+01  0.51100000000E-03 0. -1.
        -11    1    3    3    0    0  0.11926287989E+02  0.16499479829E+02 -0.89968921478E+01  0.22257880591E+02  0.51100000000E-03 0.  1.
        -12    1    3    3    0    0 -0.15981656892E+01  0.19974959797E+02 -0.79546607195E+01  0.21559911401E+02  0.00000000000E+00 0.  1.
</event>
<event>
 7    1  0.2714068E-010  0.4778722E+02  0.7816164E-02  0.1312668E+00
        -11   -1    0    0    0    0  0.00000000000E+00  0.00000000000E+00  0.45593999997E+02  0.45594000000E+02  0.51100000000E-03 0.  1.
         11   -1    0    0    0    0 -0.00000000000E+00 -0.00000000000E+00 -0.45593999997E+02  0.45594000000E+02  0.51100000000E-03 0. -1.
    9900012    2    1    2    0    0 -0.26147066672E+02  0.26526635464E+02 -0.22277715681E+02  0.47787215439E+02  0.19999746469E+02 0.  0.
        -12    1    1    2    0    0  0.26147066672E+02 -0.26526635464E+02  0.22277715681E+02  0.43400784561E+02  0.00000000000E+00 0.  1.
         11    1    3    3    0    0 -0.75958071277E+01  0.83896946901E+01 -0.66286036232E+01  0.13115702389E+02  0.51100000000E-03 0. -1.
        -11    1    3    3    0    0 -0.51556434319E+01  0.69360163967E+01 -0.14862257528E+02  0.17192314612E+02  0.51100000000E-03 0.  1.
        -12    1    3    3    0    0 -0.13395616112E+02  0.11200924378E+02 -0.78685452990E+00  0.17479198437E+02  0.00000000000E+00 0.  1.
</event>
<event>
 7    1  0.2714068E-010  0.4778727E+02  0.7816164E-02  0.1312668E+00
        -11   -1    0    0    0    0  0.00000000000E+00  0.00000000000E+00  0.45593999997E+02  0.45594000000E+02  0.51100000000E-03 0.  1.
         11   -1    0    0    0    0 -0.00000000000E+00 -0.00000000000E+00 -0.45593999997E+02  0.45594000000E+02  0.51100000000E-03 0. -1.
    9900012    2    1    2    0    0 -0.26250033113E+01 -0.21825826817E+02 -0.37421461666E+02  0.47787272451E+02  0.20000006411E+02 0.  0.
        -12    1    1    2    0    0  0.26250033113E+01  0.21825826817E+02  0.37421461666E+02  0.43400727549E+02  0.00000000000E+00 0.  1.
         11    1    3    3    0    0 -0.48407582910E+01 -0.10989318922E+02 -0.23493520314E+02  0.26384532746E+02  0.51100000000E-03 0. -1.
        -11    1    3    3    0    0 -0.56133563546E+00 -0.36582629410E+01  0.16307269820E+01  0.40444104875E+01  0.51100000000E-03 0.  1.
        -12    1    3    3    0    0  0.27770906152E+01 -0.71782449541E+01 -0.15558668333E+02  0.17358329217E+02  0.00000000000E+00 0.  1.
</event>
<event>
 7    1  0.2714068E-010  0.4778727E+02  0.7816164E-02  0.1312668E+00
        -11   -1    0    0    0    0  0.00000000000E+00  0.00000000000E+00  0.45593999997E+02  0.45594000000E+02  0.51100000000E-03 0.  1.
         11   -1    0    0    0    0 -0.00000000000E+00 -0.00000000000E+00 -0.45593999997E+02  0.45594000000E+02  0.51100000000E-03 0. -1.
    9900012    2    1    2    0    0 -0.18865257537E+02  0.25361459136E+02 -0.29740907422E+02  0.47787272751E+02  0.20000007781E+02 0.  0.
        -12    1    1    2    0    0  0.18865257537E+02 -0.25361459136E+02  0.29740907422E+02  0.43400727249E+02  0.00000000000E+00 0.  1.
         11    1    3    3    0    0 -0.37357939927E+01  0.54476042209E+01 -0.72388588514E+01  0.97996748026E+01  0.51100000000E-03 0. -1.
        -11    1    3    3    0    0 -0.14171487496E+02  0.10060781270E+02 -0.53512104713E+01  0.18184769214E+02  0.51100000000E-03 0.  1.
        -12    1    3    3    0    0 -0.95797604818E+00  0.98530736458E+01 -0.17150838099E+02  0.19802828735E+02  0.00000000000E+00 0.  1.
</event>
<event>
 7    1  0.2714068E-010  0.4778727E+02  0.7816164E-02  0.1312668E+00
        -11   -1    0    0    0    0  0.00000000000E+00  0.00000000000E+00  0.45593999997E+02  0.45594000000E+02  0.51100000000E-03 0.  1.
         11   -1    0    0    0    0 -0.00000000000E+00 -0.00000000000E+00 -0.45593999997E+02  0.45594000000E+02  0.51100000000E-03 0. -1.
    9900012    2    1    2    0    0 -0.20819233475E+02  0.36693336413E+02 -0.10187331643E+02  0.47787272522E+02  0.20000006737E+02 0.  0.
        -12    1    1    2    0    0  0.20819233475E+02 -0.36693336413E+02  0.10187331643E+02  0.43400727478E+02  0.00000000000E+00 0.  1.
         11    1    3    3    0    0 -0.17613835958E+02  0.32522848586E+02 -0.10906651149E+02  0.38560834235E+02  0.51100000000E-03 0. -1.
        -11    1    3    3    0    0 -0.29402925340E+01  0.19650989084E+01  0.39525349739E+01  0.53037219843E+01  0.51100000000E-03 0.  1.
         12    1    3    3    0    0 -0.26510498300E+00  0.22053889183E+01 -0.32332154678E+01  0.39227163030E+01  0.00000000000E+00 0. -1.
</event>
<event>
 7    1  0.2714068E-010  0.4778724E+02  0.7816164E-02  0.1312668E+00
        -11   -1    0    0    0    0  0.00000000000E+00  0.00000000000E+00  0.45593999997E+02  0.45594000000E+02  0.51100000000E-03 0.  1.
         11   -1    0    0    0    0 -0.00000000000E+00 -0.00000000000E+00 -0.45593999997E+02  0.45594000000E+02  0.51100000000E-03 0. -1.
    9900012    2    1    2    0    0 -0.41628482241E+02  0.11823501825E+02 -0.33015645605E+01  0.47787238974E+02  0.19999853778E+02 0.  0.
        -12    1    1    2    0    0  0.41628482241E+02 -0.11823501825E+02  0.33015645605E+01  0.43400761026E+02  0.00000000000E+00 0.  1.
         11    1    3    3    0    0 -0.25569040851E+01 -0.30485232561E+01 -0.56396353276E-01  0.39792503506E+01  0.51100000000E-03 0. -1.
        -11    1    3    3    0    0 -0.35502573260E+02  0.15048176161E+02 -0.63435839852E+01  0.39078400324E+02  0.51100000000E-03 0.  1.
        -12    1    3    3    0    0 -0.35690048957E+01 -0.17615107995E+00  0.30984157780E+01  0.47295882994E+01  0.00000000000E+00 0.  1.
</event>
<event>
 7    1  0.2714068E-010  0.4778727E+02  0.7816164E-02  0.1312668E+00
        -11   -1    0    0    0    0  0.00000000000E+00  0.00000000000E+00  0.45593999997E+02  0.45594000000E+02  0.51100000000E-03 0.  1.
         11   -1    0    0    0    0 -0.00000000000E+00 -0.00000000000E+00 -0.45593999997E+02  0.45594000000E+02  0.51100000000E-03 0. -1.
    9900012    2    1    2    0    0 -0.26794947602E+02  0.11435469968E+01 -0.34122517561E+02  0.47787272801E+02  0.20000008009E+02 0.  0.
        -12    1    1    2    0    0  0.26794947602E+02 -0.11435469968E+01  0.34122517561E+02  0.43400727199E+02  0.00000000000E+00 0.  1.
         11    1    3    3    0    0 -0.28928416169E+02  0.15037200703E+01 -0.32685086836E+02  0.43674126641E+02  0.51100000000E-03 0. -1.
        -11    1    3    3    0    0  0.65193261247E+00 -0.92260476567E+00 -0.21086139486E+01  0.23921682069E+01  0.51100000000E-03 0.  1.
         12    1    3    3    0    0  0.14815359551E+01  0.56243169211E+00  0.67118322394E+00  0.17209779530E+01  0.00000000000E+00 0. -1.
</event>
<event>
 7    1  0.2714068E-010  0.4778727E+02  0.7816164E-02  0.1312668E+00
        -11   -1    0    0    0    0  0.00000000000E+00  0.00000000000E+00  0.45593999997E+02  0.45594000000E+02  0.51100000000E-03 0. -1.
         11   -1    0    0    0    0 -0.00000000000E+00 -0.00000000000E+00 -0.45593999997E+02  0.45594000000E+02  0.51100000000E-03 0.  1.
    9900012    2    1    2    0    0  0.43487877902E+01  0.40683916022E+02 -0.14475167528E+02  0.47787268980E+02  0.19999990587E+02 0.  0.
        -12    1    1    2    0    0 -0.43487877902E+01 -0.40683916022E+02  0.14475167528E+02  0.43400731020E+02  0.00000000000E+00 0.  1.
         11    1    3    3    0    0 -0.19612896852E+01  0.16049153969E+02  0.55078656254E+00  0.16177928373E+02  0.51100000000E-03 0. -1.
        -11    1    3    3    0    0  0.84780196838E+01  0.11538882684E+02 -0.97613264812E+01  0.17329342927E+02  0.51100000000E-03 0.  1.
        -12    1    3    3    0    0 -0.21679422083E+01  0.13095879369E+02 -0.52646276093E+01  0.14279997679E+02  0.00000000000E+00 0.  1.
</event>
<event>
 7    1  0.2714068E-010  0.4778727E+02  0.7816164E-02  0.1312668E+00
        -11   -1    0    0    0    0  0.00000000000E+00  0.00000000000E+00  0.45593999997E+02  0.45594000000E+02  0.51100000000E-03 0.  1.
         11   -1    0    0    0    0 -0.00000000000E+00 -0.00000000000E+00 -0.45593999997E+02  0.45594000000E+02  0.51100000000E-03 0. -1.
    9900012    2    1    2    0    0  0.18730046826E+02  0.16153808226E+02 -0.35663191985E+02  0.47787269166E+02  0.19999991437E+02 0.  0.
        -12    1    1    2    0    0 -0.18730046826E+02 -0.16153808226E+02  0.35663191985E+02  0.43400730834E+02  0.00000000000E+00 0.  1.
         11    1    3    3    0    0  0.90467722712E+01  0.29791638307E+01 -0.18737631342E+02  0.21019475117E+02  0.51100000000E-03 0. -1.
        -11    1    3    3    0    0  0.20238080819E+01  0.11109127720E+02 -0.47823650669E+01  0.12262933326E+02  0.51100000000E-03 0.  1.
        -12    1    3    3    0    0  0.76594664731E+01  0.20655166754E+01 -0.12143195577E+02  0.14504860723E+02  0.00000000000E+00 0.  1.
</event>
<event>
 7    1  0.2714068E-010  0.4778728E+02  0.7816164E-02  0.1312668E+00
        -11   -1    0    0    0    0  0.00000000000E+00  0.00000000000E+00  0.45593999997E+02  0.45594000000E+02  0.51100000000E-03 0.  1.
         11   -1    0    0    0    0 -0.00000000000E+00 -0.00000000000E+00 -0.45593999997E+02  0.45594000000E+02  0.51100000000E-03 0. -1.
    9900012    2    1    2    0    0 -0.21459904407E+01  0.64987069189E+01 -0.42857721362E+02  0.47787277115E+02  0.20000027678E+02 0.  0.
        -12    1    1    2    0    0  0.21459904407E+01 -0.64987069189E+01  0.42857721362E+02  0.43400722885E+02  0.00000000000E+00 0.  1.
         11    1    3    3    0    0 -0.14046694101E+01  0.10248742935E+01 -0.28101727053E+02  0.28155470642E+02  0.51100000000E-03 0. -1.
        -11    1    3    3    0    0 -0.15949436084E+01  0.29501680643E+01  0.11185058622E+01  0.35353065420E+01  0.51100000000E-03 0.  1.
        -12    1    3    3    0    0  0.85362257775E+00  0.25236645611E+01 -0.15874500171E+02  0.16096499931E+02  0.00000000000E+00 0.  1.
</event>
<event>
 7    1  0.2714068E-010  0.4778727E+02  0.7816164E-02  0.1312668E+00
        -11   -1    0    0    0    0  0.00000000000E+00  0.00000000000E+00  0.45593999997E+02  0.45594000000E+02  0.51100000000E-03 0. -1.
         11   -1    0    0    0    0 -0.00000000000E+00 -0.00000000000E+00 -0.45593999997E+02  0.45594000000E+02  0.51100000000E-03 0.  1.
    9900012    2    1    2    0    0 -0.37115634425E+02  0.20345301286E+02  0.95980117003E+01  0.47787269225E+02  0.19999991705E+02 0.  0.
        -12    1    1    2    0    0  0.37115634425E+02 -0.20345301286E+02 -0.95980117003E+01  0.43400730775E+02  0.00000000000E+00 0.  1.
         11    1    3    3    0    0 -0.35180550810E+02  0.19671629918E+02  0.60360084861E+01  0.40756319481E+02  0.51100000000E-03 0. -1.
        -11    1    3    3    0    0 -0.23505043249E+01 -0.14882973067E+01  0.39134442860E+01  0.48015566116E+01  0.51100000000E-03 0.  1.
         12    1    3    3    0    0  0.41542070924E+00  0.21619686739E+01 -0.35144107171E+00  0.22293931325E+01  0.00000000000E+00 0. -1.
</event>
<event>
 7    1  0.2714068E-010  0.4778728E+02  0.7816164E-02  0.1312668E+00
        -11   -1    0    0    0    0  0.00000000000E+00  0.00000000000E+00  0.45593999997E+02  0.45594000000E+02  0.51100000000E-03 0. -1.
         11   -1    0    0    0    0 -0.00000000000E+00 -0.00000000000E+00 -0.45593999997E+02  0.45594000000E+02  0.51100000000E-03 0.  1.
    9900012    2    1    2    0    0 -0.20319595339E+02  0.97373730020E+01  0.37093400844E+02  0.47787276805E+02  0.20000026263E+02 0.  0.
        -12    1    1    2    0    0  0.20319595339E+02 -0.97373730020E+01 -0.37093400844E+02  0.43400723195E+02  0.00000000000E+00 0.  1.
         11    1    3    3    0    0 -0.30956383809E+01  0.54072438686E+01  0.43555315862E+01  0.76020996376E+01  0.51100000000E-03 0. -1.
        -11    1    3    3    0    0 -0.13442993891E+02 -0.19622347757E+01  0.11789107674E+02  0.17987426444E+02  0.51100000000E-03 0.  1.
        -12    1    3    3    0    0 -0.37809630673E+01  0.62923639091E+01  0.20948761583E+02  0.22197750723E+02  0.00000000000E+00 0.  1.
</event>
<event>
 7    1  0.2714068E-010  0.4778727E+02  0.7816164E-02  0.1312668E+00
        -11   -1    0    0    0    0  0.00000000000E+00  0.00000000000E+00  0.45593999997E+02  0.45594000000E+02  0.51100000000E-03 0. -1.
         11   -1    0    0    0    0 -0.00000000000E+00 -0.00000000000E+00 -0.45593999997E+02  0.45594000000E+02  0.51100000000E-03 0.  1.
    9900012    2    1    2    0    0 -0.28378100989E+02 -0.23291057427E+02  0.23148072025E+02  0.47787271777E+02  0.20000003340E+02 0.  0.
        -12    1    1    2    0    0  0.28378100989E+02  0.23291057427E+02 -0.23148072025E+02  0.43400728223E+02  0.00000000000E+00 0.  1.
         11    1    3    3    0    0 -0.27055158081E+02 -0.18818468476E+02  0.14846169365E+02  0.36145886068E+02  0.51100000000E-03 0. -1.
        -11    1    3    3    0    0 -0.27806806960E+01 -0.21543102249E+01  0.81753274170E+01  0.88999559726E+01  0.51100000000E-03 0.  1.
        -12    1    3    3    0    0  0.14577377875E+01 -0.23182787261E+01  0.12657524310E+00  0.27414297367E+01  0.00000000000E+00 0.  1.
</event>
<event>
 7    1  0.2714068E-010  0.4778727E+02  0.7816164E-02  0.1312668E+00
        -11   -1    0    0    0    0  0.00000000000E+00  0.00000000000E+00  0.45593999997E+02  0.45594000000E+02  0.51100000000E-03 0.  1.
         11   -1    0    0    0    0 -0.00000000000E+00 -0.00000000000E+00 -0.45593999997E+02  0.45594000000E+02  0.51100000000E-03 0. -1.
    9900012    2    1    2    0    0  0.13012898884E+02  0.67759805920E+01 -0.40845732889E+02  0.47787270218E+02  0.19999996232E+02 0.  0.
        -12    1    1    2    0    0 -0.13012898884E+02 -0.67759805920E+01  0.40845732889E+02  0.43400729782E+02  0.00000000000E+00 0.  1.
         11    1    3    3    0    0  0.43235041555E+01 -0.40166555560E+01 -0.22013481883E+02  0.22790778726E+02  0.51100000000E-03 0. -1.
        -11    1    3    3    0    0  0.41165672662E+01 -0.59480006932E+00 -0.50711461478E+01  0.65586916906E+01  0.51100000000E-03 0.  1.
         12    1    3    3    0    0  0.45728274627E+01  0.11387436217E+02 -0.13761104858E+02  0.18437799801E+02  0.00000000000E+00 0. -1.
</event>
<event>
 7    1  0.2714068E-010  0.4778727E+02  0.7816164E-02  0.1312668E+00
        -11   -1    0    0    0    0  0.00000000000E+00  0.00000000000E+00  0.45593999997E+02  0.45594000000E+02  0.51100000000E-03 0.  1.
         11   -1    0    0    0    0 -0.00000000000E+00 -0.00000000000E+00 -0.45593999997E+02  0.45594000000E+02  0.51100000000E-03 0. -1.
    9900012    2    1    2    0    0  0.25259644422E+02 -0.34220137586E+02 -0.86345773725E+01  0.47787269832E+02  0.19999994471E+02 0.  0.
        -12    1    1    2    0    0 -0.25259644422E+02  0.34220137586E+02  0.86345773725E+01  0.43400730168E+02  0.00000000000E+00 0.  1.
         11    1    3    3    0    0  0.17678567252E+02 -0.11669061805E+02 -0.48887968210E+01  0.21739344012E+02  0.51100000000E-03 0. -1.
        -11    1    3    3    0    0  0.24292993799E+01 -0.67077698431E-01 -0.15376247612E+01  0.28758103314E+01  0.51100000000E-03 0.  1.
         12    1    3    3    0    0  0.51517777903E+01 -0.22483998083E+02 -0.22081557903E+01  0.23172115488E+02  0.00000000000E+00 0. -1.
</event>
<event>
 7    1  0.2714068E-010  0.4778727E+02  0.7816164E-02  0.1312668E+00
        -11   -1    0    0    0    0  0.00000000000E+00  0.00000000000E+00  0.45593999997E+02  0.45594000000E+02  0.51100000000E-03 0.  1.
         11   -1    0    0    0    0 -0.00000000000E+00 -0.00000000000E+00 -0.45593999997E+02  0.45594000000E+02  0.51100000000E-03 0. -1.
    9900012    2    1    2    0    0  0.38417056861E+02 -0.18153594457E+02 -0.88430608782E+01  0.47787274484E+02  0.20000015683E+02 0.  0.
        -12    1    1    2    0    0 -0.38417056861E+02  0.18153594457E+02  0.88430608782E+01  0.43400725516E+02  0.00000000000E+00 0.  1.
         11    1    3    3    0    0  0.12750944608E+02 -0.27154619480E+01 -0.73122683995E+01  0.14947561386E+02  0.51100000000E-03 0. -1.
        -11    1    3    3    0    0  0.55210428220E+01 -0.10721108453E+02  0.35152257814E+00  0.12064313022E+02  0.51100000000E-03 0.  1.
        -12    1    3    3    0    0  0.20145069431E+02 -0.47170240564E+01 -0.18823150568E+01  0.20775400076E+02  0.00000000000E+00 0.  1.
</event>
<event>
 7    1  0.2714068E-010  0.4778727E+02  0.7816164E-02  0.1312668E+00
        -11   -1    0    0    0    0  0.00000000000E+00  0.00000000000E+00  0.45593999997E+02  0.45594000000E+02  0.51100000000E-03 0. -1.
         11   -1    0    0    0    0 -0.00000000000E+00 -0.00000000000E+00 -0.45593999997E+02  0.45594000000E+02  0.51100000000E-03 0.  1.
    9900012    2    1    2    0    0 -0.15093549610E+02  0.34713750586E+02 -0.21231197630E+02  0.47787268757E+02  0.19999989571E+02 0.  0.
        -12    1    1    2    0    0  0.15093549610E+02 -0.34713750586E+02  0.21231197630E+02  0.43400731243E+02  0.00000000000E+00 0.  1.
         11    1    3    3    0    0 -0.11868309060E+02  0.79360177799E+01 -0.71959392421E+01  0.15988079309E+02  0.51100000000E-03 0. -1.
        -11    1    3    3    0    0 -0.39969781094E+01  0.20085638705E+02 -0.60550597713E+01  0.21355853186E+02  0.51100000000E-03 0.  1.
        -12    1    3    3    0    0  0.77173755936E+00  0.66920941015E+01 -0.79801986168E+01  0.10443336262E+02  0.00000000000E+00 0.  1.
</event>
<event>
 7    1  0.2714068E-010  0.4778728E+02  0.7816164E-02  0.1312668E+00
        -11   -1    0    0    0    0  0.00000000000E+00  0.00000000000E+00  0.45593999997E+02  0.45594000000E+02  0.51100000000E-03 0. -1.
         11   -1    0    0    0    0 -0.00000000000E+00 -0.00000000000E+00 -0.45593999997E+02  0.45594000000E+02  0.51100000000E-03 0.  1.
    9900012    2    1    2    0    0 -0.25797439074E+02  0.32367072457E+02  0.13057084357E+02  0.47787277723E+02  0.20000030451E+02 0.  0.
        -12    1    1    2    0    0  0.25797439074E+02 -0.32367072457E+02 -0.13057084357E+02  0.43400722277E+02  0.00000000000E+00 0.  1.
         11    1    3    3    0    0 -0.26474936698E+02  0.29643128285E+02  0.11278253725E+02  0.41313875817E+02  0.51100000000E-03 0. -1.
        -11    1    3    3    0    0  0.18149734416E+01  0.39527967954E+01  0.52422604783E+00  0.43810437466E+01  0.51100000000E-03 0.  1.
         12    1    3    3    0    0 -0.11374758176E+01 -0.12288526231E+01  0.12546045840E+01  0.20923581594E+01  0.00000000000E+00 0. -1.
</event>
<event>
 7    1  0.2714068E-010  0.4778727E+02  0.7816164E-02  0.1312668E+00
        -11   -1    0    0    0    0  0.00000000000E+00  0.00000000000E+00  0.45593999997E+02  0.45594000000E+02  0.51100000000E-03 0.  1.
         11   -1    0    0    0    0 -0.00000000000E+00 -0.00000000000E+00 -0.45593999997E+02  0.45594000000E+02  0.51100000000E-03 0. -1.
    9900012    2    1    2    0    0 -0.36156825261E+01 -0.21396428565E+02 -0.37586479957E+02  0.47787265087E+02  0.19999972836E+02 0.  0.
        -12    1    1    2    0    0  0.36156825261E+01  0.21396428565E+02  0.37586479957E+02  0.43400734913E+02  0.00000000000E+00 0.  1.
         11    1    3    3    0    0 -0.47539510283E+01 -0.89052128312E+01 -0.21399933429E+02  0.23661361267E+02  0.51100000000E-03 0. -1.
        -11    1    3    3    0    0  0.26632569428E+01  0.18527838166E+01 -0.16224958335E+01  0.36274286216E+01  0.51100000000E-03 0.  1.
        -12    1    3    3    0    0 -0.15249884405E+01 -0.14343999550E+02 -0.14564050694E+02  0.20498475198E+02  0.00000000000E+00 0.  1.
</event>
<event>
 7    1  0.2714068E-010  0.4778728E+02  0.7816164E-02  0.1312668E+00
        -11   -1    0    0    0    0  0.00000000000E+00  0.00000000000E+00  0.45593999997E+02  0.45594000000E+02  0.51100000000E-03 0.  1.
         11   -1    0    0    0    0 -0.00000000000E+00 -0.00000000000E+00 -0.45593999997E+02  0.45594000000E+02  0.51100000000E-03 0. -1.
    9900012    2    1    2    0    0  0.30984715833E+02  0.18263466645E+02 -0.24290231179E+02  0.47787283878E+02  0.20000058514E+02 0.  0.
        -12    1    1    2    0    0 -0.30984715833E+02 -0.18263466645E+02  0.24290231179E+02  0.43400716122E+02  0.00000000000E+00 0.  1.
         11    1    3    3    0    0  0.22181951700E+02  0.74581148294E+01 -0.12760795844E+02  0.26655212789E+02  0.51100000000E-03 0. -1.
        -11    1    3    3    0    0  0.13405384610E+01  0.18625466322E+01 -0.89008136851E+01  0.91918772751E+01  0.51100000000E-03 0.  1.
        -12    1    3    3    0    0  0.74622256726E+01  0.89428051832E+01 -0.26286216500E+01  0.11940193814E+02  0.00000000000E+00 0.  1.
</event>
<event>
 7    1  0.2714068E-010  0.4778723E+02  0.7816164E-02  0.1312668E+00
        -11   -1    0    0    0    0  0.00000000000E+00  0.00000000000E+00  0.45593999997E+02  0.45594000000E+02  0.51100000000E-03 0.  1.
         11   -1    0    0    0    0 -0.00000000000E+00 -0.00000000000E+00 -0.45593999997E+02  0.45594000000E+02  0.51100000000E-03 0. -1.
    9900012    2    1    2    0    0 -0.20215572031E+02  0.36375809377E+02 -0.12319009873E+02  0.47787229677E+02  0.19999811390E+02 0.  0.
        -12    1    1    2    0    0  0.20215572031E+02 -0.36375809377E+02  0.12319009873E+02  0.43400770323E+02  0.00000000000E+00 0.  1.
         11    1    3    3    0    0 -0.35413019829E+01  0.76722830547E+01 -0.63223435822E+01  0.10553519585E+02  0.51100000000E-03 0. -1.
        -11    1    3    3    0    0 -0.21257456552E+01  0.19576514737E+01 -0.61406616120E+01  0.67866721725E+01  0.51100000000E-03 0.  1.
        -12    1    3    3    0    0 -0.14548524393E+02  0.26745874848E+02  0.14399532106E+00  0.30447037919E+02  0.00000000000E+00 0.  1.
</event>
<event>
 7    1  0.2714068E-010  0.4778727E+02  0.7816164E-02  0.1312668E+00
        -11   -1    0    0    0    0  0.00000000000E+00  0.00000000000E+00  0.45593999997E+02  0.45594000000E+02  0.51100000000E-03 0.  1.
         11   -1    0    0    0    0 -0.00000000000E+00 -0.00000000000E+00 -0.45593999997E+02  0.45594000000E+02  0.51100000000E-03 0. -1.
    9900012    2    1    2    0    0 -0.42060064704E+02 -0.67863317019E+01 -0.82776633195E+01  0.47787273613E+02  0.20000011711E+02 0.  0.
        -12    1    1    2    0    0  0.42060064704E+02  0.67863317019E+01  0.82776633195E+01  0.43400726387E+02  0.00000000000E+00 0.  1.
         11    1    3    3    0    0 -0.16857970168E+02  0.35041002798E+01  0.28922114524E+01  0.17459517871E+02  0.51100000000E-03 0. -1.
        -11    1    3    3    0    0 -0.11239027684E+02 -0.82544248383E+01 -0.40399810405E+01  0.14518013630E+02  0.51100000000E-03 0.  1.
         12    1    3    3    0    0 -0.13963066853E+02 -0.20360071434E+01 -0.71298937313E+01  0.15809742112E+02  0.00000000000E+00 0. -1.
</event>
<event>
 7    1  0.2714068E-010  0.4778727E+02  0.7816164E-02  0.1312668E+00
        -11   -1    0    0    0    0  0.00000000000E+00  0.00000000000E+00  0.45593999997E+02  0.45594000000E+02  0.51100000000E-03 0.  1.
         11   -1    0    0    0    0 -0.00000000000E+00 -0.00000000000E+00 -0.45593999997E+02  0.45594000000E+02  0.51100000000E-03 0. -1.
    9900012    2    1    2    0    0  0.13748690160E+02 -0.40704420004E+02 -0.61438633048E+01  0.47787270222E+02  0.19999996251E+02 0.  0.
        -12    1    1    2    0    0 -0.13748690160E+02  0.40704420004E+02  0.61438633048E+01  0.43400729778E+02  0.00000000000E+00 0.  1.
         11    1    3    3    0    0  0.10038662286E+02 -0.16926744775E+02 -0.55571588172E+01  0.20449240659E+02  0.51100000000E-03 0. -1.
        -11    1    3    3    0    0 -0.38164299275E+01 -0.74288803188E+01  0.32035719027E+01  0.89451815733E+01  0.51100000000E-03 0.  1.
        -12    1    3    3    0    0  0.75264578006E+01 -0.16348794910E+02 -0.37902763903E+01  0.18392847989E+02  0.00000000000E+00 0.  1.
</event>
<event>
 7    1  0.2714068E-010  0.4778727E+02  0.7816164E-02  0.1312668E+00
        -11   -1    0    0    0    0  0.00000000000E+00  0.00000000000E+00  0.45593999997E+02  0.45594000000E+02  0.51100000000E-03 0.  1.
         11   -1    0    0    0    0 -0.00000000000E+00 -0.00000000000E+00 -0.45593999997E+02  0.45594000000E+02  0.51100000000E-03 0. -1.
    9900012    2    1    2    0    0  0.26951670625E+02  0.23633313376E+01 -0.33935901181E+02  0.47787271049E+02  0.20000000022E+02 0.  0.
        -12    1    1    2    0    0 -0.26951670625E+02 -0.23633313376E+01  0.33935901181E+02  0.43400728951E+02  0.00000000000E+00 0.  1.
         11    1    3    3    0    0  0.89971583378E+01  0.79559740166E+00 -0.12589655183E+02  0.15494555537E+02  0.51100000000E-03 0. -1.
        -11    1    3    3    0    0  0.16692532049E+02  0.70350186964E+01 -0.13254144687E+02  0.22445589008E+02  0.51100000000E-03 0.  1.
        -12    1    3    3    0    0  0.12619802377E+01 -0.54672847605E+01 -0.80921013105E+01  0.98471265043E+01  0.00000000000E+00 0.  1.
</event>
<event>
 7    1  0.2714068E-010  0.4778727E+02  0.7816164E-02  0.1312668E+00
        -11   -1    0    0    0    0  0.00000000000E+00  0.00000000000E+00  0.45593999997E+02  0.45594000000E+02  0.51100000000E-03 0.  1.
         11   -1    0    0    0    0 -0.00000000000E+00 -0.00000000000E+00 -0.45593999997E+02  0.45594000000E+02  0.51100000000E-03 0. -1.
    9900012    2    1    2    0    0  0.97626923655E+01  0.77087321629E+00 -0.42281425034E+02  0.47787270621E+02  0.19999998069E+02 0.  0.
        -12    1    1    2    0    0 -0.97626923655E+01 -0.77087321629E+00  0.42281425034E+02  0.43400729379E+02  0.00000000000E+00 0.  1.
         11    1    3    3    0    0  0.71943474570E+01  0.55366784876E+01 -0.27076710826E+02  0.28558041134E+02  0.51100000000E-03 0. -1.
        -11    1    3    3    0    0 -0.17576076291E+01  0.14900972898E+01 -0.86867275908E-01  0.23058882660E+01  0.51100000000E-03 0.  1.
         12    1    3    3    0    0  0.43259525375E+01 -0.62559025611E+01 -0.15117846932E+02  0.16923341220E+02  0.00000000000E+00 0. -1.
</event>
<event>
 7    1  0.2714068E-010  0.4778727E+02  0.7816164E-02  0.1312668E+00
        -11   -1    0    0    0    0  0.00000000000E+00  0.00000000000E+00  0.45593999997E+02  0.45594000000E+02  0.51100000000E-03 0. -1.
         11   -1    0    0    0    0 -0.00000000000E+00 -0.00000000000E+00 -0.45593999997E+02  0.45594000000E+02  0.51100000000E-03 0.  1.
    9900012    2    1    2    0    0 -0.19881588528E+02 -0.34687030141E+02 -0.16886552278E+02  0.47787271087E+02  0.20000000192E+02 0.  0.
        -12    1    1    2    0    0  0.19881588528E+02  0.34687030141E+02  0.16886552278E+02  0.43400728913E+02  0.00000000000E+00 0.  1.
         11    1    3    3    0    0 -0.69584592977E+01 -0.66558998332E+01 -0.82727036677E+01  0.12694832989E+02  0.51100000000E-03 0. -1.
        -11    1    3    3    0    0 -0.13980050708E+02 -0.14432182789E+02 -0.73456486447E+01  0.21393650276E+02  0.51100000000E-03 0.  1.
         12    1    3    3    0    0  0.10569214780E+01 -0.13598947518E+02 -0.12681999652E+01  0.13698787821E+02  0.00000000000E+00 0. -1.
</event>
<event>
 7    1  0.2714068E-010  0.4778727E+02  0.7816164E-02  0.1312668E+00
        -11   -1    0    0    0    0  0.00000000000E+00  0.00000000000E+00  0.45593999997E+02  0.45594000000E+02  0.51100000000E-03 0. -1.
         11   -1    0    0    0    0 -0.00000000000E+00 -0.00000000000E+00 -0.45593999997E+02  0.45594000000E+02  0.51100000000E-03 0.  1.
    9900012    2    1    2    0    0  0.42223107095E+02 -0.46456420676E+00  0.10030800398E+02  0.47787267872E+02  0.19999985534E+02 0.  0.
        -12    1    1    2    0    0 -0.42223107095E+02  0.46456420676E+00 -0.10030800398E+02  0.43400732128E+02  0.00000000000E+00 0.  1.
         11    1    3    3    0    0  0.18886405236E+02  0.33981779878E+01  0.41421644984E+01  0.19631643930E+02  0.51100000000E-03 0. -1.
        -11    1    3    3    0    0  0.11739052704E+02 -0.89747818840E+01  0.42502383441E+01  0.15375844513E+02  0.51100000000E-03 0.  1.
        -12    1    3    3    0    0  0.11597649155E+02  0.51120396894E+01  0.16383975559E+01  0.12779779429E+02  0.00000000000E+00 0.  1.
</event>
<event>
 7    1  0.2714068E-010  0.4778726E+02  0.7816164E-02  0.1312668E+00
        -11   -1    0    0    0    0  0.00000000000E+00  0.00000000000E+00  0.45593999997E+02  0.45594000000E+02  0.51100000000E-03 0.  1.
         11   -1    0    0    0    0 -0.00000000000E+00 -0.00000000000E+00 -0.45593999997E+02  0.45594000000E+02  0.51100000000E-03 0. -1.
    9900012    2    1    2    0    0 -0.43227464975E+02 -0.34516485498E+01  0.17597234682E+01  0.47787260000E+02  0.19999949643E+02 0.  0.
        -12    1    1    2    0    0  0.43227464975E+02  0.34516485498E+01 -0.17597234682E+01  0.43400740000E+02  0.00000000000E+00 0.  1.
         11    1    3    3    0    0 -0.15023215626E+02 -0.12172529916E+01 -0.26395607729E+01  0.15301829757E+02  0.51100000000E-03 0. -1.
        -11    1    3    3    0    0 -0.12825925854E+02  0.46802577630E+01 -0.31489977317E+01  0.14011615671E+02  0.51100000000E-03 0.  1.
        -12    1    3    3    0    0 -0.15378323495E+02 -0.69146533211E+01  0.75482819729E+01  0.18473814571E+02  0.00000000000E+00 0.  1.
</event>
<event>
 7    1  0.2714068E-010  0.4778727E+02  0.7816164E-02  0.1312668E+00
        -11   -1    0    0    0    0  0.00000000000E+00  0.00000000000E+00  0.45593999997E+02  0.45594000000E+02  0.51100000000E-03 0.  1.
         11   -1    0    0    0    0 -0.00000000000E+00 -0.00000000000E+00 -0.45593999997E+02  0.45594000000E+02  0.51100000000E-03 0. -1.
    9900012    2    1    2    0    0 -0.14276351854E+01 -0.14353519286E+02 -0.40933626674E+02  0.47787269006E+02  0.19999990708E+02 0.  0.
        -12    1    1    2    0    0  0.14276351854E+01  0.14353519286E+02  0.40933626674E+02  0.43400730994E+02  0.00000000000E+00 0.  1.
         11    1    3    3    0    0 -0.12708962735E+01 -0.34988563851E+00 -0.10457254426E+02  0.10540007955E+02  0.51100000000E-03 0. -1.
        -11    1    3    3    0    0  0.17763535482E+01  0.32699969975E+01 -0.32233569039E+01  0.49232450968E+01  0.51100000000E-03 0.  1.
        -12    1    3    3    0    0 -0.19330924601E+01 -0.17273630645E+02 -0.27253015344E+02  0.32324015955E+02  0.00000000000E+00 0.  1.
</event>
<event>
 7    1  0.2714068E-010  0.4778727E+02  0.7816164E-02  0.1312668E+00
        -11   -1    0    0    0    0  0.00000000000E+00  0.00000000000E+00  0.45593999997E+02  0.45594000000E+02  0.51100000000E-03 0. -1.
         11   -1    0    0    0    0 -0.00000000000E+00 -0.00000000000E+00 -0.45593999997E+02  0.45594000000E+02  0.51100000000E-03 0.  1.
    9900012    2    1    2    0    0  0.14724961917E+02 -0.35070776677E+02  0.20900701220E+02  0.47787271992E+02  0.20000004318E+02 0.  0.
        -12    1    1    2    0    0 -0.14724961917E+02  0.35070776677E+02 -0.20900701220E+02  0.43400728008E+02  0.00000000000E+00 0.  1.
         11    1    3    3    0    0  0.43798519575E+01 -0.34221314384E+01  0.10358096813E+02  0.11755179990E+02  0.51100000000E-03 0. -1.
        -11    1    3    3    0    0  0.72255873494E+01 -0.11838542713E+02  0.12382349486E+01  0.13924562189E+02  0.51100000000E-03 0.  1.
         12    1    3    3    0    0  0.31195226100E+01 -0.19810102525E+02  0.93043694584E+01  0.22107529812E+02  0.00000000000E+00 0. -1.
</event>
<event>
 7    1  0.2714068E-010  0.4778728E+02  0.7816164E-02  0.1312668E+00
        -11   -1    0    0    0    0  0.00000000000E+00  0.00000000000E+00  0.45593999997E+02  0.45594000000E+02  0.51100000000E-03 0. -1.
         11   -1    0    0    0    0 -0.00000000000E+00 -0.00000000000E+00 -0.45593999997E+02  0.45594000000E+02  0.51100000000E-03 0.  1.
    9900012    2    1    2    0    0 -0.84259648309E+01 -0.41947887429E+02 -0.72801632100E+01  0.47787275127E+02  0.20000018616E+02 0.  0.
        -12    1    1    2    0    0  0.84259648309E+01  0.41947887429E+02  0.72801632100E+01  0.43400724873E+02  0.00000000000E+00 0.  1.
         11    1    3    3    0    0  0.27238558367E+00 -0.26952167773E+02 -0.32325267374E+01  0.27146689871E+02  0.51100000000E-03 0. -1.
        -11    1    3    3    0    0 -0.99264334041E+01 -0.11720410295E+02 -0.61666658543E+01  0.16550826736E+02  0.51100000000E-03 0.  1.
        -12    1    3    3    0    0  0.12280829895E+01 -0.32753093607E+01  0.21190293817E+01  0.40897585207E+01  0.00000000000E+00 0.  1.
</event>
<event>
 7    1  0.2714068E-010  0.4778727E+02  0.7816164E-02  0.1312668E+00
        -11   -1    0    0    0    0  0.00000000000E+00  0.00000000000E+00  0.45593999997E+02  0.45594000000E+02  0.51100000000E-03 0.  1.
         11   -1    0    0    0    0 -0.00000000000E+00 -0.00000000000E+00 -0.45593999997E+02  0.45594000000E+02  0.51100000000E-03 0. -1.
    9900012    2    1    2    0    0 -0.35303069548E+02 -0.25241284043E+02 -0.44038913806E+00  0.47787273253E+02  0.20000010068E+02 0.  0.
        -12    1    1    2    0    0  0.35303069548E+02  0.25241284043E+02  0.44038913806E+00  0.43400726747E+02  0.00000000000E+00 0.  1.
         11    1    3    3    0    0 -0.27786928205E+02 -0.14075127092E+02  0.59894173960E+00  0.31154154028E+02  0.51100000000E-03 0. -1.
        -11    1    3    3    0    0 -0.74187960263E+01 -0.11451906288E+02 -0.35541579188E+01  0.14100238682E+02  0.51100000000E-03 0.  1.
        -12    1    3    3    0    0 -0.97345315887E-01  0.28574933790E+00  0.25148270412E+01  0.25328805423E+01  0.00000000000E+00 0.  1.
</event>
<event>
 7    1  0.2714068E-010  0.4778727E+02  0.7816164E-02  0.1312668E+00
        -11   -1    0    0    0    0  0.00000000000E+00  0.00000000000E+00  0.45593999997E+02  0.45594000000E+02  0.51100000000E-03 0. -1.
         11   -1    0    0    0    0 -0.00000000000E+00 -0.00000000000E+00 -0.45593999997E+02  0.45594000000E+02  0.51100000000E-03 0.  1.
    9900012    2    1    2    0    0  0.54071835493E+01  0.42988792975E+02  0.25198559215E+01  0.47787266950E+02  0.19999981334E+02 0.  0.
        -12    1    1    2    0    0 -0.54071835493E+01 -0.42988792975E+02 -0.25198559215E+01  0.43400733050E+02  0.00000000000E+00 0.  1.
         11    1    3    3    0    0  0.22896709867E+01  0.29600270005E+02  0.33123201759E+01  0.29872898132E+02  0.51100000000E-03 0. -1.
        -11    1    3    3    0    0  0.21341105933E+01  0.62250144945E+01 -0.60777873535E+01  0.89579424455E+01  0.51100000000E-03 0.  1.
        -12    1    3    3    0    0  0.98340196928E+00  0.71635084754E+01  0.52853230991E+01  0.89564263728E+01  0.00000000000E+00 0.  1.
</event>
<event>
 7    1  0.2714068E-010  0.4778727E+02  0.7816164E-02  0.1312668E+00
        -11   -1    0    0    0    0  0.00000000000E+00  0.00000000000E+00  0.45593999997E+02  0.45594000000E+02  0.51100000000E-03 0. -1.
         11   -1    0    0    0    0 -0.00000000000E+00 -0.00000000000E+00 -0.45593999997E+02  0.45594000000E+02  0.51100000000E-03 0.  1.
    9900012    2    1    2    0    0 -0.42072463853E+02  0.68557949770E+01  0.81565613616E+01  0.47787266911E+02  0.19999981153E+02 0.  0.
        -12    1    1    2    0    0  0.42072463853E+02 -0.68557949770E+01 -0.81565613616E+01  0.43400733089E+02  0.00000000000E+00 0.  1.
         11    1    3    3    0    0 -0.19536645816E+02  0.11134645188E+02  0.72877551486E+01  0.23638363492E+02  0.51100000000E-03 0. -1.
        -11    1    3    3    0    0 -0.21554994898E+02 -0.46049465851E+01  0.25365059006E+01  0.22186870004E+02  0.51100000000E-03 0.  1.
         12    1    3    3    0    0 -0.98082313892E+00  0.32609637387E+00 -0.16676996876E+01  0.19620334153E+01  0.00000000000E+00 0. -1.
</event>
<event>
 7    1  0.2714068E-010  0.4778727E+02  0.7816164E-02  0.1312668E+00
        -11   -1    0    0    0    0  0.00000000000E+00  0.00000000000E+00  0.45593999997E+02  0.45594000000E+02  0.51100000000E-03 0.  1.
         11   -1    0    0    0    0 -0.00000000000E+00 -0.00000000000E+00 -0.45593999997E+02  0.45594000000E+02  0.51100000000E-03 0. -1.
    9900012    2    1    2    0    0  0.33570866395E+02 -0.20551325651E+02 -0.18282859702E+02  0.47787274022E+02  0.20000013576E+02 0.  0.
        -12    1    1    2    0    0 -0.33570866395E+02  0.20551325651E+02  0.18282859702E+02  0.43400725978E+02  0.00000000000E+00 0.  1.
         11    1    3    3    0    0  0.57571836976E-02  0.37997388365E+00 -0.33285059511E+00  0.50517628329E+00  0.51100000000E-03 0.  1.
        -11    1    3    3    0    0  0.15912934046E+02 -0.19282014962E+02 -0.15420196499E+02  0.29373457939E+02  0.51100000000E-03 0. -1.
        -12    1    3    3    0    0  0.17652175165E+02 -0.16492845724E+01 -0.25298126084E+01  0.17908639800E+02  0.00000000000E+00 0.  1.
</event>
<event>
 7    1  0.2714068E-010  0.4778727E+02  0.7816164E-02  0.1312668E+00
        -11   -1    0    0    0    0  0.00000000000E+00  0.00000000000E+00  0.45593999997E+02  0.45594000000E+02  0.51100000000E-03 0.  1.
         11   -1    0    0    0    0 -0.00000000000E+00 -0.00000000000E+00 -0.45593999997E+02  0.45594000000E+02  0.51100000000E-03 0. -1.
    9900012    2    1    2    0    0  0.39732206177E+02 -0.20619245810E+01 -0.17341386161E+02  0.47787269422E+02  0.19999992604E+02 0.  0.
        -12    1    1    2    0    0 -0.39732206177E+02  0.20619245810E+01  0.17341386161E+02  0.43400730578E+02  0.00000000000E+00 0.  1.
         11    1    3    3    0    0  0.60240145735E+01 -0.15731731009E+01 -0.57060229877E+01  0.84452545127E+01  0.51100000000E-03 0. -1.
        -11    1    3    3    0    0  0.32795576744E+02  0.43836450267E+00 -0.57302656327E+01  0.33295314413E+02  0.51100000000E-03 0.  1.
        -12    1    3    3    0    0  0.91261486023E+00 -0.92711598277E+00 -0.59050975406E+01  0.60467004964E+01  0.00000000000E+00 0.  1.
</event>
<event>
 7    1  0.2714068E-010  0.4778727E+02  0.7816164E-02  0.1312668E+00
        -11   -1    0    0    0    0  0.00000000000E+00  0.00000000000E+00  0.45593999997E+02  0.45594000000E+02  0.51100000000E-03 0.  1.
         11   -1    0    0    0    0 -0.00000000000E+00 -0.00000000000E+00 -0.45593999997E+02  0.45594000000E+02  0.51100000000E-03 0. -1.
    9900012    2    1    2    0    0  0.37002006037E+02 -0.10404927280E+02 -0.20154712438E+02  0.47787269638E+02  0.19999993588E+02 0.  0.
        -12    1    1    2    0    0 -0.37002006037E+02  0.10404927280E+02  0.20154712438E+02  0.43400730362E+02  0.00000000000E+00 0.  1.
         11    1    3    3    0    0  0.31002138849E+02 -0.48043753544E+01 -0.76681247697E+01  0.32295739247E+02  0.51100000000E-03 0. -1.
        -11    1    3    3    0    0  0.56901984578E+01 -0.30317192295E+01 -0.10030921081E+02  0.11924305345E+02  0.51100000000E-03 0.  1.
         12    1    3    3    0    0  0.30966873065E+00 -0.25688326957E+01 -0.24556665871E+01  0.35672250459E+01  0.00000000000E+00 0. -1.
</event>
<event>
 7    1  0.2714068E-010  0.4778727E+02  0.7816164E-02  0.1312668E+00
        -11   -1    0    0    0    0  0.00000000000E+00  0.00000000000E+00  0.45593999997E+02  0.45594000000E+02  0.51100000000E-03 0. -1.
         11   -1    0    0    0    0 -0.00000000000E+00 -0.00000000000E+00 -0.45593999997E+02  0.45594000000E+02  0.51100000000E-03 0.  1.
    9900012    2    1    2    0    0  0.36035777105E+01  0.33618258777E+02  0.27211211370E+02  0.47787272820E+02  0.20000008096E+02 0.  0.
        -12    1    1    2    0    0 -0.36035777105E+01 -0.33618258777E+02 -0.27211211370E+02  0.43400727180E+02  0.00000000000E+00 0.  1.
         11    1    3    3    0    0 -0.20681771026E+01  0.13018401316E+02  0.17129088217E+02  0.21613925899E+02  0.51100000000E-03 0. -1.
        -11    1    3    3    0    0  0.58555267392E+01  0.35017837741E+01  0.12801402939E+01  0.69417895695E+01  0.51100000000E-03 0.  1.
        -12    1    3    3    0    0 -0.18377192612E+00  0.17098073687E+02  0.88019828587E+01  0.19231557352E+02  0.00000000000E+00 0.  1.
</event>
<event>
 7    1  0.2714068E-010  0.4778727E+02  0.7816164E-02  0.1312668E+00
        -11   -1    0    0    0    0  0.00000000000E+00  0.00000000000E+00  0.45593999997E+02  0.45594000000E+02  0.51100000000E-03 0.  1.
         11   -1    0    0    0    0 -0.00000000000E+00 -0.00000000000E+00 -0.45593999997E+02  0.45594000000E+02  0.51100000000E-03 0. -1.
    9900012    2    1    2    0    0  0.62865657613E+01 -0.38557327721E+02 -0.18905946866E+02  0.47787271239E+02  0.20000000887E+02 0.  0.
        -12    1    1    2    0    0 -0.62865657613E+01  0.38557327721E+02  0.18905946866E+02  0.43400728761E+02  0.00000000000E+00 0.  1.
         11    1    3    3    0    0  0.45544151612E+01 -0.28808527994E+02 -0.13883721302E+02  0.32302193425E+02  0.51100000000E-03 0. -1.
        -11    1    3    3    0    0  0.46805081322E+01 -0.24091666870E+01  0.12262388175E+01  0.54050811650E+01  0.51100000000E-03 0.  1.
        -12    1    3    3    0    0 -0.29483575321E+01 -0.73396330402E+01 -0.62484643820E+01  0.10079996649E+02  0.00000000000E+00 0.  1.
</event>
<event>
 7    1  0.2714068E-010  0.4778726E+02  0.7816164E-02  0.1312668E+00
        -11   -1    0    0    0    0  0.00000000000E+00  0.00000000000E+00  0.45593999997E+02  0.45594000000E+02  0.51100000000E-03 0. -1.
         11   -1    0    0    0    0 -0.00000000000E+00 -0.00000000000E+00 -0.45593999997E+02  0.45594000000E+02  0.51100000000E-03 0.  1.
    9900012    2    1    2    0    0  0.33366827464E+02  0.10237058772E+02  0.25796924097E+02  0.47787264520E+02  0.19999970254E+02 0.  0.
        -12    1    1    2    0    0 -0.33366827464E+02 -0.10237058772E+02 -0.25796924097E+02  0.43400735480E+02  0.00000000000E+00 0.  1.
         11    1    3    3    0    0  0.67117861645E+01 -0.20396838094E+01  0.91735732731E+01  0.11548282574E+02  0.51100000000E-03 0. -1.
        -11    1    3    3    0    0  0.10002380345E+02 -0.68261648265E+00  0.11895998178E+01  0.10095975724E+02  0.51100000000E-03 0.  1.
         12    1    3    3    0    0  0.16652660954E+02  0.12959359064E+02  0.15433751007E+02  0.26143006222E+02  0.00000000000E+00 0. -1.
</event>
<event>
 7    1  0.2714068E-010  0.4778727E+02  0.7816164E-02  0.1312668E+00
        -11   -1    0    0    0    0  0.00000000000E+00  0.00000000000E+00  0.45593999997E+02  0.45594000000E+02  0.51100000000E-03 0.  1.
         11   -1    0    0    0    0 -0.00000000000E+00 -0.00000000000E+00 -0.45593999997E+02  0.45594000000E+02  0.51100000000E-03 0. -1.
    9900012    2    1    2    0    0 -0.30416164188E+02  0.99615483555E+01 -0.29312932071E+02  0.47787268714E+02  0.19999989374E+02 0.  0.
        -12    1    1    2    0    0  0.30416164188E+02 -0.99615483555E+01  0.29312932071E+02  0.43400731286E+02  0.00000000000E+00 0.  1.
         11    1    3    3    0    0 -0.83847833496E+01 -0.45452450903E+01 -0.99888418186E+01  0.13810894464E+02  0.51100000000E-03 0. -1.
        -11    1    3    3    0    0 -0.19846858264E+01  0.42467504169E+01 -0.66469192143E+01  0.81335971277E+01  0.51100000000E-03 0.  1.
         12    1    3    3    0    0 -0.20046695012E+02  0.10260043029E+02 -0.12677171038E+02  0.25842777122E+02  0.00000000000E+00 0. -1.
</event>
<event>
 7    1  0.2714068E-010  0.4778728E+02  0.7816164E-02  0.1312668E+00
        -11   -1    0    0    0    0  0.00000000000E+00  0.00000000000E+00  0.45593999997E+02  0.45594000000E+02  0.51100000000E-03 0.  1.
         11   -1    0    0    0    0 -0.00000000000E+00 -0.00000000000E+00 -0.45593999997E+02  0.45594000000E+02  0.51100000000E-03 0. -1.
    9900012    2    1    2    0    0 -0.27717249189E+02 -0.23589365758E+02 -0.23641447276E+02  0.47787284467E+02  0.20000061199E+02 0.  0.
        -12    1    1    2    0    0  0.27717249189E+02  0.23589365758E+02  0.23641447276E+02  0.43400715533E+02  0.00000000000E+00 0.  1.
         11    1    3    3    0    0 -0.15864319194E+02 -0.20023026593E+02 -0.21894453672E+02  0.33644692290E+02  0.51100000000E-03 0. -1.
        -11    1    3    3    0    0 -0.34337084635E+01 -0.10191857567E+01  0.25068613886E+01  0.43718929198E+01  0.51100000000E-03 0.  1.
         12    1    3    3    0    0 -0.84192215314E+01 -0.25471534084E+01 -0.42538549928E+01  0.97706992575E+01  0.00000000000E+00 0. -1.
</event>
<event>
 7    1  0.2714068E-010  0.4778727E+02  0.7816164E-02  0.1312668E+00
        -11   -1    0    0    0    0  0.00000000000E+00  0.00000000000E+00  0.45593999997E+02  0.45594000000E+02  0.51100000000E-03 0. -1.
         11   -1    0    0    0    0 -0.00000000000E+00 -0.00000000000E+00 -0.45593999997E+02  0.45594000000E+02  0.51100000000E-03 0.  1.
    9900012    2    1    2    0    0  0.34401313335E+02 -0.14692509829E+02  0.22006884708E+02  0.47787272140E+02  0.20000004996E+02 0.  0.
        -12    1    1    2    0    0 -0.34401313335E+02  0.14692509829E+02 -0.22006884708E+02  0.43400727860E+02  0.00000000000E+00 0.  1.
         11    1    3    3    0    0  0.12632074960E+00  0.27207888501E+00 -0.26692807079E+00  0.40154041832E+00  0.51100000000E-03 0.  1.
        -11    1    3    3    0    0  0.30513672483E+02 -0.98093857528E+01  0.10039654230E+02  0.33587243331E+02  0.51100000000E-03 0. -1.
        -12    1    3    3    0    0  0.37613201020E+01 -0.51552029611E+01  0.12234158549E+02  0.13798488391E+02  0.00000000000E+00 0.  1.
</event>
<event>
 7    1  0.2714068E-010  0.4778727E+02  0.7816164E-02  0.1312668E+00
        -11   -1    0    0    0    0  0.00000000000E+00  0.00000000000E+00  0.45593999997E+02  0.45594000000E+02  0.51100000000E-03 0.  1.
         11   -1    0    0    0    0 -0.00000000000E+00 -0.00000000000E+00 -0.45593999997E+02  0.45594000000E+02  0.51100000000E-03 0. -1.
    9900012    2    1    2    0    0  0.27658392420E+02 -0.17395192280E+02 -0.28566477803E+02  0.47787273741E+02  0.20000012297E+02 0.  0.
        -12    1    1    2    0    0 -0.27658392420E+02  0.17395192280E+02  0.28566477803E+02  0.43400726259E+02  0.00000000000E+00 0.  1.
         11    1    3    3    0    0  0.18109825400E+02 -0.88172091857E+01 -0.21448789979E+02  0.29423792170E+02  0.51100000000E-03 0. -1.
        -11    1    3    3    0    0  0.84850398303E+01 -0.23617443604E+01  0.61320872776E-01  0.88078089135E+01  0.51100000000E-03 0.  1.
         12    1    3    3    0    0  0.10635271898E+01 -0.62162387341E+01 -0.71790086964E+01  0.95556726579E+01  0.00000000000E+00 0. -1.
</event>
<event>
 7    1  0.2714068E-010  0.4778727E+02  0.7816164E-02  0.1312668E+00
        -11   -1    0    0    0    0  0.00000000000E+00  0.00000000000E+00  0.45593999997E+02  0.45594000000E+02  0.51100000000E-03 0.  1.
         11   -1    0    0    0    0 -0.00000000000E+00 -0.00000000000E+00 -0.45593999997E+02  0.45594000000E+02  0.51100000000E-03 0. -1.
    9900012    2    1    2    0    0  0.32191610255E+02  0.27442210289E+02 -0.97081708347E+01  0.47787271235E+02  0.20000000868E+02 0.  0.
        -12    1    1    2    0    0 -0.32191610255E+02 -0.27442210289E+02  0.97081708347E+01  0.43400728765E+02  0.00000000000E+00 0.  1.
         11    1    3    3    0    0  0.24176006776E+02  0.16194969570E+02 -0.16098025769E+01  0.29143572321E+02  0.51100000000E-03 0. -1.
        -11    1    3    3    0    0  0.14681381047E+01  0.95936385742E+01 -0.65695949694E+01  0.11719765736E+02  0.51100000000E-03 0.  1.
         12    1    3    3    0    0  0.65474653746E+01  0.16536021451E+01 -0.15287732884E+01  0.69239331780E+01  0.00000000000E+00 0. -1.
</event>
<event>
 7    1  0.2714068E-010  0.4778727E+02  0.7816164E-02  0.1312668E+00
        -11   -1    0    0    0    0  0.00000000000E+00  0.00000000000E+00  0.45593999997E+02  0.45594000000E+02  0.51100000000E-03 0.  1.
         11   -1    0    0    0    0 -0.00000000000E+00 -0.00000000000E+00 -0.45593999997E+02  0.45594000000E+02  0.51100000000E-03 0. -1.
    9900012    2    1    2    0    0  0.40319885529E+02 -0.11519408776E+02 -0.11190769568E+02  0.47787271076E+02  0.20000000142E+02 0.  0.
        -12    1    1    2    0    0 -0.40319885529E+02  0.11519408776E+02  0.11190769568E+02  0.43400728924E+02  0.00000000000E+00 0.  1.
         11    1    3    3    0    0  0.43384285771E+01 -0.25139233931E+01  0.47007709928E+00  0.50361439698E+01  0.51100000000E-03 0. -1.
        -11    1    3    3    0    0  0.84476681974E+01 -0.94600488275E+01 -0.79402074069E+01  0.14963372471E+02  0.51100000000E-03 0.  1.
        -12    1    3    3    0    0  0.27533788755E+02  0.45456344429E+00 -0.37206392599E+01  0.27787754634E+02  0.00000000000E+00 0.  1.
</event>
<event>
 7    1  0.2714068E-010  0.4778728E+02  0.7816164E-02  0.1312668E+00
        -11   -1    0    0    0    0  0.00000000000E+00  0.00000000000E+00  0.45593999997E+02  0.45594000000E+02  0.51100000000E-03 0. -1.
         11   -1    0    0    0    0 -0.00000000000E+00 -0.00000000000E+00 -0.45593999997E+02  0.45594000000E+02  0.51100000000E-03 0.  1.
    9900012    2    1    2    0    0 -0.14058876985E+02 -0.14465974307E+02  0.38427933112E+02  0.47787280213E+02  0.20000041804E+02 0.  0.
        -12    1    1    2    0    0  0.14058876985E+02  0.14465974307E+02 -0.38427933112E+02  0.43400719787E+02  0.00000000000E+00 0.  1.
         11    1    3    3    0    0 -0.85849991773E+01  0.28243459814E+01  0.14646321763E+02  0.17210284208E+02  0.51100000000E-03 0. -1.
        -11    1    3    3    0    0  0.12185363737E+00 -0.96708630615E+01  0.10512207309E+02  0.14284500111E+02  0.51100000000E-03 0.  1.
         12    1    3    3    0    0 -0.55957314455E+01 -0.76194572272E+01  0.13269404041E+02  0.16292495894E+02  0.00000000000E+00 0. -1.
</event>
<event>
 7    1  0.2714068E-010  0.4778727E+02  0.7816164E-02  0.1312668E+00
        -11   -1    0    0    0    0  0.00000000000E+00  0.00000000000E+00  0.45593999997E+02  0.45594000000E+02  0.51100000000E-03 0.  1.
         11   -1    0    0    0    0 -0.00000000000E+00 -0.00000000000E+00 -0.45593999997E+02  0.45594000000E+02  0.51100000000E-03 0. -1.
    9900012    2    1    2    0    0  0.18752084160E+02  0.72022229525E+01 -0.38472203433E+02  0.47787272900E+02  0.20000008460E+02 0.  0.
        -12    1    1    2    0    0 -0.18752084160E+02 -0.72022229525E+01  0.38472203433E+02  0.43400727100E+02  0.00000000000E+00 0.  1.
         11    1    3    3    0    0  0.92138567149E+01  0.80282170783E+01 -0.16238441514E+02  0.20323247971E+02  0.51100000000E-03 0. -1.
        -11    1    3    3    0    0  0.76427632530E+01 -0.63327130477E+01 -0.16720252346E+02  0.19444328825E+02  0.51100000000E-03 0.  1.
        -12    1    3    3    0    0  0.18954641926E+01  0.55067189219E+01 -0.55135095735E+01  0.80196961044E+01  0.00000000000E+00 0.  1.
</event>
<event>
 7    1  0.2714068E-010  0.4778724E+02  0.7816164E-02  0.1312668E+00
        -11   -1    0    0    0    0  0.00000000000E+00  0.00000000000E+00  0.45593999997E+02  0.45594000000E+02  0.51100000000E-03 0. -1.
         11   -1    0    0    0    0 -0.00000000000E+00 -0.00000000000E+00 -0.45593999997E+02  0.45594000000E+02  0.51100000000E-03 0.  1.
    9900012    2    1    2    0    0 -0.46536468629E+01  0.26708262117E+02  0.33891562100E+02  0.47787243371E+02  0.19999873824E+02 0.  0.
        -12    1    1    2    0    0  0.46536468629E+01 -0.26708262117E+02 -0.33891562100E+02  0.43400756629E+02  0.00000000000E+00 0.  1.
         11    1    3    3    0    0 -0.36922344808E+01  0.45709352378E+01  0.78635920568E+00  0.59282717102E+01  0.51100000000E-03 0. -1.
        -11    1    3    3    0    0  0.28090023995E+01  0.17278341134E+02  0.30527556894E+02  0.35190386429E+02  0.51100000000E-03 0.  1.
         12    1    3    3    0    0 -0.37704147815E+01  0.48589857448E+01  0.25776460004E+01  0.66685852320E+01  0.00000000000E+00 0. -1.
</event>
<event>
 7    1  0.2714068E-010  0.4778726E+02  0.7816164E-02  0.1312668E+00
        -11   -1    0    0    0    0  0.00000000000E+00  0.00000000000E+00  0.45593999997E+02  0.45594000000E+02  0.51100000000E-03 0.  1.
         11   -1    0    0    0    0 -0.00000000000E+00 -0.00000000000E+00 -0.45593999997E+02  0.45594000000E+02  0.51100000000E-03 0. -1.
    9900012    2    1    2    0    0 -0.67263242052E+01  0.38034770056E+02 -0.19792356944E+02  0.47787256183E+02  0.19999932239E+02 0.  0.
        -12    1    1    2    0    0  0.67263242052E+01 -0.38034770056E+02  0.19792356944E+02  0.43400743817E+02  0.00000000000E+00 0.  1.
         11    1    3    3    0    0 -0.85805819347E+00  0.47983470636E+01 -0.93939621655E+01  0.10583332360E+02  0.51100000000E-03 0. -1.
        -11    1    3    3    0    0 -0.50644436354E+01  0.28485350129E+02 -0.40199945508E+01  0.29210000304E+02  0.51100000000E-03 0.  1.
         12    1    3    3    0    0 -0.80382237632E+00  0.47510728631E+01 -0.63784002277E+01  0.79939235190E+01  0.00000000000E+00 0. -1.
</event>
<event>
 7    1  0.2714068E-010  0.4778726E+02  0.7816164E-02  0.1312668E+00
        -11   -1    0    0    0    0  0.00000000000E+00  0.00000000000E+00  0.45593999997E+02  0.45594000000E+02  0.51100000000E-03 0.  1.
         11   -1    0    0    0    0 -0.00000000000E+00 -0.00000000000E+00 -0.45593999997E+02  0.45594000000E+02  0.51100000000E-03 0. -1.
    9900012    2    1    2    0    0 -0.91884895438E+01  0.35496241772E+02 -0.23220953668E+02  0.47787260268E+02  0.19999950864E+02 0.  0.
        -12    1    1    2    0    0  0.91884895438E+01 -0.35496241772E+02  0.23220953668E+02  0.43400739732E+02  0.00000000000E+00 0.  1.
         11    1    3    3    0    0 -0.11797582731E+02  0.18123556780E+02 -0.15755690267E+02  0.26756084255E+02  0.51100000000E-03 0. -1.
        -11    1    3    3    0    0  0.37805414214E+01  0.14258532056E+02 -0.90914868328E+01  0.17327820490E+02  0.51100000000E-03 0.  1.
        -12    1    3    3    0    0 -0.11714482346E+01  0.31141529364E+01  0.16262234313E+01  0.37033555226E+01  0.00000000000E+00 0.  1.
</event>
<event>
 7    1  0.2714068E-010  0.4778727E+02  0.7816164E-02  0.1312668E+00
        -11   -1    0    0    0    0  0.00000000000E+00  0.00000000000E+00  0.45593999997E+02  0.45594000000E+02  0.51100000000E-03 0.  1.
         11   -1    0    0    0    0 -0.00000000000E+00 -0.00000000000E+00 -0.45593999997E+02  0.45594000000E+02  0.51100000000E-03 0. -1.
    9900012    2    1    2    0    0 -0.68229622214E+01  0.44470972280E+00 -0.42858752544E+02  0.47787271321E+02  0.20000001262E+02 0.  0.
        -12    1    1    2    0    0  0.68229622214E+01 -0.44470972280E+00  0.42858752544E+02  0.43400728679E+02  0.00000000000E+00 0.  1.
         11    1    3    3    0    0 -0.88489673124E+01 -0.20220943884E+01 -0.88596111841E+01  0.12684076585E+02  0.51100000000E-03 0. -1.
        -11    1    3    3    0    0  0.33981537420E+01 -0.17162339856E+01 -0.21891333737E+02  0.22219887511E+02  0.51100000000E-03 0.  1.
         12    1    3    3    0    0 -0.13721486511E+01  0.41830380969E+01 -0.12107807623E+02  0.12883307226E+02  0.00000000000E+00 0. -1.
</event>
<event>
 7    1  0.2714068E-010  0.4778727E+02  0.7816164E-02  0.1312668E+00
        -11   -1    0    0    0    0  0.00000000000E+00  0.00000000000E+00  0.45593999997E+02  0.45594000000E+02  0.51100000000E-03 0.  1.
         11   -1    0    0    0    0 -0.00000000000E+00 -0.00000000000E+00 -0.45593999997E+02  0.45594000000E+02  0.51100000000E-03 0. -1.
    9900012    2    1    2    0    0 -0.36458573753E+02 -0.14277349033E+02 -0.18723065473E+02  0.47787268713E+02  0.19999989372E+02 0.  0.
        -12    1    1    2    0    0  0.36458573753E+02  0.14277349033E+02  0.18723065473E+02  0.43400731287E+02  0.00000000000E+00 0.  1.
         11    1    3    3    0    0 -0.12209302587E+02 -0.55290394835E+01 -0.21629098629E+01  0.13576285449E+02  0.51100000000E-03 0. -1.
        -11    1    3    3    0    0 -0.10080711629E+02 -0.11044845760E+02 -0.11929309118E+02  0.19128977524E+02  0.51100000000E-03 0.  1.
        -12    1    3    3    0    0 -0.14168559537E+02  0.22965362098E+01 -0.46308464921E+01  0.15082005741E+02  0.00000000000E+00 0.  1.
</event>
<event>
 7    1  0.2714068E-010  0.4778727E+02  0.7816164E-02  0.1312668E+00
        -11   -1    0    0    0    0  0.00000000000E+00  0.00000000000E+00  0.45593999997E+02  0.45594000000E+02  0.51100000000E-03 0. -1.
         11   -1    0    0    0    0 -0.00000000000E+00 -0.00000000000E+00 -0.45593999997E+02  0.45594000000E+02  0.51100000000E-03 0.  1.
    9900012    2    1    2    0    0 -0.18099573209E+01  0.38788529217E+02  0.19385492536E+02  0.47787271144E+02  0.20000000454E+02 0.  0.
        -12    1    1    2    0    0  0.18099573209E+01 -0.38788529217E+02 -0.19385492536E+02  0.43400728856E+02  0.00000000000E+00 0.  1.
         11    1    3    3    0    0 -0.69974577937E+01  0.10012309633E+02  0.11602543522E+02  0.16847248327E+02  0.51100000000E-03 0. -1.
        -11    1    3    3    0    0  0.47473450996E+01  0.13532888301E+02  0.61455067800E+01  0.15602679421E+02  0.51100000000E-03 0.  1.
        -12    1    3    3    0    0  0.44015537319E+00  0.15243331284E+02  0.16374422341E+01  0.15337343396E+02  0.00000000000E+00 0.  1.
</event>
<event>
 7    1  0.2714068E-010  0.4778727E+02  0.7816164E-02  0.1312668E+00
        -11   -1    0    0    0    0  0.00000000000E+00  0.00000000000E+00  0.45593999997E+02  0.45594000000E+02  0.51100000000E-03 0.  1.
         11   -1    0    0    0    0 -0.00000000000E+00 -0.00000000000E+00 -0.45593999997E+02  0.45594000000E+02  0.51100000000E-03 0. -1.
    9900012    2    1    2    0    0 -0.25106005944E+02  0.32709753446E+02 -0.13541914512E+02  0.47787274734E+02  0.20000016824E+02 0.  0.
        -12    1    1    2    0    0  0.25106005944E+02 -0.32709753446E+02  0.13541914512E+02  0.43400725266E+02  0.00000000000E+00 0.  1.
         11    1    3    3    0    0 -0.26048283422E+02  0.22976519768E+02 -0.93306417544E+01  0.35965183243E+02  0.51100000000E-03 0. -1.
        -11    1    3    3    0    0  0.24340460874E+01  0.88821501961E+01 -0.41554540030E+01  0.10103710739E+02  0.51100000000E-03 0.  1.
        -12    1    3    3    0    0 -0.14917686099E+01  0.85108348111E+00 -0.55818754162E-01  0.17183807525E+01  0.00000000000E+00 0.  1.
</event>
<event>
 7    1  0.2714068E-010  0.4778728E+02  0.7816164E-02  0.1312668E+00
        -11   -1    0    0    0    0  0.00000000000E+00  0.00000000000E+00  0.45593999997E+02  0.45594000000E+02  0.51100000000E-03 0.  1.
         11   -1    0    0    0    0 -0.00000000000E+00 -0.00000000000E+00 -0.45593999997E+02  0.45594000000E+02  0.51100000000E-03 0. -1.
    9900012    2    1    2    0    0  0.42358354682E+01 -0.23891310813E+02 -0.35984517396E+02  0.47787279652E+02  0.20000039246E+02 0.  0.
        -12    1    1    2    0    0 -0.42358354682E+01  0.23891310813E+02  0.35984517396E+02  0.43400720348E+02  0.00000000000E+00 0.  1.
         11    1    3    3    0    0  0.69789343282E+00 -0.46884878719E+01 -0.16522844484E+02  0.17189338668E+02  0.51100000000E-03 0. -1.
        -11    1    3    3    0    0  0.40986475705E+00 -0.40302607602E+01  0.16820127446E+01  0.43863604558E+01  0.51100000000E-03 0.  1.
        -12    1    3    3    0    0  0.31280772784E+01 -0.15172562181E+02 -0.21143685657E+02  0.26211580528E+02  0.00000000000E+00 0.  1.
</event>
<event>
 7    1  0.2714068E-010  0.4778727E+02  0.7816164E-02  0.1312668E+00
        -11   -1    0    0    0    0  0.00000000000E+00  0.00000000000E+00  0.45593999997E+02  0.45594000000E+02  0.51100000000E-03 0.  1.
         11   -1    0    0    0    0 -0.00000000000E+00 -0.00000000000E+00 -0.45593999997E+02  0.45594000000E+02  0.51100000000E-03 0. -1.
    9900012    2    1    2    0    0 -0.34538080432E+02  0.25549321376E+02 -0.61625290060E+01  0.47787267443E+02  0.19999983580E+02 0.  0.
        -12    1    1    2    0    0  0.34538080432E+02 -0.25549321376E+02  0.61625290060E+01  0.43400732557E+02  0.00000000000E+00 0.  1.
         11    1    3    3    0    0 -0.31197994884E+01  0.47806848310E+01 -0.10015945911E+01  0.57957991931E+01  0.51100000000E-03 0. -1.
        -11    1    3    3    0    0 -0.28846748738E+02  0.19159525451E+02  0.15105388847E+01  0.34662718535E+02  0.51100000000E-03 0.  1.
        -12    1    3    3    0    0 -0.25715322063E+01  0.16091110944E+01 -0.66714732996E+01  0.73287497153E+01  0.00000000000E+00 0.  1.
</event>
<event>
 7    1  0.2714068E-010  0.4778727E+02  0.7816164E-02  0.1312668E+00
        -11   -1    0    0    0    0  0.00000000000E+00  0.00000000000E+00  0.45593999997E+02  0.45594000000E+02  0.51100000000E-03 0.  1.
         11   -1    0    0    0    0 -0.00000000000E+00 -0.00000000000E+00 -0.45593999997E+02  0.45594000000E+02  0.51100000000E-03 0. -1.
    9900012    2    1    2    0    0 -0.35659536851E+02 -0.20642252797E+02 -0.13635182640E+02  0.47787269884E+02  0.19999994710E+02 0.  0.
        -12    1    1    2    0    0  0.35659536851E+02  0.20642252797E+02  0.13635182640E+02  0.43400730116E+02  0.00000000000E+00 0.  1.
         11    1    3    3    0    0 -0.10887251718E+02  0.38057840181E+00 -0.82799622201E+01  0.13683379133E+02  0.51100000000E-03 0. -1.
        -11    1    3    3    0    0 -0.91302767649E+01 -0.10585533006E+02  0.15650234082E+01  0.14066440963E+02  0.51100000000E-03 0.  1.
         12    1    3    3    0    0 -0.15642008368E+02 -0.10437298193E+02 -0.69202438285E+01  0.20037449788E+02  0.00000000000E+00 0. -1.
</event>
<event>
 7    1  0.2714068E-010  0.4778727E+02  0.7816164E-02  0.1312668E+00
        -11   -1    0    0    0    0  0.00000000000E+00  0.00000000000E+00  0.45593999997E+02  0.45594000000E+02  0.51100000000E-03 0. -1.
         11   -1    0    0    0    0 -0.00000000000E+00 -0.00000000000E+00 -0.45593999997E+02  0.45594000000E+02  0.51100000000E-03 0.  1.
    9900012    2    1    2    0    0  0.12536826414E+02 -0.34536056489E+02  0.23102218511E+02  0.47787265969E+02  0.19999976859E+02 0.  0.
        -12    1    1    2    0    0 -0.12536826414E+02  0.34536056489E+02 -0.23102218511E+02  0.43400734031E+02  0.00000000000E+00 0.  1.
         11    1    3    3    0    0  0.12562861113E+02 -0.16468777488E+02  0.88097331342E+01  0.22509053944E+02  0.51100000000E-03 0. -1.
        -11    1    3    3    0    0 -0.32800844747E+01 -0.10808351227E+01  0.14962856015E+01  0.37637786313E+01  0.51100000000E-03 0.  1.
        -12    1    3    3    0    0  0.32540497752E+01 -0.16986443878E+02  0.12796199775E+02  0.21514433394E+02  0.00000000000E+00 0.  1.
</event>
<event>
 7    1  0.2714068E-010  0.4778727E+02  0.7816164E-02  0.1312668E+00
        -11   -1    0    0    0    0  0.00000000000E+00  0.00000000000E+00  0.45593999997E+02  0.45594000000E+02  0.51100000000E-03 0. -1.
         11   -1    0    0    0    0 -0.00000000000E+00 -0.00000000000E+00 -0.45593999997E+02  0.45594000000E+02  0.51100000000E-03 0.  1.
    9900012    2    1    2    0    0  0.23584526840E+02  0.32416044704E+02 -0.16631111021E+02  0.47787265971E+02  0.19999976866E+02 0.  0.
        -12    1    1    2    0    0 -0.23584526840E+02 -0.32416044704E+02  0.16631111021E+02  0.43400734029E+02  0.00000000000E+00 0.  1.
         11    1    3    3    0    0  0.10131440124E+02  0.17775495768E+02 -0.16580614490E+02  0.26334978753E+02  0.51100000000E-03 0. -1.
        -11    1    3    3    0    0  0.78725203491E+01  0.38135160591E+01  0.23047242825E+01  0.90460618868E+01  0.51100000000E-03 0.  1.
        -12    1    3    3    0    0  0.55805663667E+01  0.10827032877E+02 -0.23552208142E+01  0.12406225331E+02  0.00000000000E+00 0.  1.
</event>
<event>
 7    1  0.2714068E-010  0.4778727E+02  0.7816164E-02  0.1312668E+00
        -11   -1    0    0    0    0  0.00000000000E+00  0.00000000000E+00  0.45593999997E+02  0.45594000000E+02  0.51100000000E-03 0.  1.
         11   -1    0    0    0    0 -0.00000000000E+00 -0.00000000000E+00 -0.45593999997E+02  0.45594000000E+02  0.51100000000E-03 0. -1.
    9900012    2    1    2    0    0  0.79484718626E+01  0.47078522928E+01 -0.42406143412E+02  0.47787273310E+02  0.20000010330E+02 0.  0.
        -12    1    1    2    0    0 -0.79484718626E+01 -0.47078522928E+01  0.42406143412E+02  0.43400726690E+02  0.00000000000E+00 0.  1.
         11    1    3    3    0    0  0.48962338183E+01 -0.40345531357E+01 -0.89789210526E+01  0.10994168824E+02  0.51100000000E-03 0. -1.
        -11    1    3    3    0    0  0.22555491674E+01  0.11476570788E+02 -0.30689500254E+02  0.32842725301E+02  0.51100000000E-03 0.  1.
        -12    1    3    3    0    0  0.79668887688E+00 -0.27341653593E+01 -0.27377221054E+01  0.39503791850E+01  0.00000000000E+00 0.  1.
</event>
<event>
 7    1  0.2714068E-010  0.4778727E+02  0.7816164E-02  0.1312668E+00
        -11   -1    0    0    0    0  0.00000000000E+00  0.00000000000E+00  0.45593999997E+02  0.45594000000E+02  0.51100000000E-03 0. -1.
         11   -1    0    0    0    0 -0.00000000000E+00 -0.00000000000E+00 -0.45593999997E+02  0.45594000000E+02  0.51100000000E-03 0.  1.
    9900012    2    1    2    0    0  0.15970531674E+02  0.26159503319E+02 -0.30728582985E+02  0.47787270650E+02  0.19999998202E+02 0.  0.
        -12    1    1    2    0    0 -0.15970531674E+02 -0.26159503319E+02  0.30728582985E+02  0.43400729350E+02  0.00000000000E+00 0.  1.
         11    1    3    3    0    0  0.22717695149E+01  0.65326907825E+01  0.63182788260E+00  0.69452280253E+01  0.51100000000E-03 0. -1.
        -11    1    3    3    0    0  0.13647037865E+02  0.10983950265E+02 -0.20681982193E+02  0.27104117650E+02  0.51100000000E-03 0.  1.
         12    1    3    3    0    0  0.51724294531E-01  0.86428622714E+01 -0.10678428675E+02  0.13737924974E+02  0.00000000000E+00 0. -1.
</event>
<event>
 7    1  0.2714068E-010  0.4778727E+02  0.7816164E-02  0.1312668E+00
        -11   -1    0    0    0    0  0.00000000000E+00  0.00000000000E+00  0.45593999997E+02  0.45594000000E+02  0.51100000000E-03 0. -1.
         11   -1    0    0    0    0 -0.00000000000E+00 -0.00000000000E+00 -0.45593999997E+02  0.45594000000E+02  0.51100000000E-03 0.  1.
    9900012    2    1    2    0    0 -0.38849466355E+01 -0.42176844962E+02  0.94680657777E+01  0.47787270388E+02  0.19999997005E+02 0.  0.
        -12    1    1    2    0    0  0.38849466355E+01  0.42176844962E+02 -0.94680657777E+01  0.43400729612E+02  0.00000000000E+00 0.  1.
         11    1    3    3    0    0 -0.46665942217E+01 -0.17612319973E+02  0.11440877007E+02  0.21514287890E+02  0.51100000000E-03 0. -1.
        -11    1    3    3    0    0  0.32553329010E+00 -0.64577217968E+00 -0.22343303312E+01  0.23484518137E+01  0.51100000000E-03 0.  1.
         12    1    3    3    0    0  0.45611429609E+00 -0.23918752809E+02  0.26151910177E+00  0.23924530684E+02  0.00000000000E+00 0. -1.
</event>
<event>
 7    1  0.2714068E-010  0.4778727E+02  0.7816164E-02  0.1312668E+00
        -11   -1    0    0    0    0  0.00000000000E+00  0.00000000000E+00  0.45593999997E+02  0.45594000000E+02  0.51100000000E-03 0.  1.
         11   -1    0    0    0    0 -0.00000000000E+00 -0.00000000000E+00 -0.45593999997E+02  0.45594000000E+02  0.51100000000E-03 0. -1.
    9900012    2    1    2    0    0 -0.21063249543E+02 -0.95863359509E+01 -0.36716003521E+02  0.47787271517E+02  0.20000002154E+02 0.  0.
        -12    1    1    2    0    0  0.21063249543E+02  0.95863359509E+01  0.36716003521E+02  0.43400728483E+02  0.00000000000E+00 0.  1.
         11    1    3    3    0    0  0.78337326712E+00  0.25677508635E+01 -0.78763191526E+01  0.83212632350E+01  0.51100000000E-03 0. -1.
        -11    1    3    3    0    0 -0.18056052490E+02 -0.81007145952E+01 -0.15898671868E+02  0.25385239331E+02  0.51100000000E-03 0.  1.
        -12    1    3    3    0    0 -0.37905703208E+01 -0.40533722192E+01 -0.12941012501E+02  0.14080768951E+02  0.00000000000E+00 0.  1.
</event>
<event>
 7    1  0.2714068E-010  0.4778727E+02  0.7816164E-02  0.1312668E+00
        -11   -1    0    0    0    0  0.00000000000E+00  0.00000000000E+00  0.45593999997E+02  0.45594000000E+02  0.51100000000E-03 0. -1.
         11   -1    0    0    0    0 -0.00000000000E+00 -0.00000000000E+00 -0.45593999997E+02  0.45594000000E+02  0.51100000000E-03 0.  1.
    9900012    2    1    2    0    0  0.14766145301E+02 -0.34807046881E+02  0.21308545097E+02  0.47787266668E+02  0.19999980045E+02 0.  0.
        -12    1    1    2    0    0 -0.14766145301E+02  0.34807046881E+02 -0.21308545097E+02  0.43400733332E+02  0.00000000000E+00 0.  1.
         11    1    3    3    0    0  0.69974324271E+01 -0.24654279143E+02  0.18483063221E+02  0.31597803198E+02  0.51100000000E-03 0. -1.
        -11    1    3    3    0    0  0.30827427133E+01 -0.83511795465E+01 -0.21107763723E+01  0.91488184816E+01  0.51100000000E-03 0.  1.
         12    1    3    3    0    0  0.46859701609E+01 -0.18015881916E+01  0.49362582478E+01  0.70406449882E+01  0.00000000000E+00 0. -1.
</event>
<event>
 7    1  0.2714068E-010  0.4778728E+02  0.7816164E-02  0.1312668E+00
        -11   -1    0    0    0    0  0.00000000000E+00  0.00000000000E+00  0.45593999997E+02  0.45594000000E+02  0.51100000000E-03 0.  1.
         11   -1    0    0    0    0 -0.00000000000E+00 -0.00000000000E+00 -0.45593999997E+02  0.45594000000E+02  0.51100000000E-03 0. -1.
    9900012    2    1    2    0    0  0.28115427923E+02  0.28853488492E+02 -0.16143779246E+02  0.47787277727E+02  0.20000030470E+02 0.  0.
        -12    1    1    2    0    0 -0.28115427923E+02 -0.28853488492E+02  0.16143779246E+02  0.43400722273E+02  0.00000000000E+00 0.  1.
         11    1    3    3    0    0  0.12288532406E+02  0.13687443391E+02 -0.18051124778E+02  0.25772024393E+02  0.51100000000E-03 0. -1.
        -11    1    3    3    0    0  0.84054426509E+01  0.76076044078E+01  0.81447063821E+00  0.11366198734E+02  0.51100000000E-03 0.  1.
         12    1    3    3    0    0  0.74214528653E+01  0.75584406934E+01  0.10928748942E+01  0.10649054600E+02  0.00000000000E+00 0. -1.
</event>
<event>
 7    1  0.2714068E-010  0.4778727E+02  0.7816164E-02  0.1312668E+00
        -11   -1    0    0    0    0  0.00000000000E+00  0.00000000000E+00  0.45593999997E+02  0.45594000000E+02  0.51100000000E-03 0.  1.
         11   -1    0    0    0    0 -0.00000000000E+00 -0.00000000000E+00 -0.45593999997E+02  0.45594000000E+02  0.51100000000E-03 0. -1.
    9900012    2    1    2    0    0  0.99586394222E+01 -0.29013901961E+02 -0.30702477966E+02  0.47787272364E+02  0.20000006014E+02 0.  0.
        -12    1    1    2    0    0 -0.99586394222E+01  0.29013901961E+02  0.30702477966E+02  0.43400727636E+02  0.00000000000E+00 0.  1.
         11    1    3    3    0    0  0.54928384935E+01 -0.21569833117E+02 -0.18755333283E+02  0.29106554283E+02  0.51100000000E-03 0. -1.
        -11    1    3    3    0    0  0.57272489620E+01  0.66317533624E+00 -0.71186245508E+01  0.91605675564E+01  0.51100000000E-03 0.  1.
        -12    1    3    3    0    0 -0.12614480333E+01 -0.81072441798E+01 -0.48285201320E+01  0.95201505238E+01  0.00000000000E+00 0.  1.
</event>
<event>
 7    1  0.2714068E-010  0.4778725E+02  0.7816164E-02  0.1312668E+00
        -11   -1    0    0    0    0  0.00000000000E+00  0.00000000000E+00  0.45593999997E+02  0.45594000000E+02  0.51100000000E-03 0.  1.
         11   -1    0    0    0    0 -0.00000000000E+00 -0.00000000000E+00 -0.45593999997E+02  0.45594000000E+02  0.51100000000E-03 0. -1.
    9900012    2    1    2    0    0  0.10486438655E+02  0.40219040664E+02 -0.12493524730E+02  0.47787253603E+02  0.19999920477E+02 0.  0.
        -12    1    1    2    0    0 -0.10486438655E+02 -0.40219040664E+02  0.12493524730E+02  0.43400746397E+02  0.00000000000E+00 0.  1.
         11    1    3    3    0    0  0.55712025565E+01  0.10076956943E+02  0.33985254552E+01  0.12005554327E+02  0.51100000000E-03 0. -1.
        -11    1    3    3    0    0 -0.10916369093E+01  0.89757013123E+01 -0.89200126876E+01  0.12701240561E+02  0.51100000000E-03 0.  1.
         12    1    3    3    0    0  0.60068730082E+01  0.21166382409E+02 -0.69720374980E+01  0.23080458715E+02  0.00000000000E+00 0. -1.
</event>
<event>
 7    1  0.2714068E-010  0.4778728E+02  0.7816164E-02  0.1312668E+00
        -11   -1    0    0    0    0  0.00000000000E+00  0.00000000000E+00  0.45593999997E+02  0.45594000000E+02  0.51100000000E-03 0.  1.
         11   -1    0    0    0    0 -0.00000000000E+00 -0.00000000000E+00 -0.45593999997E+02  0.45594000000E+02  0.51100000000E-03 0. -1.
    9900012    2    1    2    0    0 -0.14043130231E+02 -0.15025180918E+02 -0.38218547036E+02  0.47787275285E+02  0.20000019334E+02 0.  0.
        -12    1    1    2    0    0  0.14043130231E+02  0.15025180918E+02  0.38218547036E+02  0.43400724715E+02  0.00000000000E+00 0.  1.
         11    1    3    3    0    0 -0.37636136478E+01  0.18169937547E+01 -0.28224737057E+01  0.50430756563E+01  0.51100000000E-03 0.  1.
        -11    1    3    3    0    0 -0.20717809361E+01 -0.11912760833E+02 -0.28458265409E+02  0.30920527441E+02  0.51100000000E-03 0. -1.
         12    1    3    3    0    0 -0.82077356467E+01 -0.49294138393E+01 -0.69378079212E+01  0.11823672187E+02  0.00000000000E+00 0. -1.
</event>
<event>
 7    1  0.2714068E-010  0.4778727E+02  0.7816164E-02  0.1312668E+00
        -11   -1    0    0    0    0  0.00000000000E+00  0.00000000000E+00  0.45593999997E+02  0.45594000000E+02  0.51100000000E-03 0.  1.
         11   -1    0    0    0    0 -0.00000000000E+00 -0.00000000000E+00 -0.45593999997E+02  0.45594000000E+02  0.51100000000E-03 0. -1.
    9900012    2    1    2    0    0 -0.39597996597E+02  0.14342761895E+02 -0.10483660483E+02  0.47787270855E+02  0.19999999134E+02 0.  0.
        -12    1    1    2    0    0  0.39597996597E+02 -0.14342761895E+02  0.10483660483E+02  0.43400729145E+02  0.00000000000E+00 0.  1.
         11    1    3    3    0    0 -0.31091060446E+02  0.60699800277E+01 -0.89986878697E+00  0.31690826137E+02  0.51100000000E-03 0. -1.
        -11    1    3    3    0    0 -0.18063812259E+01  0.56877917523E+00 -0.40780793944E+01  0.44963601603E+01  0.51100000000E-03 0.  1.
         12    1    3    3    0    0 -0.67005549251E+01  0.77040026920E+01 -0.55057123016E+01  0.11600084557E+02  0.00000000000E+00 0. -1.
</event>
<event>
 7    1  0.2714068E-010  0.4778726E+02  0.7816164E-02  0.1312668E+00
        -11   -1    0    0    0    0  0.00000000000E+00  0.00000000000E+00  0.45593999997E+02  0.45594000000E+02  0.51100000000E-03 0.  1.
         11   -1    0    0    0    0 -0.00000000000E+00 -0.00000000000E+00 -0.45593999997E+02  0.45594000000E+02  0.51100000000E-03 0. -1.
    9900012    2    1    2    0    0 -0.55094058141E+01 -0.59781902994E+01 -0.42632526936E+02  0.47787255022E+02  0.19999926948E+02 0.  0.
        -12    1    1    2    0    0  0.55094058141E+01  0.59781902994E+01  0.42632526936E+02  0.43400744978E+02  0.00000000000E+00 0.  1.
         11    1    3    3    0    0 -0.67119560767E+01 -0.39551072353E+01 -0.27983236728E+02  0.29047457129E+02  0.51100000000E-03 0. -1.
        -11    1    3    3    0    0 -0.62443710621E+00 -0.60203154121E+01 -0.40970463263E+01  0.73088924074E+01  0.51100000000E-03 0.  1.
         12    1    3    3    0    0  0.18269873688E+01  0.39972323480E+01 -0.10552243882E+02  0.11430905486E+02  0.00000000000E+00 0. -1.
</event>
<event>
 7    1  0.2714068E-010  0.4778727E+02  0.7816164E-02  0.1312668E+00
        -11   -1    0    0    0    0  0.00000000000E+00  0.00000000000E+00  0.45593999997E+02  0.45594000000E+02  0.51100000000E-03 0.  1.
         11   -1    0    0    0    0 -0.00000000000E+00 -0.00000000000E+00 -0.45593999997E+02  0.45594000000E+02  0.51100000000E-03 0. -1.
    9900012    2    1    2    0    0  0.17964997267E+01 -0.29753625031E+02 -0.31545486068E+02  0.47787270686E+02  0.19999998364E+02 0.  0.
        -12    1    1    2    0    0 -0.17964997267E+01  0.29753625031E+02  0.31545486068E+02  0.43400729314E+02  0.00000000000E+00 0.  1.
         11    1    3    3    0    0 -0.61308173059E+01 -0.13412863775E+02 -0.14569699955E+02  0.20730846402E+02  0.51100000000E-03 0. -1.
        -11    1    3    3    0    0  0.61282145724E+01 -0.64252780453E+01 -0.21597463885E+01  0.91380367984E+01  0.51100000000E-03 0.  1.
         12    1    3    3    0    0  0.17991024602E+01 -0.99154832103E+01 -0.14816039724E+02  0.17918387485E+02  0.00000000000E+00 0. -1.
</event>
<event>
 7    1  0.2714068E-010  0.4778728E+02  0.7816164E-02  0.1312668E+00
        -11   -1    0    0    0    0  0.00000000000E+00  0.00000000000E+00  0.45593999997E+02  0.45594000000E+02  0.51100000000E-03 0.  1.
         11   -1    0    0    0    0 -0.00000000000E+00 -0.00000000000E+00 -0.45593999997E+02  0.45594000000E+02  0.51100000000E-03 0. -1.
    9900012    2    1    2    0    0  0.14161670065E+02 -0.30327115766E+02 -0.27628532415E+02  0.47787278196E+02  0.20000032608E+02 0.  0.
        -12    1    1    2    0    0 -0.14161670065E+02  0.30327115766E+02  0.27628532415E+02  0.43400721804E+02  0.00000000000E+00 0.  1.
         11    1    3    3    0    0  0.68882826510E+01 -0.93515098752E+01 -0.11609047960E+02  0.16421606792E+02  0.51100000000E-03 0. -1.
        -11    1    3    3    0    0 -0.63514276178E+00 -0.13665707297E+02 -0.15370349491E+02  0.20576749160E+02  0.51100000000E-03 0.  1.
        -12    1    3    3    0    0  0.79085301759E+01 -0.73098985940E+01 -0.64913496352E+00  0.10788922245E+02  0.00000000000E+00 0.  1.
</event>
<event>
 7    1  0.2714068E-010  0.4778727E+02  0.7816164E-02  0.1312668E+00
        -11   -1    0    0    0    0  0.00000000000E+00  0.00000000000E+00  0.45593999997E+02  0.45594000000E+02  0.51100000000E-03 0.  1.
         11   -1    0    0    0    0 -0.00000000000E+00 -0.00000000000E+00 -0.45593999997E+02  0.45594000000E+02  0.51100000000E-03 0. -1.
    9900012    2    1    2    0    0  0.59279589390E+01  0.45397243715E+01 -0.42753633974E+02  0.47787274055E+02  0.20000013726E+02 0.  0.
        -12    1    1    2    0    0 -0.59279589390E+01 -0.45397243715E+01  0.42753633974E+02  0.43400725945E+02  0.00000000000E+00 0.  1.
         11    1    3    3    0    0 -0.17976765313E+01  0.11118255536E+01 -0.21952175562E+02  0.22053702844E+02  0.51100000000E-03 0. -1.
        -11    1    3    3    0    0  0.59555378643E+01  0.58647999993E+01 -0.51999114280E+01  0.98439519201E+01  0.51100000000E-03 0.  1.
        -12    1    3    3    0    0  0.17700976060E+01 -0.24369011814E+01 -0.15601546984E+02  0.15889619291E+02  0.00000000000E+00 0.  1.
</event>
<event>
 7    1  0.2714068E-010  0.4778727E+02  0.7816164E-02  0.1312668E+00
        -11   -1    0    0    0    0  0.00000000000E+00  0.00000000000E+00  0.45593999997E+02  0.45594000000E+02  0.51100000000E-03 0. -1.
         11   -1    0    0    0    0 -0.00000000000E+00 -0.00000000000E+00 -0.45593999997E+02  0.45594000000E+02  0.51100000000E-03 0.  1.
    9900012    2    1    2    0    0 -0.21942860555E+02 -0.10289666734E+02  0.36003566040E+02  0.47787272605E+02  0.20000007113E+02 0.  0.
        -12    1    1    2    0    0  0.21942860555E+02  0.10289666734E+02 -0.36003566040E+02  0.43400727395E+02  0.00000000000E+00 0.  1.
         11    1    3    3    0    0 -0.10977990719E+02 -0.10552801881E+02  0.23678148231E+02  0.28151955734E+02  0.51100000000E-03 0. -1.
        -11    1    3    3    0    0  0.75421746598E+00  0.18226556834E+01 -0.65454926881E+00  0.20783052549E+01  0.51100000000E-03 0.  1.
         12    1    3    3    0    0 -0.11719087303E+02 -0.15595205367E+01  0.12979967078E+02  0.17557011615E+02  0.00000000000E+00 0. -1.
</event>
<event>
 7    1  0.2714068E-010  0.4778727E+02  0.7816164E-02  0.1312668E+00
        -11   -1    0    0    0    0  0.00000000000E+00  0.00000000000E+00  0.45593999997E+02  0.45594000000E+02  0.51100000000E-03 0.  1.
         11   -1    0    0    0    0 -0.00000000000E+00 -0.00000000000E+00 -0.45593999997E+02  0.45594000000E+02  0.51100000000E-03 0. -1.
    9900012    2    1    2    0    0 -0.26800492219E+02 -0.12878692923E+02 -0.31614808957E+02  0.47787271205E+02  0.20000000732E+02 0.  0.
        -12    1    1    2    0    0  0.26800492219E+02  0.12878692923E+02  0.31614808957E+02  0.43400728795E+02  0.00000000000E+00 0.  1.
         11    1    3    3    0    0 -0.90997027154E+01  0.40965290931E+01 -0.85890199876E+01  0.13166525917E+02  0.51100000000E-03 0. -1.
        -11    1    3    3    0    0  0.76891430193E+00 -0.17482869724E+01 -0.19096341136E+01  0.27008219583E+01  0.51100000000E-03 0.  1.
         12    1    3    3    0    0 -0.18469703805E+02 -0.15226935043E+02 -0.21116154856E+02  0.31919923329E+02  0.00000000000E+00 0. -1.
</event>
<event>
 7    1  0.2714068E-010  0.4778727E+02  0.7816164E-02  0.1312668E+00
        -11   -1    0    0    0    0  0.00000000000E+00  0.00000000000E+00  0.45593999997E+02  0.45594000000E+02  0.51100000000E-03 0. -1.
         11   -1    0    0    0    0 -0.00000000000E+00 -0.00000000000E+00 -0.45593999997E+02  0.45594000000E+02  0.51100000000E-03 0.  1.
    9900012    2    1    2    0    0 -0.16300115106E+02 -0.35103909556E+02 -0.19637854029E+02  0.47787268100E+02  0.19999986576E+02 0.  0.
        -12    1    1    2    0    0  0.16300115106E+02  0.35103909556E+02  0.19637854029E+02  0.43400731900E+02  0.00000000000E+00 0.  1.
         11    1    3    3    0    0 -0.12239678892E+02 -0.75593655311E+01 -0.62550583962E+01  0.15686921381E+02  0.51100000000E-03 0. -1.
        -11    1    3    3    0    0 -0.57217577313E+01 -0.16263019252E+02 -0.11000984847E+02  0.20451062921E+02  0.51100000000E-03 0.  1.
         12    1    3    3    0    0  0.16613215177E+01 -0.11281524773E+02 -0.23818107855E+01  0.11649283798E+02  0.00000000000E+00 0. -1.
</event>
<event>
 7    1  0.2714068E-010  0.4778727E+02  0.7816164E-02  0.1312668E+00
        -11   -1    0    0    0    0  0.00000000000E+00  0.00000000000E+00  0.45593999997E+02  0.45594000000E+02  0.51100000000E-03 0.  1.
         11   -1    0    0    0    0 -0.00000000000E+00 -0.00000000000E+00 -0.45593999997E+02  0.45594000000E+02  0.51100000000E-03 0. -1.
    9900012    2    1    2    0    0 -0.11917384186E+02  0.37282112998E+02 -0.18752163259E+02  0.47787267030E+02  0.19999981698E+02 0.  0.
        -12    1    1    2    0    0  0.11917384186E+02 -0.37282112998E+02  0.18752163259E+02  0.43400732970E+02  0.00000000000E+00 0.  1.
         11    1    3    3    0    0 -0.43574539385E+01  0.79516513977E+01  0.10897509662E+00  0.90679678324E+01  0.51100000000E-03 0. -1.
        -11    1    3    3    0    0 -0.11413604495E+02  0.14479622467E+02 -0.11168778793E+02  0.21556239337E+02  0.51100000000E-03 0.  1.
        -12    1    3    3    0    0  0.38536742470E+01  0.14850839133E+02 -0.76923595627E+01  0.17163059861E+02  0.00000000000E+00 0.  1.
</event>
<event>
 7    1  0.2714068E-010  0.4778731E+02  0.7816164E-02  0.1312668E+00
        -11   -1    0    0    0    0  0.00000000000E+00  0.00000000000E+00  0.45593999997E+02  0.45594000000E+02  0.51100000000E-03 0. -1.
         11   -1    0    0    0    0 -0.00000000000E+00 -0.00000000000E+00 -0.45593999997E+02  0.45594000000E+02  0.51100000000E-03 0.  1.
    9900012    2    1    2    0    0  0.15056584409E+02 -0.23455884831E+01  0.40637633254E+02  0.47787311573E+02  0.20000184787E+02 0.  0.
        -12    1    1    2    0    0 -0.15056584409E+02  0.23455884831E+01 -0.40637633254E+02  0.43400688427E+02  0.00000000000E+00 0.  1.
         11    1    3    3    0    0 -0.67833412742E+00 -0.38406352529E+01  0.14610361864E+02  0.15121947308E+02  0.51100000000E-03 0. -1.
        -11    1    3    3    0    0 -0.97246018764E-01 -0.30551161278E+01  0.59994092106E+01  0.67332089289E+01  0.51100000000E-03 0.  1.
         12    1    3    3    0    0  0.15832164555E+02  0.45501628975E+01  0.20027862180E+02  0.25932155336E+02  0.00000000000E+00 0. -1.
</event>
<event>
 7    1  0.2714068E-010  0.4778727E+02  0.7816164E-02  0.1312668E+00
        -11   -1    0    0    0    0  0.00000000000E+00  0.00000000000E+00  0.45593999997E+02  0.45594000000E+02  0.51100000000E-03 0.  1.
         11   -1    0    0    0    0 -0.00000000000E+00 -0.00000000000E+00 -0.45593999997E+02  0.45594000000E+02  0.51100000000E-03 0. -1.
    9900012    2    1    2    0    0  0.36842579844E+02 -0.21004231760E+02 -0.92233191048E+01  0.47787273546E+02  0.20000011406E+02 0.  0.
        -12    1    1    2    0    0 -0.36842579844E+02  0.21004231760E+02  0.92233191048E+01  0.43400726454E+02  0.00000000000E+00 0.  1.
         11    1    3    3    0    0  0.27868286197E+02 -0.11728917166E+02 -0.95028924945E+01  0.31694066313E+02  0.51100000000E-03 0. -1.
        -11    1    3    3    0    0  0.21375967080E+01 -0.87549474047E+01  0.14788048762E+01  0.91326495535E+01  0.51100000000E-03 0.  1.
        -12    1    3    3    0    0  0.68366969390E+01 -0.52036718977E+00 -0.11992314865E+01  0.69605576793E+01  0.00000000000E+00 0.  1.
</event>
<event>
 7    1  0.2714068E-010  0.4778727E+02  0.7816164E-02  0.1312668E+00
        -11   -1    0    0    0    0  0.00000000000E+00  0.00000000000E+00  0.45593999997E+02  0.45594000000E+02  0.51100000000E-03 0.  1.
         11   -1    0    0    0    0 -0.00000000000E+00 -0.00000000000E+00 -0.45593999997E+02  0.45594000000E+02  0.51100000000E-03 0. -1.
    9900012    2    1    2    0    0 -0.42922325027E+02  0.56418297352E+01 -0.30768448000E+01  0.47787271867E+02  0.20000003752E+02 0.  0.
        -12    1    1    2    0    0  0.42922325027E+02 -0.56418297352E+01  0.30768448000E+01  0.43400728133E+02  0.00000000000E+00 0.  1.
         11    1    3    3    0    0 -0.13011504474E+02 -0.16969208719E+01 -0.77284931156E+01  0.15228538841E+02  0.51100000000E-03 0. -1.
        -11    1    3    3    0    0 -0.18586492608E+02  0.20472930641E+01  0.67585061984E+01  0.19882819786E+02  0.51100000000E-03 0.  1.
        -12    1    3    3    0    0 -0.11324327945E+02  0.52914575430E+01 -0.21068578828E+01  0.12675913240E+02  0.00000000000E+00 0.  1.
</event>
<event>
 7    1  0.2714068E-010  0.4778726E+02  0.7816164E-02  0.1312668E+00
        -11   -1    0    0    0    0  0.00000000000E+00  0.00000000000E+00  0.45593999997E+02  0.45594000000E+02  0.51100000000E-03 0. -1.
         11   -1    0    0    0    0 -0.00000000000E+00 -0.00000000000E+00 -0.45593999997E+02  0.45594000000E+02  0.51100000000E-03 0.  1.
    9900012    2    1    2    0    0  0.25897618311E+01  0.85510337779E+00  0.43314964147E+02  0.47787260523E+02  0.19999952026E+02 0.  0.
        -12    1    1    2    0    0 -0.25897618311E+01 -0.85510337779E+00 -0.43314964147E+02  0.43400739477E+02  0.00000000000E+00 0.  1.
         11    1    3    3    0    0 -0.63164100935E+00  0.52345787260E+01  0.38461969511E+02  0.38821680588E+02  0.51100000000E-03 0. -1.
        -11    1    3    3    0    0  0.17589090270E+01 -0.54237495525E+01  0.40697223385E+01  0.70052452025E+01  0.51100000000E-03 0.  1.
         12    1    3    3    0    0  0.14624938135E+01  0.10442742042E+01  0.78327229805E+00  0.19603347319E+01  0.00000000000E+00 0. -1.
</event>
<event>
 7    1  0.2714068E-010  0.4778728E+02  0.7816164E-02  0.1312668E+00
        -11   -1    0    0    0    0  0.00000000000E+00  0.00000000000E+00  0.45593999997E+02  0.45594000000E+02  0.51100000000E-03 0. -1.
         11   -1    0    0    0    0 -0.00000000000E+00 -0.00000000000E+00 -0.45593999997E+02  0.45594000000E+02  0.51100000000E-03 0.  1.
    9900012    2    1    2    0    0  0.27854057932E+01 -0.37708176352E+02  0.21306283837E+02  0.47787276732E+02  0.20000025931E+02 0.  0.
        -12    1    1    2    0    0 -0.27854057932E+01  0.37708176352E+02 -0.21306283837E+02  0.43400723268E+02  0.00000000000E+00 0.  1.
         11    1    3    3    0    0 -0.38340986954E+01 -0.79263013273E+01  0.44990056193E+01  0.98877508747E+01  0.51100000000E-03 0. -1.
        -11    1    3    3    0    0  0.10574537362E+02 -0.15915778384E+02  0.12564392539E+02  0.22869123335E+02  0.51100000000E-03 0.  1.
        -12    1    3    3    0    0 -0.39550328731E+01 -0.13866096641E+02  0.42428856789E+01  0.15030402522E+02  0.00000000000E+00 0.  1.
</event>
<event>
 7    1  0.2714068E-010  0.4778727E+02  0.7816164E-02  0.1312668E+00
        -11   -1    0    0    0    0  0.00000000000E+00  0.00000000000E+00  0.45593999997E+02  0.45594000000E+02  0.51100000000E-03 0.  1.
         11   -1    0    0    0    0 -0.00000000000E+00 -0.00000000000E+00 -0.45593999997E+02  0.45594000000E+02  0.51100000000E-03 0. -1.
    9900012    2    1    2    0    0  0.14755658239E+02 -0.18288471177E+02 -0.36488708393E+02  0.47787268805E+02  0.19999989789E+02 0.  0.
        -12    1    1    2    0    0 -0.14755658239E+02  0.18288471177E+02  0.36488708393E+02  0.43400731195E+02  0.00000000000E+00 0.  1.
         11    1    3    3    0    0  0.27452883062E+01  0.76804530231E+00 -0.76098136653E+01  0.81262393364E+01  0.51100000000E-03 0. -1.
        -11    1    3    3    0    0  0.12857621093E+02 -0.15348621433E+02 -0.29652730515E+02  0.35779645433E+02  0.51100000000E-03 0.  1.
        -12    1    3    3    0    0 -0.84725116005E+00 -0.37078950471E+01  0.77383578696E+00  0.38813840358E+01  0.00000000000E+00 0.  1.
</event>
<event>
 7    1  0.2714068E-010  0.4778727E+02  0.7816164E-02  0.1312668E+00
        -11   -1    0    0    0    0  0.00000000000E+00  0.00000000000E+00  0.45593999997E+02  0.45594000000E+02  0.51100000000E-03 0. -1.
         11   -1    0    0    0    0 -0.00000000000E+00 -0.00000000000E+00 -0.45593999997E+02  0.45594000000E+02  0.51100000000E-03 0.  1.
    9900012    2    1    2    0    0 -0.29368528586E+02  0.25944723516E+02  0.18654333808E+02  0.47787270520E+02  0.19999997608E+02 0.  0.
        -12    1    1    2    0    0  0.29368528586E+02 -0.25944723516E+02 -0.18654333808E+02  0.43400729480E+02  0.00000000000E+00 0.  1.
         11    1    3    3    0    0 -0.27016090600E+02  0.17709643324E+02  0.10457293187E+02  0.33953727322E+02  0.51100000000E-03 0. -1.
        -11    1    3    3    0    0 -0.11459011556E+01  0.71095916263E+01  0.93637965765E+01  0.11812707951E+02  0.51100000000E-03 0.  1.
         12    1    3    3    0    0 -0.12065368299E+01  0.11254885659E+01 -0.11667559562E+01  0.20208352469E+01  0.00000000000E+00 0. -1.
</event>
<event>
 7    1  0.2714068E-010  0.4778727E+02  0.7816164E-02  0.1312668E+00
        -11   -1    0    0    0    0  0.00000000000E+00  0.00000000000E+00  0.45593999997E+02  0.45594000000E+02  0.51100000000E-03 0.  1.
         11   -1    0    0    0    0 -0.00000000000E+00 -0.00000000000E+00 -0.45593999997E+02  0.45594000000E+02  0.51100000000E-03 0. -1.
    9900012    2    1    2    0    0  0.37788193141E+02 -0.42780421841E+01 -0.20913501326E+02  0.47787265865E+02  0.19999976385E+02 0.  0.
        -12    1    1    2    0    0 -0.37788193141E+02  0.42780421841E+01  0.20913501326E+02  0.43400734135E+02  0.00000000000E+00 0.  1.
         11    1    3    3    0    0  0.26983273038E+02 -0.34177686869E+01 -0.17827289171E+02  0.32520615094E+02  0.51100000000E-03 0. -1.
        -11    1    3    3    0    0 -0.95451757456E+00  0.24529131269E+01  0.12286586671E+00  0.26349540586E+01  0.51100000000E-03 0.  1.
         12    1    3    3    0    0  0.11759437677E+02 -0.33131866242E+01 -0.32090780214E+01  0.12631696712E+02  0.00000000000E+00 0. -1.
</event>
<event>
 7    1  0.2714068E-010  0.4778727E+02  0.7816164E-02  0.1312668E+00
        -11   -1    0    0    0    0  0.00000000000E+00  0.00000000000E+00  0.45593999997E+02  0.45594000000E+02  0.51100000000E-03 0.  1.
         11   -1    0    0    0    0 -0.00000000000E+00 -0.00000000000E+00 -0.45593999997E+02  0.45594000000E+02  0.51100000000E-03 0. -1.
    9900012    2    1    2    0    0 -0.52033221661E+01 -0.77284315556E+01 -0.42388918189E+02  0.47787267275E+02  0.19999982812E+02 0.  0.
        -12    1    1    2    0    0  0.52033221661E+01  0.77284315556E+01  0.42388918189E+02  0.43400732725E+02  0.00000000000E+00 0.  1.
         11    1    3    3    0    0 -0.41890512517E+01  0.19847734386E+01 -0.13233978237E+02  0.14022327062E+02  0.51100000000E-03 0. -1.
        -11    1    3    3    0    0 -0.48060947902E+01 -0.11762699421E+02 -0.22358478368E+02  0.25716943830E+02  0.51100000000E-03 0.  1.
        -12    1    3    3    0    0  0.37918238758E+01  0.20494944263E+01 -0.67964615843E+01  0.80479963827E+01  0.00000000000E+00 0.  1.
</event>
<event>
 7    1  0.2714068E-010  0.4778727E+02  0.7816164E-02  0.1312668E+00
        -11   -1    0    0    0    0  0.00000000000E+00  0.00000000000E+00  0.45593999997E+02  0.45594000000E+02  0.51100000000E-03 0.  1.
         11   -1    0    0    0    0 -0.00000000000E+00 -0.00000000000E+00 -0.45593999997E+02  0.45594000000E+02  0.51100000000E-03 0. -1.
    9900012    2    1    2    0    0 -0.41532341594E+02  0.67674902444E+00 -0.12578945832E+02  0.47787271137E+02  0.20000000424E+02 0.  0.
        -12    1    1    2    0    0  0.41532341594E+02 -0.67674902444E+00  0.12578945832E+02  0.43400728863E+02  0.00000000000E+00 0.  1.
         11    1    3    3    0    0 -0.15330858977E+02  0.34202487471E+01 -0.57724979512E+01  0.16734846020E+02  0.51100000000E-03 0. -1.
        -11    1    3    3    0    0 -0.21897932221E+02 -0.24198894806E+01  0.10850372701E+01  0.22057937501E+02  0.51100000000E-03 0.  1.
        -12    1    3    3    0    0 -0.43035503970E+01 -0.32361024201E+00 -0.78914851505E+01  0.89944876168E+01  0.00000000000E+00 0.  1.
</event>
<event>
 7    1  0.2714068E-010  0.4778727E+02  0.7816164E-02  0.1312668E+00
        -11   -1    0    0    0    0  0.00000000000E+00  0.00000000000E+00  0.45593999997E+02  0.45594000000E+02  0.51100000000E-03 0.  1.
         11   -1    0    0    0    0 -0.00000000000E+00 -0.00000000000E+00 -0.45593999997E+02  0.45594000000E+02  0.51100000000E-03 0. -1.
    9900012    2    1    2    0    0  0.16542956193E+02  0.29180132906E+02 -0.27540402901E+02  0.47787270191E+02  0.19999996107E+02 0.  0.
        -12    1    1    2    0    0 -0.16542956193E+02 -0.29180132906E+02  0.27540402901E+02  0.43400729809E+02  0.00000000000E+00 0.  1.
         11    1    3    3    0    0  0.61393623864E+01  0.14089256196E+02 -0.21327030898E+02  0.26287661704E+02  0.51100000000E-03 0. -1.
        -11    1    3    3    0    0  0.11355144463E+02  0.11834670435E+02 -0.72788734486E+01  0.17943821473E+02  0.51100000000E-03 0.  1.
         12    1    3    3    0    0 -0.95155065657E+00  0.32562062752E+01  0.10655014461E+01  0.35557870142E+01  0.00000000000E+00 0. -1.
</event>
<event>
 7    1  0.2714068E-010  0.4778728E+02  0.7816164E-02  0.1312668E+00
        -11   -1    0    0    0    0  0.00000000000E+00  0.00000000000E+00  0.45593999997E+02  0.45594000000E+02  0.51100000000E-03 0.  1.
         11   -1    0    0    0    0 -0.00000000000E+00 -0.00000000000E+00 -0.45593999997E+02  0.45594000000E+02  0.51100000000E-03 0. -1.
    9900012    2    1    2    0    0  0.36406540796E+02 -0.93980435383E+01  0.21676333630E+02  0.47787275643E+02  0.20000020966E+02 0.  0.
        -12    1    1    2    0    0 -0.36406540796E+02  0.93980435383E+01 -0.21676333630E+02  0.43400724357E+02  0.00000000000E+00 0.  1.
         11    1    3    3    0    0  0.11765344209E+02 -0.33490851036E+01 -0.19443520941E+01  0.12386290838E+02  0.51100000000E-03 0. -1.
        -11    1    3    3    0    0  0.11507833524E+02  0.58237396108E+00  0.12153103553E+02  0.16747158508E+02  0.51100000000E-03 0.  1.
         12    1    3    3    0    0  0.13133363063E+02 -0.66313323958E+01  0.11467582171E+02  0.18653826298E+02  0.00000000000E+00 0. -1.
</event>
<event>
 7    1  0.2714068E-010  0.4778728E+02  0.7816164E-02  0.1312668E+00
        -11   -1    0    0    0    0  0.00000000000E+00  0.00000000000E+00  0.45593999997E+02  0.45594000000E+02  0.51100000000E-03 0.  1.
         11   -1    0    0    0    0 -0.00000000000E+00 -0.00000000000E+00 -0.45593999997E+02  0.45594000000E+02  0.51100000000E-03 0. -1.
    9900012    2    1    2    0    0 -0.58836580532E+01  0.86344534295E+01 -0.42124236161E+02  0.47787280072E+02  0.20000041160E+02 0.  0.
        -12    1    1    2    0    0  0.58836580532E+01 -0.86344534295E+01  0.42124236161E+02  0.43400719928E+02  0.00000000000E+00 0.  1.
         11    1    3    3    0    0  0.28786839591E+01 -0.25368185104E+01 -0.14652343649E+02  0.15146400370E+02  0.51100000000E-03 0. -1.
        -11    1    3    3    0    0 -0.52381290954E+01  0.12731527103E+02 -0.21100381895E+02  0.25194362369E+02  0.51100000000E-03 0.  1.
        -12    1    3    3    0    0 -0.35242129170E+01 -0.15602551626E+01 -0.63715106170E+01  0.74465173335E+01  0.00000000000E+00 0.  1.
</event>
<event>
 7    1  0.2714068E-010  0.4778727E+02  0.7816164E-02  0.1312668E+00
        -11   -1    0    0    0    0  0.00000000000E+00  0.00000000000E+00  0.45593999997E+02  0.45594000000E+02  0.51100000000E-03 0.  1.
         11   -1    0    0    0    0 -0.00000000000E+00 -0.00000000000E+00 -0.45593999997E+02  0.45594000000E+02  0.51100000000E-03 0. -1.
    9900012    2    1    2    0    0  0.54541387481E+01  0.20388406062E+02 -0.37923453126E+02  0.47787273874E+02  0.20000012900E+02 0.  0.
        -12    1    1    2    0    0 -0.54541387481E+01 -0.20388406062E+02  0.37923453126E+02  0.43400726126E+02  0.00000000000E+00 0.  1.
         11    1    3    3    0    0  0.21675395279E+01  0.17467160447E+02 -0.19764890500E+02  0.26466031407E+02  0.51100000000E-03 0. -1.
        -11    1    3    3    0    0 -0.51988227250E+00 -0.94532712152E+00 -0.15008614070E+02  0.15047339217E+02  0.51100000000E-03 0.  1.
         12    1    3    3    0    0  0.38064814928E+01  0.38665727368E+01 -0.31499485568E+01  0.62739032503E+01  0.00000000000E+00 0. -1.
</event>
<event>
 7    1  0.2714068E-010  0.4778727E+02  0.7816164E-02  0.1312668E+00
        -11   -1    0    0    0    0  0.00000000000E+00  0.00000000000E+00  0.45593999997E+02  0.45594000000E+02  0.51100000000E-03 0. -1.
         11   -1    0    0    0    0 -0.00000000000E+00 -0.00000000000E+00 -0.45593999997E+02  0.45594000000E+02  0.51100000000E-03 0.  1.
    9900012    2    1    2    0    0 -0.26006790630E+02  0.34688412963E+02 -0.19960293717E+01  0.47787270905E+02  0.19999999362E+02 0.  0.
        -12    1    1    2    0    0  0.26006790630E+02 -0.34688412963E+02  0.19960293717E+01  0.43400729095E+02  0.00000000000E+00 0.  1.
         11    1    3    3    0    0 -0.78826855890E+00 -0.41747542437E+00 -0.34274005070E+01  0.35415713387E+01  0.51100000000E-03 0.  1.
        -11    1    3    3    0    0 -0.22133854097E+02  0.24016210769E+02  0.11848000336E+00  0.32660372237E+02  0.51100000000E-03 0. -1.
         12    1    3    3    0    0 -0.30846679739E+01  0.11089677619E+02  0.13128911320E+01  0.11585327329E+02  0.00000000000E+00 0. -1.
</event>
<event>
 7    1  0.2714068E-010  0.4778728E+02  0.7816164E-02  0.1312668E+00
        -11   -1    0    0    0    0  0.00000000000E+00  0.00000000000E+00  0.45593999997E+02  0.45594000000E+02  0.51100000000E-03 0.  1.
         11   -1    0    0    0    0 -0.00000000000E+00 -0.00000000000E+00 -0.45593999997E+02  0.45594000000E+02  0.51100000000E-03 0. -1.
    9900012    2    1    2    0    0  0.14580617423E+02 -0.22423103426E+02 -0.34179422686E+02  0.47787275273E+02  0.20000019280E+02 0.  0.
        -12    1    1    2    0    0 -0.14580617423E+02  0.22423103426E+02  0.34179422686E+02  0.43400724727E+02  0.00000000000E+00 0.  1.
         11    1    3    3    0    0  0.57855619631E+01 -0.14423602709E+02 -0.26286812748E+02  0.30537019617E+02  0.51100000000E-03 0. -1.
        -11    1    3    3    0    0  0.81965723844E+01 -0.10957223951E+01 -0.54445213941E+01  0.99008696533E+01  0.51100000000E-03 0.  1.
        -12    1    3    3    0    0  0.59848307515E+00 -0.69037783216E+01 -0.24480885436E+01  0.73493860031E+01  0.00000000000E+00 0.  1.
</event>
<event>
 7    1  0.2714068E-010  0.4778727E+02  0.7816164E-02  0.1312668E+00
        -11   -1    0    0    0    0  0.00000000000E+00  0.00000000000E+00  0.45593999997E+02  0.45594000000E+02  0.51100000000E-03 0.  1.
         11   -1    0    0    0    0 -0.00000000000E+00 -0.00000000000E+00 -0.45593999997E+02  0.45594000000E+02  0.51100000000E-03 0. -1.
    9900012    2    1    2    0    0 -0.12570936899E+02  0.20942654923E+02 -0.35874779867E+02  0.47787273275E+02  0.20000010170E+02 0.  0.
        -12    1    1    2    0    0  0.12570936899E+02 -0.20942654923E+02  0.35874779867E+02  0.43400726725E+02  0.00000000000E+00 0.  1.
         11    1    3    3    0    0 -0.11024312937E+02  0.14166498110E+02 -0.16565968983E+02  0.24426552623E+02  0.51100000000E-03 0. -1.
        -11    1    3    3    0    0  0.40077003392E+01  0.59334440461E+01 -0.80192987589E+01  0.10750654543E+02  0.51100000000E-03 0.  1.
        -12    1    3    3    0    0 -0.55543243018E+01  0.84271276732E+00 -0.11289512125E+02  0.12610066109E+02  0.00000000000E+00 0.  1.
</event>
<event>
 7    1  0.2714068E-010  0.4778725E+02  0.7816164E-02  0.1312668E+00
        -11   -1    0    0    0    0  0.00000000000E+00  0.00000000000E+00  0.45593999997E+02  0.45594000000E+02  0.51100000000E-03 0.  1.
         11   -1    0    0    0    0 -0.00000000000E+00 -0.00000000000E+00 -0.45593999997E+02  0.45594000000E+02  0.51100000000E-03 0. -1.
    9900012    2    1    2    0    0 -0.35832288679E+02  0.20427064145E+02 -0.13505819536E+02  0.47787250895E+02  0.19999908130E+02 0.  0.
        -12    1    1    2    0    0  0.35832288679E+02 -0.20427064145E+02  0.13505819536E+02  0.43400749105E+02  0.00000000000E+00 0.  1.
         11    1    3    3    0    0 -0.56340463562E+01  0.16760300579E+01 -0.27988908122E+01  0.65104028400E+01  0.51100000000E-03 0. -1.
        -11    1    3    3    0    0 -0.64794335129E+01  0.83270667384E+01 -0.11168799189E+02  0.15364412605E+02  0.51100000000E-03 0.  1.
        -12    1    3    3    0    0 -0.23718808809E+02  0.10423967349E+02  0.46187046465E+00  0.25912435450E+02  0.00000000000E+00 0.  1.
</event>
<event>
 7    1  0.2714068E-010  0.4778727E+02  0.7816164E-02  0.1312668E+00
        -11   -1    0    0    0    0  0.00000000000E+00  0.00000000000E+00  0.45593999997E+02  0.45594000000E+02  0.51100000000E-03 0.  1.
         11   -1    0    0    0    0 -0.00000000000E+00 -0.00000000000E+00 -0.45593999997E+02  0.45594000000E+02  0.51100000000E-03 0. -1.
    9900012    2    1    2    0    0 -0.83738323174E+01 -0.25103913137E+02 -0.34399068141E+02  0.47787269460E+02  0.19999992775E+02 0.  0.
        -12    1    1    2    0    0  0.83738323174E+01  0.25103913137E+02  0.34399068141E+02  0.43400730540E+02  0.00000000000E+00 0.  1.
         11    1    3    3    0    0  0.13364570809E+01 -0.16657677005E+02 -0.16027723541E+02  0.23154961518E+02  0.51100000000E-03 0. -1.
        -11    1    3    3    0    0 -0.93848003064E+01 -0.66019185691E+01 -0.77482795236E+01  0.13845419510E+02  0.51100000000E-03 0.  1.
        -12    1    3    3    0    0 -0.32548909188E+00 -0.18443175631E+01 -0.10623065077E+02  0.10786888432E+02  0.00000000000E+00 0.  1.
</event>
<event>
 7    1  0.2714068E-010  0.4778728E+02  0.7816164E-02  0.1312668E+00
        -11   -1    0    0    0    0  0.00000000000E+00  0.00000000000E+00  0.45593999997E+02  0.45594000000E+02  0.51100000000E-03 0.  1.
         11   -1    0    0    0    0 -0.00000000000E+00 -0.00000000000E+00 -0.45593999997E+02  0.45594000000E+02  0.51100000000E-03 0. -1.
    9900012    2    1    2    0    0 -0.70199967291E+01  0.42645060865E+02 -0.39675346481E+01  0.47787275335E+02  0.20000019563E+02 0.  0.
        -12    1    1    2    0    0  0.70199967291E+01 -0.42645060865E+02  0.39675346481E+01  0.43400724665E+02  0.00000000000E+00 0.  1.
         11    1    3    3    0    0 -0.78320247082E+01  0.36698998649E+02 -0.39952130553E+01  0.37737499129E+02  0.51100000000E-03 0. -1.
        -11    1    3    3    0    0  0.42867879349E+01  0.46762765009E+01  0.19061920006E+00  0.63466880065E+01  0.51100000000E-03 0.  1.
         12    1    3    3    0    0 -0.34747599557E+01  0.12697857148E+01 -0.16294079284E+00  0.37030881995E+01  0.00000000000E+00 0. -1.
</event>
<event>
 7    1  0.2714068E-010  0.4778728E+02  0.7816164E-02  0.1312668E+00
        -11   -1    0    0    0    0  0.00000000000E+00  0.00000000000E+00  0.45593999997E+02  0.45594000000E+02  0.51100000000E-03 0.  1.
         11   -1    0    0    0    0 -0.00000000000E+00 -0.00000000000E+00 -0.45593999997E+02  0.45594000000E+02  0.51100000000E-03 0. -1.
    9900012    2    1    2    0    0  0.18817151736E+02 -0.39092217983E+02  0.11559200046E+01  0.47787275843E+02  0.20000021878E+02 0.  0.
        -12    1    1    2    0    0 -0.18817151736E+02  0.39092217983E+02 -0.11559200046E+01  0.43400724157E+02  0.00000000000E+00 0.  1.
         11    1    3    3    0    0  0.37887030883E+01 -0.23831884882E+02 -0.43113621560E+01  0.24513279096E+02  0.51100000000E-03 0. -1.
        -11    1    3    3    0    0  0.58209829505E+01 -0.16333023753E+01  0.25941479470E+01  0.65788390306E+01  0.51100000000E-03 0.  1.
         12    1    3    3    0    0  0.92074656975E+01 -0.13627030725E+02  0.28731342136E+01  0.16695157716E+02  0.00000000000E+00 0. -1.
</event>
<event>
 7    1  0.2714068E-010  0.4778727E+02  0.7816164E-02  0.1312668E+00
        -11   -1    0    0    0    0  0.00000000000E+00  0.00000000000E+00  0.45593999997E+02  0.45594000000E+02  0.51100000000E-03 0.  1.
         11   -1    0    0    0    0 -0.00000000000E+00 -0.00000000000E+00 -0.45593999997E+02  0.45594000000E+02  0.51100000000E-03 0. -1.
    9900012    2    1    2    0    0 -0.42238130095E+02 -0.81040508499E+00 -0.99451953635E+01  0.47787270730E+02  0.19999998569E+02 0.  0.
        -12    1    1    2    0    0  0.42238130095E+02  0.81040508499E+00  0.99451953635E+01  0.43400729270E+02  0.00000000000E+00 0.  1.
         11    1    3    3    0    0 -0.63441397575E+01 -0.62840835371E+01 -0.27696988802E+01  0.93492805773E+01  0.51100000000E-03 0. -1.
        -11    1    3    3    0    0 -0.20004211457E+02  0.39388312446E+01  0.11749738625E+01  0.20422130923E+02  0.51100000000E-03 0.  1.
         12    1    3    3    0    0 -0.15889778880E+02  0.15348472076E+01 -0.83504703457E+01  0.18015859230E+02  0.00000000000E+00 0. -1.
</event>
<event>
 7    1  0.2714068E-010  0.4778727E+02  0.7816164E-02  0.1312668E+00
        -11   -1    0    0    0    0  0.00000000000E+00  0.00000000000E+00  0.45593999997E+02  0.45594000000E+02  0.51100000000E-03 0. -1.
         11   -1    0    0    0    0 -0.00000000000E+00 -0.00000000000E+00 -0.45593999997E+02  0.45594000000E+02  0.51100000000E-03 0.  1.
    9900012    2    1    2    0    0 -0.20690849964E+02  0.33969512157E+02  0.17366190107E+02  0.47787267434E+02  0.19999983539E+02 0.  0.
        -12    1    1    2    0    0  0.20690849964E+02 -0.33969512157E+02 -0.17366190107E+02  0.43400732566E+02  0.00000000000E+00 0.  1.
         11    1    3    3    0    0 -0.15575763775E+02  0.28299870760E+02  0.46897933928E+01  0.32641710503E+02  0.51100000000E-03 0. -1.
        -11    1    3    3    0    0 -0.50662516355E+01  0.36627145573E+01  0.90262838648E+01  0.10979808023E+02  0.51100000000E-03 0.  1.
         12    1    3    3    0    0 -0.48834553793E-01  0.20069268395E+01  0.36501128493E+01  0.41657489081E+01  0.00000000000E+00 0. -1.
</event>
<event>
 7    1  0.2714068E-010  0.4778727E+02  0.7816164E-02  0.1312668E+00
        -11   -1    0    0    0    0  0.00000000000E+00  0.00000000000E+00  0.45593999997E+02  0.45594000000E+02  0.51100000000E-03 0. -1.
         11   -1    0    0    0    0 -0.00000000000E+00 -0.00000000000E+00 -0.45593999997E+02  0.45594000000E+02  0.51100000000E-03 0.  1.
    9900012    2    1    2    0    0 -0.32037891835E+02 -0.21308684026E+02  0.20078265947E+02  0.47787270840E+02  0.19999999069E+02 0.  0.
        -12    1    1    2    0    0  0.32037891835E+02  0.21308684026E+02 -0.20078265947E+02  0.43400729160E+02  0.00000000000E+00 0.  1.
         11    1    3    3    0    0 -0.26700784439E+01  0.23643979786E+01 -0.84415838728E+00  0.36650102785E+01  0.51100000000E-03 0.  1.
        -11    1    3    3    0    0 -0.17819804057E+02 -0.14156304423E+02  0.17659961698E+02  0.28806607210E+02  0.51100000000E-03 0. -1.
        -12    1    3    3    0    0 -0.11548009334E+02 -0.95167775818E+01  0.32624626365E+01  0.15315653351E+02  0.00000000000E+00 0.  1.
</event>
<event>
 7    1  0.2714068E-010  0.4778727E+02  0.7816164E-02  0.1312668E+00
        -11   -1    0    0    0    0  0.00000000000E+00  0.00000000000E+00  0.45593999997E+02  0.45594000000E+02  0.51100000000E-03 0. -1.
         11   -1    0    0    0    0 -0.00000000000E+00 -0.00000000000E+00 -0.45593999997E+02  0.45594000000E+02  0.51100000000E-03 0.  1.
    9900012    2    1    2    0    0  0.33577128557E+02  0.53918206443E+01  0.26965311883E+02  0.47787270318E+02  0.19999996686E+02 0.  0.
        -12    1    1    2    0    0 -0.33577128557E+02 -0.53918206443E+01 -0.26965311883E+02  0.43400729682E+02  0.00000000000E+00 0.  1.
         11    1    3    3    0    0  0.97801855490E+01  0.32738827850E+01  0.10705166050E+01  0.10369008821E+02  0.51100000000E-03 0. -1.
        -11    1    3    3    0    0  0.23677319936E+02  0.22658041721E+01  0.27180673386E+02  0.36118393568E+02  0.51100000000E-03 0.  1.
        -12    1    3    3    0    0  0.11962307162E+00 -0.14786631281E+00 -0.12858781077E+01  0.12998679293E+01  0.00000000000E+00 0.  1.
</event>
<event>
 7    1  0.2714068E-010  0.4778727E+02  0.7816164E-02  0.1312668E+00
        -11   -1    0    0    0    0  0.00000000000E+00  0.00000000000E+00  0.45593999997E+02  0.45594000000E+02  0.51100000000E-03 0.  1.
         11   -1    0    0    0    0 -0.00000000000E+00 -0.00000000000E+00 -0.45593999997E+02  0.45594000000E+02  0.51100000000E-03 0. -1.
    9900012    2    1    2    0    0 -0.45602637451E+01 -0.21294811778E+02 -0.37541423435E+02  0.47787268582E+02  0.19999988773E+02 0.  0.
        -12    1    1    2    0    0  0.45602637451E+01  0.21294811778E+02  0.37541423435E+02  0.43400731418E+02  0.00000000000E+00 0.  1.
         11    1    3    3    0    0 -0.25713580057E+00 -0.10032859536E+02 -0.24937313706E+02  0.26881108690E+02  0.51100000000E-03 0. -1.
        -11    1    3    3    0    0  0.24749951445E+01 -0.12007031082E+01  0.76308166152E+00  0.28547474148E+01  0.51100000000E-03 0.  1.
         12    1    3    3    0    0 -0.67781230890E+01 -0.10061249134E+02 -0.13367191391E+02  0.18051412477E+02  0.00000000000E+00 0. -1.
</event>
<event>
 7    1  0.2714068E-010  0.4778726E+02  0.7816164E-02  0.1312668E+00
        -11   -1    0    0    0    0  0.00000000000E+00  0.00000000000E+00  0.45593999997E+02  0.45594000000E+02  0.51100000000E-03 0.  1.
         11   -1    0    0    0    0 -0.00000000000E+00 -0.00000000000E+00 -0.45593999997E+02  0.45594000000E+02  0.51100000000E-03 0. -1.
    9900012    2    1    2    0    0 -0.33743056070E+02 -0.26229388968E+02 -0.75530968947E+01  0.47787263241E+02  0.19999964419E+02 0.  0.
        -12    1    1    2    0    0  0.33743056070E+02  0.26229388968E+02  0.75530968947E+01  0.43400736759E+02  0.00000000000E+00 0.  1.
         11    1    3    3    0    0 -0.30440157364E+02 -0.24392827296E+02 -0.11597789704E+02  0.40695478006E+02  0.51100000000E-03 0. -1.
        -11    1    3    3    0    0  0.69171139010E+00  0.25642064483E+00 -0.33061731575E+00  0.80840847650E+00  0.51100000000E-03 0.  1.
         12    1    3    3    0    0 -0.39946100956E+01 -0.20929823174E+01  0.43753101252E+01  0.62833767584E+01  0.00000000000E+00 0. -1.
</event>
<event>
 7    1  0.2714068E-010  0.4778727E+02  0.7816164E-02  0.1312668E+00
        -11   -1    0    0    0    0  0.00000000000E+00  0.00000000000E+00  0.45593999997E+02  0.45594000000E+02  0.51100000000E-03 0.  1.
         11   -1    0    0    0    0 -0.00000000000E+00 -0.00000000000E+00 -0.45593999997E+02  0.45594000000E+02  0.51100000000E-03 0. -1.
    9900012    2    1    2    0    0 -0.21848691874E+02  0.33797301126E+02 -0.16248097291E+02  0.47787267683E+02  0.19999984676E+02 0.  0.
        -12    1    1    2    0    0  0.21848691874E+02 -0.33797301126E+02  0.16248097291E+02  0.43400732317E+02  0.00000000000E+00 0.  1.
         11    1    3    3    0    0 -0.42307232094E+01  0.19015116422E+02 -0.33263945969E+01  0.19762048798E+02  0.51100000000E-03 0. -1.
        -11    1    3    3    0    0 -0.37827233403E+01  0.62926441817E+00 -0.58760930248E+01  0.70166544075E+01  0.51100000000E-03 0.  1.
         12    1    3    3    0    0 -0.13835245324E+02  0.14152920286E+02 -0.70456096693E+01  0.21008564478E+02  0.00000000000E+00 0. -1.
</event>
<event>
 7    1  0.2714068E-010  0.4778727E+02  0.7816164E-02  0.1312668E+00
        -11   -1    0    0    0    0  0.00000000000E+00  0.00000000000E+00  0.45593999997E+02  0.45594000000E+02  0.51100000000E-03 0.  1.
         11   -1    0    0    0    0 -0.00000000000E+00 -0.00000000000E+00 -0.45593999997E+02  0.45594000000E+02  0.51100000000E-03 0. -1.
    9900012    2    1    2    0    0  0.10786434289E+02  0.37795639410E+02 -0.18405588676E+02  0.47787271693E+02  0.20000002957E+02 0.  0.
        -12    1    1    2    0    0 -0.10786434289E+02 -0.37795639410E+02  0.18405588676E+02  0.43400728307E+02  0.00000000000E+00 0.  1.
         11    1    3    3    0    0  0.36923437365E+01  0.79331181927E+01 -0.54264330106E+01  0.10296307202E+02  0.51100000000E-03 0. -1.
        -11    1    3    3    0    0 -0.32948533808E+01  0.22661817870E+01 -0.59644962554E+01  0.71810065126E+01  0.51100000000E-03 0.  1.
        -12    1    3    3    0    0  0.10388943933E+02  0.27596339430E+02 -0.70146594103E+01  0.30309957978E+02  0.00000000000E+00 0.  1.
</event>
<event>
 7    1  0.2714068E-010  0.4778728E+02  0.7816164E-02  0.1312668E+00
        -11   -1    0    0    0    0  0.00000000000E+00  0.00000000000E+00  0.45593999997E+02  0.45594000000E+02  0.51100000000E-03 0.  1.
         11   -1    0    0    0    0 -0.00000000000E+00 -0.00000000000E+00 -0.45593999997E+02  0.45594000000E+02  0.51100000000E-03 0. -1.
    9900012    2    1    2    0    0 -0.20047836566E+02 -0.36664651170E+02  0.11722205542E+02  0.47787279970E+02  0.20000040694E+02 0.  0.
        -12    1    1    2    0    0  0.20047836566E+02  0.36664651170E+02 -0.11722205542E+02  0.43400720030E+02  0.00000000000E+00 0.  1.
         11    1    3    3    0    0  0.39894312357E+00 -0.82707283501E+01  0.48336044700E+01  0.95879004736E+01  0.51100000000E-03 0. -1.
        -11    1    3    3    0    0 -0.12981440778E+02 -0.13777626799E+02 -0.28072775376E+01  0.19136917524E+02  0.51100000000E-03 0.  1.
        -12    1    3    3    0    0 -0.74653389116E+01 -0.14616296020E+02  0.96958786092E+01  0.19062461972E+02  0.00000000000E+00 0.  1.
</event>
<event>
 7    1  0.2714068E-010  0.4778727E+02  0.7816164E-02  0.1312668E+00
        -11   -1    0    0    0    0  0.00000000000E+00  0.00000000000E+00  0.45593999997E+02  0.45594000000E+02  0.51100000000E-03 0. -1.
         11   -1    0    0    0    0 -0.00000000000E+00 -0.00000000000E+00 -0.45593999997E+02  0.45594000000E+02  0.51100000000E-03 0.  1.
    9900012    2    1    2    0    0  0.54262683290E+01  0.39738956405E+02  0.16582953403E+02  0.47787269733E+02  0.19999994022E+02 0.  0.
        -12    1    1    2    0    0 -0.54262683290E+01 -0.39738956405E+02 -0.16582953403E+02  0.43400730267E+02  0.00000000000E+00 0.  1.
         11    1    3    3    0    0  0.18586329350E+01  0.34900602826E+02  0.11973660253E+02  0.36944216518E+02  0.51100000000E-03 0. -1.
        -11    1    3    3    0    0  0.26561832507E+01 -0.16346671067E+01  0.60442579358E+00  0.31769130948E+01  0.51100000000E-03 0.  1.
        -12    1    3    3    0    0  0.91145214334E+00  0.64730206854E+01  0.40048673560E+01  0.76661401202E+01  0.00000000000E+00 0.  1.
</event>
<event>
 7    1  0.2714068E-010  0.4778727E+02  0.7816164E-02  0.1312668E+00
        -11   -1    0    0    0    0  0.00000000000E+00  0.00000000000E+00  0.45593999997E+02  0.45594000000E+02  0.51100000000E-03 0.  1.
         11   -1    0    0    0    0 -0.00000000000E+00 -0.00000000000E+00 -0.45593999997E+02  0.45594000000E+02  0.51100000000E-03 0. -1.
    9900012    2    1    2    0    0  0.33930967563E+02  0.13889309939E+02 -0.23224980745E+02  0.47787271654E+02  0.20000002780E+02 0.  0.
        -12    1    1    2    0    0 -0.33930967563E+02 -0.13889309939E+02  0.23224980745E+02  0.43400728346E+02  0.00000000000E+00 0.  1.
         11    1    3    3    0    0  0.11290749688E+02  0.34841734653E+01 -0.73412068775E+00  0.11838894657E+02  0.51100000000E-03 0. -1.
        -11    1    3    3    0    0  0.68331729361E+01  0.47801456753E+01 -0.15838327276E+02  0.17899571397E+02  0.51100000000E-03 0.  1.
        -12    1    3    3    0    0  0.15807044939E+02  0.56249907981E+01 -0.66525327818E+01  0.18048805600E+02  0.00000000000E+00 0.  1.
</event>
<event>
 7    1  0.2714068E-010  0.4778727E+02  0.7816164E-02  0.1312668E+00
        -11   -1    0    0    0    0  0.00000000000E+00  0.00000000000E+00  0.45593999997E+02  0.45594000000E+02  0.51100000000E-03 0.  1.
         11   -1    0    0    0    0 -0.00000000000E+00 -0.00000000000E+00 -0.45593999997E+02  0.45594000000E+02  0.51100000000E-03 0. -1.
    9900012    2    1    2    0    0  0.16188978108E+02  0.22126549042E+02 -0.33644558011E+02  0.47787268803E+02  0.19999989779E+02 0.  0.
        -12    1    1    2    0    0 -0.16188978108E+02 -0.22126549042E+02  0.33644558011E+02  0.43400731197E+02  0.00000000000E+00 0.  1.
         11    1    3    3    0    0 -0.19412925622E+01  0.48552181503E+01 -0.95453540648E+01  0.10883728432E+02  0.51100000000E-03 0.  1.
        -11    1    3    3    0    0  0.15635235111E+02  0.18979335264E+02 -0.19426667621E+02  0.31338014602E+02  0.51100000000E-03 0. -1.
         12    1    3    3    0    0  0.24950355594E+01 -0.17080043724E+01 -0.46725363247E+01  0.55655257689E+01  0.00000000000E+00 0. -1.
</event>
<event>
 7    1  0.2714068E-010  0.4778727E+02  0.7816164E-02  0.1312668E+00
        -11   -1    0    0    0    0  0.00000000000E+00  0.00000000000E+00  0.45593999997E+02  0.45594000000E+02  0.51100000000E-03 0.  1.
         11   -1    0    0    0    0 -0.00000000000E+00 -0.00000000000E+00 -0.45593999997E+02  0.45594000000E+02  0.51100000000E-03 0. -1.
    9900012    2    1    2    0    0  0.33913881447E+02  0.13201795223E+01 -0.27050490583E+02  0.47787271094E+02  0.20000000227E+02 0.  0.
        -12    1    1    2    0    0 -0.33913881447E+02 -0.13201795223E+01  0.27050490583E+02  0.43400728906E+02  0.00000000000E+00 0.  1.
         11    1    3    3    0    0 -0.20985144632E+01 -0.90607031044E+00 -0.18097192837E+01  0.29154434494E+01  0.51100000000E-03 0. -1.
        -11    1    3    3    0    0  0.86021955947E+01 -0.19929665240E+01 -0.30115672593E+01  0.93294813486E+01  0.51100000000E-03 0.  1.
         12    1    3    3    0    0  0.27410200315E+02  0.42192163567E+01 -0.22229204040E+02  0.35542346296E+02  0.00000000000E+00 0. -1.
</event>
<event>
 7    1  0.2714068E-010  0.4778727E+02  0.7816164E-02  0.1312668E+00
        -11   -1    0    0    0    0  0.00000000000E+00  0.00000000000E+00  0.45593999997E+02  0.45594000000E+02  0.51100000000E-03 0.  1.
         11   -1    0    0    0    0 -0.00000000000E+00 -0.00000000000E+00 -0.45593999997E+02  0.45594000000E+02  0.51100000000E-03 0. -1.
    9900012    2    1    2    0    0 -0.36589059663E+02 -0.81440381431E+01 -0.21875523191E+02  0.47787272366E+02  0.20000006026E+02 0.  0.
        -12    1    1    2    0    0  0.36589059663E+02  0.81440381431E+01  0.21875523191E+02  0.43400727634E+02  0.00000000000E+00 0.  1.
         11    1    3    3    0    0 -0.56678400466E+00 -0.47447954236E+01 -0.30768769453E+01  0.56834408343E+01  0.51100000000E-03 0. -1.
        -11    1    3    3    0    0 -0.33475134215E+02 -0.37443533662E+01 -0.13641040442E+02  0.36341199450E+02  0.51100000000E-03 0.  1.
        -12    1    3    3    0    0 -0.25471414429E+01  0.34511064663E+00 -0.51576058036E+01  0.57626320821E+01  0.00000000000E+00 0.  1.
</event>
<event>
 7    1  0.2714068E-010  0.4778726E+02  0.7816164E-02  0.1312668E+00
        -11   -1    0    0    0    0  0.00000000000E+00  0.00000000000E+00  0.45593999997E+02  0.45594000000E+02  0.51100000000E-03 0.  1.
         11   -1    0    0    0    0 -0.00000000000E+00 -0.00000000000E+00 -0.45593999997E+02  0.45594000000E+02  0.51100000000E-03 0. -1.
    9900012    2    1    2    0    0 -0.32816256103E+02  0.10420685259E+01 -0.28383651305E+02  0.47787259996E+02  0.19999949628E+02 0.  0.
        -12    1    1    2    0    0  0.32816256103E+02 -0.10420685259E+01  0.28383651305E+02  0.43400740004E+02  0.00000000000E+00 0.  1.
         11    1    3    3    0    0 -0.24749896345E+02  0.52782915089E+01 -0.22238872620E+02  0.33689541196E+02  0.51100000000E-03 0. -1.
        -11    1    3    3    0    0 -0.42784326666E+01 -0.22579669601E+01  0.17303358513E+01  0.51378461727E+01  0.51100000000E-03 0.  1.
        -12    1    3    3    0    0 -0.37879270919E+01 -0.19782560229E+01 -0.78751145360E+01  0.89598726275E+01  0.00000000000E+00 0.  1.
</event>
<event>
 7    1  0.2714068E-010  0.4778727E+02  0.7816164E-02  0.1312668E+00
        -11   -1    0    0    0    0  0.00000000000E+00  0.00000000000E+00  0.45593999997E+02  0.45594000000E+02  0.51100000000E-03 0.  1.
         11   -1    0    0    0    0 -0.00000000000E+00 -0.00000000000E+00 -0.45593999997E+02  0.45594000000E+02  0.51100000000E-03 0. -1.
    9900012    2    1    2    0    0 -0.21472572297E+02 -0.36379538635E+02 -0.99539453702E+01  0.47787271656E+02  0.20000002789E+02 0.  0.
        -12    1    1    2    0    0  0.21472572297E+02  0.36379538635E+02  0.99539453702E+01  0.43400728344E+02  0.00000000000E+00 0.  1.
         11    1    3    3    0    0 -0.10979615227E+02 -0.18695934030E+02 -0.10065162935E+02  0.23903920284E+02  0.51100000000E-03 0. -1.
        -11    1    3    3    0    0 -0.29747126515E+00 -0.11389327326E+02  0.25033661741E+01  0.11664995008E+02  0.51100000000E-03 0.  1.
        -12    1    3    3    0    0 -0.10195485804E+02 -0.62942772799E+01 -0.23921486090E+01  0.12218356363E+02  0.00000000000E+00 0.  1.
</event>
<event>
 7    1  0.2714068E-010  0.4778727E+02  0.7816164E-02  0.1312668E+00
        -11   -1    0    0    0    0  0.00000000000E+00  0.00000000000E+00  0.45593999997E+02  0.45594000000E+02  0.51100000000E-03 0. -1.
         11   -1    0    0    0    0 -0.00000000000E+00 -0.00000000000E+00 -0.45593999997E+02  0.45594000000E+02  0.51100000000E-03 0.  1.
    9900012    2    1    2    0    0 -0.31171484768E+02  0.28085711133E+02  0.11097509561E+02  0.47787270157E+02  0.19999995954E+02 0.  0.
        -12    1    1    2    0    0  0.31171484768E+02 -0.28085711133E+02 -0.11097509561E+02  0.43400729843E+02  0.00000000000E+00 0.  1.
         11    1    3    3    0    0 -0.25954861677E+02  0.16876184489E+02  0.15035787144E+02  0.34417079233E+02  0.51100000000E-03 0. -1.
        -11    1    3    3    0    0 -0.11713957484E+01  0.60943909164E+01 -0.13319626442E+01  0.63472744850E+01  0.51100000000E-03 0.  1.
         12    1    3    3    0    0 -0.40452273421E+01  0.51151357269E+01 -0.26063149393E+01  0.70229164396E+01  0.00000000000E+00 0. -1.
</event>
<event>
 7    1  0.2714068E-010  0.4778726E+02  0.7816164E-02  0.1312668E+00
        -11   -1    0    0    0    0  0.00000000000E+00  0.00000000000E+00  0.45593999997E+02  0.45594000000E+02  0.51100000000E-03 0.  1.
         11   -1    0    0    0    0 -0.00000000000E+00 -0.00000000000E+00 -0.45593999997E+02  0.45594000000E+02  0.51100000000E-03 0. -1.
    9900012    2    1    2    0    0  0.20936568867E+02 -0.27821113354E+02 -0.25908873961E+02  0.47787262517E+02  0.19999961118E+02 0.  0.
        -12    1    1    2    0    0 -0.20936568867E+02  0.27821113354E+02  0.25908873961E+02  0.43400737483E+02  0.00000000000E+00 0.  1.
         11    1    3    3    0    0  0.13128298897E+02 -0.13068452940E+02 -0.22785672556E+02  0.29365346384E+02  0.51100000000E-03 0. -1.
        -11    1    3    3    0    0  0.34028315671E-01 -0.53034533123E+01  0.12121649051E+01  0.54403234261E+01  0.51100000000E-03 0.  1.
         12    1    3    3    0    0  0.77742416544E+01 -0.94492071016E+01 -0.43353663108E+01  0.12981592707E+02  0.00000000000E+00 0. -1.
</event>
<event>
 7    1  0.2714068E-010  0.4778728E+02  0.7816164E-02  0.1312668E+00
        -11   -1    0    0    0    0  0.00000000000E+00  0.00000000000E+00  0.45593999997E+02  0.45594000000E+02  0.51100000000E-03 0.  1.
         11   -1    0    0    0    0 -0.00000000000E+00 -0.00000000000E+00 -0.45593999997E+02  0.45594000000E+02  0.51100000000E-03 0. -1.
    9900012    2    1    2    0    0  0.16108758794E+02  0.38449008420E+02 -0.12074936971E+02  0.47787280407E+02  0.20000042688E+02 0.  0.
        -12    1    1    2    0    0 -0.16108758794E+02 -0.38449008420E+02  0.12074936971E+02  0.43400719593E+02  0.00000000000E+00 0.  1.
         11    1    3    3    0    0  0.33886360370E+01  0.55152279812E+01  0.19317720546E+01  0.67551711605E+01  0.51100000000E-03 0. -1.
        -11    1    3    3    0    0  0.12866571017E+02  0.11918263343E+02 -0.58406317715E+01  0.18485308507E+02  0.51100000000E-03 0.  1.
        -12    1    3    3    0    0 -0.14644825962E+00  0.21015517095E+02 -0.81660772538E+01  0.22546800740E+02  0.00000000000E+00 0.  1.
</event>
<event>
 7    1  0.2714068E-010  0.4778726E+02  0.7816164E-02  0.1312668E+00
        -11   -1    0    0    0    0  0.00000000000E+00  0.00000000000E+00  0.45593999997E+02  0.45594000000E+02  0.51100000000E-03 0.  1.
         11   -1    0    0    0    0 -0.00000000000E+00 -0.00000000000E+00 -0.45593999997E+02  0.45594000000E+02  0.51100000000E-03 0. -1.
    9900012    2    1    2    0    0 -0.34438736336E+02  0.26394748747E+02  0.95638245776E+00  0.47787262803E+02  0.19999962424E+02 0.  0.
        -12    1    1    2    0    0  0.34438736336E+02 -0.26394748747E+02 -0.95638245776E+00  0.43400737197E+02  0.00000000000E+00 0.  1.
         11    1    3    3    0    0 -0.25474386922E+02  0.98176657367E+01  0.27082837021E+01  0.27434754426E+02  0.51100000000E-03 0. -1.
        -11    1    3    3    0    0 -0.24758003496E+01  0.95748878807E+00  0.16146824102E+01  0.31070197453E+01  0.51100000000E-03 0.  1.
         12    1    3    3    0    0 -0.64885490641E+01  0.15619594222E+02 -0.33665836545E+01  0.17245488631E+02  0.00000000000E+00 0. -1.
</event>
<event>
 7    1  0.2714068E-010  0.4778728E+02  0.7816164E-02  0.1312668E+00
        -11   -1    0    0    0    0  0.00000000000E+00  0.00000000000E+00  0.45593999997E+02  0.45594000000E+02  0.51100000000E-03 0. -1.
         11   -1    0    0    0    0 -0.00000000000E+00 -0.00000000000E+00 -0.45593999997E+02  0.45594000000E+02  0.51100000000E-03 0.  1.
    9900012    2    1    2    0    0 -0.38817026688E+02 -0.54419699696E+01 -0.18634534291E+02  0.47787280348E+02  0.20000042419E+02 0.  0.
        -12    1    1    2    0    0  0.38817026688E+02  0.54419699696E+01  0.18634534291E+02  0.43400719652E+02  0.00000000000E+00 0.  1.
         11    1    3    3    0    0 -0.88316277744E+01 -0.22851121796E+01  0.28753495630E+01  0.95648848498E+01  0.51100000000E-03 0. -1.
        -11    1    3    3    0    0 -0.17271689887E+02 -0.27820578784E+01 -0.17835370475E+02  0.24983025394E+02  0.51100000000E-03 0.  1.
         12    1    3    3    0    0 -0.12713709027E+02 -0.37479991157E+00 -0.36745133786E+01  0.13239370105E+02  0.00000000000E+00 0. -1.
</event>
<event>
 7    1  0.2714068E-010  0.4778728E+02  0.7816164E-02  0.1312668E+00
        -11   -1    0    0    0    0  0.00000000000E+00  0.00000000000E+00  0.45593999997E+02  0.45594000000E+02  0.51100000000E-03 0.  1.
         11   -1    0    0    0    0 -0.00000000000E+00 -0.00000000000E+00 -0.45593999997E+02  0.45594000000E+02  0.51100000000E-03 0. -1.
    9900012    2    1    2    0    0 -0.39672938364E+02  0.32430678910E+01 -0.17296329946E+02  0.47787279299E+02  0.20000037636E+02 0.  0.
        -12    1    1    2    0    0  0.39672938364E+02 -0.32430678910E+01  0.17296329946E+02  0.43400720701E+02  0.00000000000E+00 0.  1.
         11    1    3    3    0    0 -0.38021108667E+02  0.56920372872E+01 -0.12529249317E+02  0.40434961129E+02  0.51100000000E-03 0. -1.
        -11    1    3    3    0    0  0.31476118913E+00 -0.38146822627E+00 -0.44544453641E+01  0.44818161918E+01  0.51100000000E-03 0.  1.
         12    1    3    3    0    0 -0.19665908858E+01 -0.20675011699E+01 -0.31263526418E+00  0.28705019784E+01  0.00000000000E+00 0. -1.
</event>
<event>
 7    1  0.2714068E-010  0.4778727E+02  0.7816164E-02  0.1312668E+00
        -11   -1    0    0    0    0  0.00000000000E+00  0.00000000000E+00  0.45593999997E+02  0.45594000000E+02  0.51100000000E-03 0.  1.
         11   -1    0    0    0    0 -0.00000000000E+00 -0.00000000000E+00 -0.45593999997E+02  0.45594000000E+02  0.51100000000E-03 0. -1.
    9900012    2    1    2    0    0  0.28811957300E+02  0.25424936277E+02 -0.20175910125E+02  0.47787267086E+02  0.19999981950E+02 0.  0.
        -12    1    1    2    0    0 -0.28811957300E+02 -0.25424936277E+02  0.20175910125E+02  0.43400732914E+02  0.00000000000E+00 0.  1.
         11    1    3    3    0    0  0.15759023583E+02  0.57436806597E+01 -0.49360661914E+01  0.17484319876E+02  0.51100000000E-03 0. -1.
        -11    1    3    3    0    0  0.57075958360E+01  0.16696529610E+02 -0.73411255468E+01  0.19111328467E+02  0.51100000000E-03 0.  1.
        -12    1    3    3    0    0  0.73453378812E+01  0.29847260071E+01 -0.78987183868E+01  0.11191618743E+02  0.00000000000E+00 0.  1.
</event>
<event>
 7    1  0.2714068E-010  0.4778727E+02  0.7816164E-02  0.1312668E+00
        -11   -1    0    0    0    0  0.00000000000E+00  0.00000000000E+00  0.45593999997E+02  0.45594000000E+02  0.51100000000E-03 0.  1.
         11   -1    0    0    0    0 -0.00000000000E+00 -0.00000000000E+00 -0.45593999997E+02  0.45594000000E+02  0.51100000000E-03 0. -1.
    9900012    2    1    2    0    0  0.19273886119E+02 -0.31451787288E+02 -0.22867569850E+02  0.47787270046E+02  0.19999995446E+02 0.  0.
        -12    1    1    2    0    0 -0.19273886119E+02  0.31451787288E+02  0.22867569850E+02  0.43400729954E+02  0.00000000000E+00 0.  1.
         11    1    3    3    0    0  0.31332516197E+01 -0.60832866469E+01 -0.64697602616E+01  0.94170823637E+01  0.51100000000E-03 0. -1.
        -11    1    3    3    0    0  0.14281188944E+02 -0.26714985226E+02 -0.18297942626E+02  0.35390076263E+02  0.51100000000E-03 0.  1.
        -12    1    3    3    0    0  0.18594455552E+01  0.13464845848E+01  0.19001330377E+01  0.29801114192E+01  0.00000000000E+00 0.  1.
</event>
<event>
 7    1  0.2714068E-010  0.4778729E+02  0.7816164E-02  0.1312668E+00
        -11   -1    0    0    0    0  0.00000000000E+00  0.00000000000E+00  0.45593999997E+02  0.45594000000E+02  0.51100000000E-03 0.  1.
         11   -1    0    0    0    0 -0.00000000000E+00 -0.00000000000E+00 -0.45593999997E+02  0.45594000000E+02  0.51100000000E-03 0. -1.
    9900012    2    1    2    0    0 -0.41741452203E+02  0.97233032173E+01  0.68359194878E+01  0.47787294329E+02  0.20000106165E+02 0.  0.
        -12    1    1    2    0    0  0.41741452203E+02 -0.97233032173E+01 -0.68359194878E+01  0.43400705671E+02  0.00000000000E+00 0.  1.
         11    1    3    3    0    0 -0.69752957217E+00 -0.93648564340E+00 -0.92025451131E+00  0.14867486308E+01  0.51100000000E-03 0. -1.
        -11    1    3    3    0    0 -0.31455362835E+01  0.74181094471E+00  0.63213858583E+01  0.70996198081E+01  0.51100000000E-03 0.  1.
        -12    1    3    3    0    0 -0.37898386347E+02  0.99179779160E+01  0.14347881408E+01  0.39200925891E+02  0.00000000000E+00 0.  1.
</event>
<event>
 7    1  0.2714068E-010  0.4778727E+02  0.7816164E-02  0.1312668E+00
        -11   -1    0    0    0    0  0.00000000000E+00  0.00000000000E+00  0.45593999997E+02  0.45594000000E+02  0.51100000000E-03 0.  1.
         11   -1    0    0    0    0 -0.00000000000E+00 -0.00000000000E+00 -0.45593999997E+02  0.45594000000E+02  0.51100000000E-03 0. -1.
    9900012    2    1    2    0    0  0.18995345664E+02  0.38596771869E+02  0.57523302418E+01  0.47787271218E+02  0.20000000790E+02 0.  0.
        -12    1    1    2    0    0 -0.18995345664E+02 -0.38596771869E+02 -0.57523302418E+01  0.43400728782E+02  0.00000000000E+00 0.  1.
         11    1    3    3    0    0 -0.17702997859E+01  0.16825287010E+02  0.40263362645E+00  0.16922953595E+02  0.51100000000E-03 0. -1.
        -11    1    3    3    0    0  0.16474398071E+02  0.14475092351E+02  0.40254976661E+01  0.22296607861E+02  0.51100000000E-03 0.  1.
         12    1    3    3    0    0  0.42912473791E+01  0.72963925081E+01  0.13241989492E+01  0.85677097615E+01  0.00000000000E+00 0. -1.
</event>
<event>
 7    1  0.2714068E-010  0.4778728E+02  0.7816164E-02  0.1312668E+00
        -11   -1    0    0    0    0  0.00000000000E+00  0.00000000000E+00  0.45593999997E+02  0.45594000000E+02  0.51100000000E-03 0.  1.
         11   -1    0    0    0    0 -0.00000000000E+00 -0.00000000000E+00 -0.45593999997E+02  0.45594000000E+02  0.51100000000E-03 0. -1.
    9900012    2    1    2    0    0 -0.11326657939E+02 -0.41732897196E+02 -0.37006691056E+01  0.47787276040E+02  0.20000022775E+02 0.  0.
        -12    1    1    2    0    0  0.11326657939E+02  0.41732897196E+02  0.37006691056E+01  0.43400723960E+02  0.00000000000E+00 0.  1.
         11    1    3    3    0    0 -0.81221329413E+01 -0.33128691591E+02 -0.67970415497E+01  0.34780440252E+02  0.51100000000E-03 0. -1.
        -11    1    3    3    0    0  0.23169071115E+01 -0.15394461850E+01  0.29281566181E+01  0.40388184610E+01  0.51100000000E-03 0.  1.
        -12    1    3    3    0    0 -0.55214321090E+01 -0.70647594202E+01  0.16821582594E+00  0.89680173262E+01  0.00000000000E+00 0.  1.
</event>
<event>
 7    1  0.2714068E-010  0.4778727E+02  0.7816164E-02  0.1312668E+00
        -11   -1    0    0    0    0  0.00000000000E+00  0.00000000000E+00  0.45593999997E+02  0.45594000000E+02  0.51100000000E-03 0.  1.
         11   -1    0    0    0    0 -0.00000000000E+00 -0.00000000000E+00 -0.45593999997E+02  0.45594000000E+02  0.51100000000E-03 0. -1.
    9900012    2    1    2    0    0  0.18945318792E+02 -0.37241391151E+02 -0.11737847123E+02  0.47787269890E+02  0.19999994737E+02 0.  0.
        -12    1    1    2    0    0 -0.18945318792E+02  0.37241391151E+02  0.11737847123E+02  0.43400730110E+02  0.00000000000E+00 0.  1.
         11    1    3    3    0    0  0.10780314778E+02 -0.19974718201E+02 -0.15449480180E+01  0.22750635564E+02  0.51100000000E-03 0. -1.
        -11    1    3    3    0    0  0.48863658351E+01 -0.39443454660E+01 -0.93861428125E+01  0.11293100079E+02  0.51100000000E-03 0.  1.
        -12    1    3    3    0    0  0.32786381784E+01 -0.13322327484E+02 -0.80675629220E+00  0.13743534247E+02  0.00000000000E+00 0.  1.
</event>
<event>
 7    1  0.2714068E-010  0.4778727E+02  0.7816164E-02  0.1312668E+00
        -11   -1    0    0    0    0  0.00000000000E+00  0.00000000000E+00  0.45593999997E+02  0.45594000000E+02  0.51100000000E-03 0. -1.
         11   -1    0    0    0    0 -0.00000000000E+00 -0.00000000000E+00 -0.45593999997E+02  0.45594000000E+02  0.51100000000E-03 0.  1.
    9900012    2    1    2    0    0 -0.96622814687E+01 -0.39988745228E+02  0.13826193890E+02  0.47787273444E+02  0.20000010941E+02 0.  0.
        -12    1    1    2    0    0  0.96622814687E+01  0.39988745228E+02 -0.13826193890E+02  0.43400726556E+02  0.00000000000E+00 0.  1.
         11    1    3    3    0    0  0.49968242910E+01 -0.17148637133E+02  0.16753475446E+01  0.17940200616E+02  0.51100000000E-03 0. -1.
        -11    1    3    3    0    0 -0.12840296919E+02 -0.20008414593E+02  0.96676536337E+01  0.25664633380E+02  0.51100000000E-03 0.  1.
         12    1    3    3    0    0 -0.18188088405E+01 -0.28316935023E+01  0.24831927112E+01  0.41824394473E+01  0.00000000000E+00 0. -1.
</event>
<event>
 7    1  0.2714068E-010  0.4778727E+02  0.7816164E-02  0.1312668E+00
        -11   -1    0    0    0    0  0.00000000000E+00  0.00000000000E+00  0.45593999997E+02  0.45594000000E+02  0.51100000000E-03 0.  1.
         11   -1    0    0    0    0 -0.00000000000E+00 -0.00000000000E+00 -0.45593999997E+02  0.45594000000E+02  0.51100000000E-03 0. -1.
    9900012    2    1    2    0    0  0.29443610982E+02 -0.96743622820E+01 -0.30382628350E+02  0.47787267072E+02  0.19999981890E+02 0.  0.
        -12    1    1    2    0    0 -0.29443610982E+02  0.96743622820E+01  0.30382628350E+02  0.43400732928E+02  0.00000000000E+00 0.  1.
         11    1    3    3    0    0  0.67223440490E+01 -0.19962953529E+00 -0.18297362286E+02  0.19494184475E+02  0.51100000000E-03 0. -1.
        -11    1    3    3    0    0  0.92391723112E+01 -0.51167774773E+01 -0.16350488886E+01  0.10687240143E+02  0.51100000000E-03 0.  1.
        -12    1    3    3    0    0  0.13482094621E+02 -0.43579552694E+01 -0.10450217175E+02  0.17605842454E+02  0.00000000000E+00 0.  1.
</event>
<event>
 7    1  0.2714068E-010  0.4778722E+02  0.7816164E-02  0.1312668E+00
        -11   -1    0    0    0    0  0.00000000000E+00  0.00000000000E+00  0.45593999997E+02  0.45594000000E+02  0.51100000000E-03 0.  1.
         11   -1    0    0    0    0 -0.00000000000E+00 -0.00000000000E+00 -0.45593999997E+02  0.45594000000E+02  0.51100000000E-03 0. -1.
    9900012    2    1    2    0    0  0.32004163989E+02 -0.47754567653E+01 -0.28923275109E+02  0.47787224167E+02  0.19999786264E+02 0.  0.
        -12    1    1    2    0    0 -0.32004163989E+02  0.47754567653E+01  0.28923275109E+02  0.43400775833E+02  0.00000000000E+00 0.  1.
         11    1    3    3    0    0  0.66671014519E+01  0.18376585189E+01 -0.15568273260E+02  0.17035209513E+02  0.51100000000E-03 0. -1.
        -11    1    3    3    0    0  0.36309165100E+00 -0.18547536173E+01  0.26799424011E+00  0.19088655536E+01  0.51100000000E-03 0.  1.
         12    1    3    3    0    0  0.24973970886E+02 -0.47583616669E+01 -0.13622996089E+02  0.28843149100E+02  0.00000000000E+00 0. -1.
</event>
<event>
 7    1  0.2714068E-010  0.4778727E+02  0.7816164E-02  0.1312668E+00
        -11   -1    0    0    0    0  0.00000000000E+00  0.00000000000E+00  0.45593999997E+02  0.45594000000E+02  0.51100000000E-03 0. -1.
         11   -1    0    0    0    0 -0.00000000000E+00 -0.00000000000E+00 -0.45593999997E+02  0.45594000000E+02  0.51100000000E-03 0.  1.
    9900012    2    1    2    0    0 -0.31567735689E+01  0.34180756224E+02 -0.26558121722E+02  0.47787272531E+02  0.20000006779E+02 0.  0.
        -12    1    1    2    0    0  0.31567735689E+01 -0.34180756224E+02  0.26558121722E+02  0.43400727469E+02  0.00000000000E+00 0.  1.
         11    1    3    3    0    0  0.39438847908E+01  0.15759113546E+02 -0.39526518537E+01  0.16719071264E+02  0.51100000000E-03 0. -1.
        -11    1    3    3    0    0 -0.96835642687E-01  0.66206346851E+01 -0.12072389884E+02  0.13768978849E+02  0.51100000000E-03 0.  1.
         12    1    3    3    0    0 -0.70038227170E+01  0.11801007993E+02 -0.10533079984E+02  0.17299222417E+02  0.00000000000E+00 0. -1.
</event>
<event>
 7    1  0.2714068E-010  0.4778727E+02  0.7816164E-02  0.1312668E+00
        -11   -1    0    0    0    0  0.00000000000E+00  0.00000000000E+00  0.45593999997E+02  0.45594000000E+02  0.51100000000E-03 0. -1.
         11   -1    0    0    0    0 -0.00000000000E+00 -0.00000000000E+00 -0.45593999997E+02  0.45594000000E+02  0.51100000000E-03 0.  1.
    9900012    2    1    2    0    0 -0.37803430436E+02  0.22493351076E+01  0.21200572666E+02  0.47787272557E+02  0.20000006898E+02 0.  0.
        -12    1    1    2    0    0  0.37803430436E+02 -0.22493351076E+01 -0.21200572666E+02  0.43400727443E+02  0.00000000000E+00 0.  1.
         11    1    3    3    0    0 -0.31001131704E+02  0.66375675221E+01  0.12653710659E+02  0.34135668490E+02  0.51100000000E-03 0. -1.
        -11    1    3    3    0    0 -0.71961496653E+01 -0.57483141986E+01  0.71198410668E+01  0.11641298175E+02  0.51100000000E-03 0.  1.
         12    1    3    3    0    0  0.39385093289E+00  0.13600817841E+01  0.14270209403E+01  0.20103058924E+01  0.00000000000E+00 0. -1.
</event>
<event>
 7    1  0.2714068E-010  0.4778727E+02  0.7816164E-02  0.1312668E+00
        -11   -1    0    0    0    0  0.00000000000E+00  0.00000000000E+00  0.45593999997E+02  0.45594000000E+02  0.51100000000E-03 0. -1.
         11   -1    0    0    0    0 -0.00000000000E+00 -0.00000000000E+00 -0.45593999997E+02  0.45594000000E+02  0.51100000000E-03 0.  1.
    9900012    2    1    2    0    0 -0.34923418846E+02 -0.10493516943E+02  0.23534330122E+02  0.47787265260E+02  0.19999973624E+02 0.  0.
        -12    1    1    2    0    0  0.34923418846E+02  0.10493516943E+02 -0.23534330122E+02  0.43400734740E+02  0.00000000000E+00 0.  1.
         11    1    3    3    0    0 -0.89586647341E+01  0.20387985537E+01  0.16202586867E+01  0.93295022286E+01  0.51100000000E-03 0. -1.
        -11    1    3    3    0    0 -0.13983943951E+02 -0.12066468006E+02  0.18138819110E+02  0.25887585780E+02  0.51100000000E-03 0.  1.
        -12    1    3    3    0    0 -0.11980810161E+02 -0.46584749101E+00  0.37752523256E+01  0.12570177251E+02  0.00000000000E+00 0.  1.
</event>
<event>
 7    1  0.2714068E-010  0.4778727E+02  0.7816164E-02  0.1312668E+00
        -11   -1    0    0    0    0  0.00000000000E+00  0.00000000000E+00  0.45593999997E+02  0.45594000000E+02  0.51100000000E-03 0. -1.
         11   -1    0    0    0    0 -0.00000000000E+00 -0.00000000000E+00 -0.45593999997E+02  0.45594000000E+02  0.51100000000E-03 0.  1.
    9900012    2    1    2    0    0  0.39474758678E+02 -0.83166547406E+01 -0.16006259829E+02  0.47787266452E+02  0.19999979063E+02 0.  0.
        -12    1    1    2    0    0 -0.39474758678E+02  0.83166547406E+01  0.16006259829E+02  0.43400733548E+02  0.00000000000E+00 0.  1.
         11    1    3    3    0    0  0.16846873858E+02 -0.77787372572E+01 -0.77766616685E+01  0.20119701267E+02  0.51100000000E-03 0. -1.
        -11    1    3    3    0    0  0.11436864067E+02  0.21056672658E+01  0.25506745509E+01  0.11905529608E+02  0.51100000000E-03 0.  1.
        -12    1    3    3    0    0  0.11191020753E+02 -0.26435847491E+01 -0.10780272711E+02  0.15762035578E+02  0.00000000000E+00 0.  1.
</event>
<event>
 7    1  0.2714068E-010  0.4778727E+02  0.7816164E-02  0.1312668E+00
        -11   -1    0    0    0    0  0.00000000000E+00  0.00000000000E+00  0.45593999997E+02  0.45594000000E+02  0.51100000000E-03 0.  1.
         11   -1    0    0    0    0 -0.00000000000E+00 -0.00000000000E+00 -0.45593999997E+02  0.45594000000E+02  0.51100000000E-03 0. -1.
    9900012    2    1    2    0    0 -0.26043439598E+02  0.33954105264E+02 -0.72443930290E+01  0.47787271426E+02  0.20000001742E+02 0.  0.
        -12    1    1    2    0    0  0.26043439598E+02 -0.33954105264E+02  0.72443930290E+01  0.43400728574E+02  0.00000000000E+00 0.  1.
         11    1    3    3    0    0  0.64904803589E+00  0.53507484866E+00 -0.76367262251E+00  0.11361182078E+01  0.51100000000E-03 0. -1.
        -11    1    3    3    0    0 -0.16900437831E+02  0.82681424351E+01 -0.56653563044E+01  0.19649001005E+02  0.51100000000E-03 0.  1.
        -12    1    3    3    0    0 -0.97920498031E+01  0.25150887980E+02 -0.81536410214E+00  0.27002152213E+02  0.00000000000E+00 0.  1.
</event>
<event>
 7    1  0.2714068E-010  0.4778729E+02  0.7816164E-02  0.1312668E+00
        -11   -1    0    0    0    0  0.00000000000E+00  0.00000000000E+00  0.45593999997E+02  0.45594000000E+02  0.51100000000E-03 0.  1.
         11   -1    0    0    0    0 -0.00000000000E+00 -0.00000000000E+00 -0.45593999997E+02  0.45594000000E+02  0.51100000000E-03 0. -1.
    9900012    2    1    2    0    0  0.80341100240E+01  0.75924191662E+01 -0.41969395762E+02  0.47787286489E+02  0.20000070416E+02 0.  0.
        -12    1    1    2    0    0 -0.80341100240E+01 -0.75924191662E+01  0.41969395762E+02  0.43400713511E+02  0.00000000000E+00 0.  1.
         11    1    3    3    0    0  0.10368253059E+02  0.65404835083E+01 -0.36602890070E+02  0.38601167829E+02  0.51100000000E-03 0. -1.
        -11    1    3    3    0    0 -0.38905218828E+01 -0.56794824309E+00 -0.68149520266E+00  0.39903836532E+01  0.51100000000E-03 0.  1.
        -12    1    3    3    0    0  0.15563788482E+01  0.16198839010E+01 -0.46850104896E+01  0.51957350067E+01  0.00000000000E+00 0.  1.
</event>
<event>
 7    1  0.2714068E-010  0.4778727E+02  0.7816164E-02  0.1312668E+00
        -11   -1    0    0    0    0  0.00000000000E+00  0.00000000000E+00  0.45593999997E+02  0.45594000000E+02  0.51100000000E-03 0.  1.
         11   -1    0    0    0    0 -0.00000000000E+00 -0.00000000000E+00 -0.45593999997E+02  0.45594000000E+02  0.51100000000E-03 0. -1.
    9900012    2    1    2    0    0  0.39024297388E+02 -0.14704097519E+02 -0.12021517608E+02  0.47787272401E+02  0.20000006187E+02 0.  0.
        -12    1    1    2    0    0 -0.39024297388E+02  0.14704097519E+02  0.12021517608E+02  0.43400727599E+02  0.00000000000E+00 0.  1.
         11    1    3    3    0    0  0.24178243337E+02 -0.13682611653E+02 -0.10019379660E+02  0.29532850887E+02  0.51100000000E-03 0. -1.
        -11    1    3    3    0    0  0.13368530593E+02  0.31279418058E+01 -0.12544986725E+01  0.13786783429E+02  0.51100000000E-03 0.  1.
         12    1    3    3    0    0  0.14775234588E+01 -0.41494276712E+01 -0.74763927586E+00  0.44676380848E+01  0.00000000000E+00 0. -1.
</event>
<event>
 7    1  0.2714068E-010  0.4778727E+02  0.7816164E-02  0.1312668E+00
        -11   -1    0    0    0    0  0.00000000000E+00  0.00000000000E+00  0.45593999997E+02  0.45594000000E+02  0.51100000000E-03 0.  1.
         11   -1    0    0    0    0 -0.00000000000E+00 -0.00000000000E+00 -0.45593999997E+02  0.45594000000E+02  0.51100000000E-03 0. -1.
    9900012    2    1    2    0    0 -0.11912083609E+02  0.17080005865E+02 -0.38078857931E+02  0.47787265472E+02  0.19999974592E+02 0.  0.
        -12    1    1    2    0    0  0.11912083609E+02 -0.17080005865E+02  0.38078857931E+02  0.43400734528E+02  0.00000000000E+00 0.  1.
         11    1    3    3    0    0  0.19403617232E+01 -0.10375276652E+01 -0.16487806712E+01  0.27495354582E+01  0.51100000000E-03 0. -1.
        -11    1    3    3    0    0  0.14706648867E+01 -0.19145288094E+00 -0.69295314442E+01  0.70864600269E+01  0.51100000000E-03 0.  1.
         12    1    3    3    0    0 -0.15323110219E+02  0.18308986411E+02 -0.29500545816E+02  0.37951269987E+02  0.00000000000E+00 0. -1.
</event>
<event>
 7    1  0.2714068E-010  0.4778727E+02  0.7816164E-02  0.1312668E+00
        -11   -1    0    0    0    0  0.00000000000E+00  0.00000000000E+00  0.45593999997E+02  0.45594000000E+02  0.51100000000E-03 0.  1.
         11   -1    0    0    0    0 -0.00000000000E+00 -0.00000000000E+00 -0.45593999997E+02  0.45594000000E+02  0.51100000000E-03 0. -1.
    9900012    2    1    2    0    0  0.17430116058E+02  0.34791445244E+02 -0.19218989329E+02  0.47787272370E+02  0.20000006045E+02 0.  0.
        -12    1    1    2    0    0 -0.17430116058E+02 -0.34791445244E+02  0.19218989329E+02  0.43400727630E+02  0.00000000000E+00 0.  1.
         11    1    3    3    0    0  0.29582842686E+01  0.52974717391E+01 -0.40109868637E+01  0.72734220641E+01  0.51100000000E-03 0. -1.
        -11    1    3    3    0    0  0.52074551467E+01  0.16834512540E+02  0.13892058603E+01  0.17676207024E+02  0.51100000000E-03 0.  1.
        -12    1    3    3    0    0  0.92643766425E+01  0.12659460965E+02 -0.16597208325E+02  0.22837643282E+02  0.00000000000E+00 0.  1.
</event>
<event>
 7    1  0.2714068E-010  0.4778727E+02  0.7816164E-02  0.1312668E+00
        -11   -1    0    0    0    0  0.00000000000E+00  0.00000000000E+00  0.45593999997E+02  0.45594000000E+02  0.51100000000E-03 0.  1.
         11   -1    0    0    0    0 -0.00000000000E+00 -0.00000000000E+00 -0.45593999997E+02  0.45594000000E+02  0.51100000000E-03 0. -1.
    9900012    2    1    2    0    0  0.33406176758E+02  0.18528785508E+02 -0.20599397398E+02  0.47787266007E+02  0.19999977030E+02 0.  0.
        -12    1    1    2    0    0 -0.33406176758E+02 -0.18528785508E+02  0.20599397398E+02  0.43400733993E+02  0.00000000000E+00 0.  1.
         11    1    3    3    0    0  0.19519365738E+02  0.77404374187E+01 -0.16386195750E+02  0.26635078781E+02  0.51100000000E-03 0. -1.
        -11    1    3    3    0    0  0.46169383909E+01  0.78695819407E+01  0.23541263447E+01  0.94227570877E+01  0.51100000000E-03 0.  1.
        -12    1    3    3    0    0  0.92698726294E+01  0.29187661483E+01 -0.65673279925E+01  0.11729430138E+02  0.00000000000E+00 0.  1.
</event>
<event>
 7    1  0.2714068E-010  0.4778726E+02  0.7816164E-02  0.1312668E+00
        -11   -1    0    0    0    0  0.00000000000E+00  0.00000000000E+00  0.45593999997E+02  0.45594000000E+02  0.51100000000E-03 0.  1.
         11   -1    0    0    0    0 -0.00000000000E+00 -0.00000000000E+00 -0.45593999997E+02  0.45594000000E+02  0.51100000000E-03 0. -1.
    9900012    2    1    2    0    0 -0.12472019816E+02  0.15179387519E+02 -0.38699597798E+02  0.47787263215E+02  0.19999964304E+02 0.  0.
        -12    1    1    2    0    0  0.12472019816E+02 -0.15179387519E+02  0.38699597798E+02  0.43400736785E+02  0.00000000000E+00 0.  1.
         11    1    3    3    0    0 -0.96091928494E+01  0.16168583626E+02 -0.22563077551E+02  0.29374345142E+02  0.51100000000E-03 0. -1.
        -11    1    3    3    0    0 -0.32841087127E+01 -0.43640741427E+01 -0.10259527556E+02  0.11622754368E+02  0.51100000000E-03 0.  1.
        -12    1    3    3    0    0  0.42128174579E+00  0.33748780357E+01 -0.58769926903E+01  0.67901637055E+01  0.00000000000E+00 0.  1.
</event>
<event>
 7    1  0.2714068E-010  0.4778727E+02  0.7816164E-02  0.1312668E+00
        -11   -1    0    0    0    0  0.00000000000E+00  0.00000000000E+00  0.45593999997E+02  0.45594000000E+02  0.51100000000E-03 0. -1.
         11   -1    0    0    0    0 -0.00000000000E+00 -0.00000000000E+00 -0.45593999997E+02  0.45594000000E+02  0.51100000000E-03 0.  1.
    9900012    2    1    2    0    0  0.18353461957E+02  0.39084897656E+02  0.43754491489E+01  0.47787270216E+02  0.19999996221E+02 0.  0.
        -12    1    1    2    0    0 -0.18353461957E+02 -0.39084897656E+02 -0.43754491489E+01  0.43400729784E+02  0.00000000000E+00 0.  1.
         11    1    3    3    0    0 -0.82335367016E+00  0.10965597643E+01 -0.39175522046E+00  0.14261230651E+01  0.51100000000E-03 0. -1.
        -11    1    3    3    0    0  0.61871625651E+01  0.25505913244E+02 -0.36115548580E+01  0.26492940942E+02  0.51100000000E-03 0.  1.
        -12    1    3    3    0    0  0.12989653062E+02  0.12482424648E+02  0.83787592274E+01  0.19868206208E+02  0.00000000000E+00 0.  1.
</event>
<event>
 7    1  0.2714068E-010  0.4778727E+02  0.7816164E-02  0.1312668E+00
        -11   -1    0    0    0    0  0.00000000000E+00  0.00000000000E+00  0.45593999997E+02  0.45594000000E+02  0.51100000000E-03 0. -1.
         11   -1    0    0    0    0 -0.00000000000E+00 -0.00000000000E+00 -0.45593999997E+02  0.45594000000E+02  0.51100000000E-03 0.  1.
    9900012    2    1    2    0    0  0.10022810971E+02  0.11946519291E+02  0.40502433143E+02  0.47787272432E+02  0.20000006327E+02 0.  0.
        -12    1    1    2    0    0 -0.10022810971E+02 -0.11946519291E+02 -0.40502433143E+02  0.43400727568E+02  0.00000000000E+00 0.  1.
         11    1    3    3    0    0  0.10142661374E+01  0.37882155875E+01  0.27496441806E+02  0.27774693974E+02  0.51100000000E-03 0. -1.
        -11    1    3    3    0    0  0.95684070112E+01  0.89633452887E+01  0.13580088188E+02  0.18876301728E+02  0.51100000000E-03 0.  1.
         12    1    3    3    0    0 -0.55986217773E+00 -0.80504158494E+00 -0.57409685052E+00  0.11362767292E+01  0.00000000000E+00 0. -1.
</event>
<event>
 7    1  0.2714068E-010  0.4778727E+02  0.7816164E-02  0.1312668E+00
        -11   -1    0    0    0    0  0.00000000000E+00  0.00000000000E+00  0.45593999997E+02  0.45594000000E+02  0.51100000000E-03 0.  1.
         11   -1    0    0    0    0 -0.00000000000E+00 -0.00000000000E+00 -0.45593999997E+02  0.45594000000E+02  0.51100000000E-03 0. -1.
    9900012    2    1    2    0    0 -0.34992562460E+02 -0.22916745274E+02  0.11574400245E+02  0.47787269793E+02  0.19999994293E+02 0.  0.
        -12    1    1    2    0    0  0.34992562460E+02  0.22916745274E+02 -0.11574400245E+02  0.43400730207E+02  0.00000000000E+00 0.  1.
         11    1    3    3    0    0 -0.26438456949E+02 -0.15966871468E+02  0.12987921025E+02  0.33505508250E+02  0.51100000000E-03 0. -1.
        -11    1    3    3    0    0 -0.42875767211E+01 -0.70610789830E+01 -0.41166409388E+01  0.92297824147E+01  0.51100000000E-03 0.  1.
        -12    1    3    3    0    0 -0.42665287905E+01  0.11120517729E+00  0.27031201595E+01  0.50519791279E+01  0.00000000000E+00 0.  1.
</event>
<event>
 7    1  0.2714068E-010  0.4778727E+02  0.7816164E-02  0.1312668E+00
        -11   -1    0    0    0    0  0.00000000000E+00  0.00000000000E+00  0.45593999997E+02  0.45594000000E+02  0.51100000000E-03 0.  1.
         11   -1    0    0    0    0 -0.00000000000E+00 -0.00000000000E+00 -0.45593999997E+02  0.45594000000E+02  0.51100000000E-03 0. -1.
    9900012    2    1    2    0    0  0.20956693028E+02 -0.33333269859E+02  0.18257418923E+02  0.47787271805E+02  0.20000003467E+02 0.  0.
        -12    1    1    2    0    0 -0.20956693028E+02  0.33333269859E+02 -0.18257418923E+02  0.43400728195E+02  0.00000000000E+00 0.  1.
         11    1    3    3    0    0  0.50011113404E+01 -0.13055184241E+02 -0.18422349511E+01  0.14101162367E+02  0.51100000000E-03 0. -1.
        -11    1    3    3    0    0  0.21793232600E+01 -0.15346077949E+01  0.57937562080E+01  0.63774667553E+01  0.51100000000E-03 0.  1.
         12    1    3    3    0    0  0.13776258428E+02 -0.18743477823E+02  0.14305897666E+02  0.27308642683E+02  0.00000000000E+00 0. -1.
</event>
<event>
 7    1  0.2714068E-010  0.4778727E+02  0.7816164E-02  0.1312668E+00
        -11   -1    0    0    0    0  0.00000000000E+00  0.00000000000E+00  0.45593999997E+02  0.45594000000E+02  0.51100000000E-03 0.  1.
         11   -1    0    0    0    0 -0.00000000000E+00 -0.00000000000E+00 -0.45593999997E+02  0.45594000000E+02  0.51100000000E-03 0. -1.
    9900012    2    1    2    0    0 -0.38595622773E+02 -0.36824486833E+01 -0.19504890136E+02  0.47787271150E+02  0.20000000480E+02 0.  0.
        -12    1    1    2    0    0  0.38595622773E+02  0.36824486833E+01  0.19504890136E+02  0.43400728850E+02  0.00000000000E+00 0.  1.
         11    1    3    3    0    0 -0.73266954321E+01  0.47045544599E+01 -0.94096397127E+01  0.12820086521E+02  0.51100000000E-03 0. -1.
        -11    1    3    3    0    0 -0.11312380971E+02 -0.56399595599E+01 -0.49047415842E+00  0.12649888230E+02  0.51100000000E-03 0.  1.
        -12    1    3    3    0    0 -0.19956546369E+02 -0.27470435833E+01 -0.96047762652E+01  0.22317296398E+02  0.00000000000E+00 0.  1.
</event>
<event>
 7    1  0.2714068E-010  0.4778726E+02  0.7816164E-02  0.1312668E+00
        -11   -1    0    0    0    0  0.00000000000E+00  0.00000000000E+00  0.45593999997E+02  0.45594000000E+02  0.51100000000E-03 0. -1.
         11   -1    0    0    0    0 -0.00000000000E+00 -0.00000000000E+00 -0.45593999997E+02  0.45594000000E+02  0.51100000000E-03 0.  1.
    9900012    2    1    2    0    0 -0.42869051928E+02  0.25196311461E+01  0.62864842909E+01  0.47787262229E+02  0.19999959809E+02 0.  0.
        -12    1    1    2    0    0  0.42869051928E+02 -0.25196311461E+01 -0.62864842909E+01  0.43400737771E+02  0.00000000000E+00 0.  1.
         11    1    3    3    0    0 -0.66638202906E+01  0.48417010841E+01 -0.95567437814E+00  0.82922785790E+01  0.51100000000E-03 0. -1.
        -11    1    3    3    0    0 -0.21228947527E+02 -0.66448047680E+01  0.85981038448E+01  0.23848459772E+02  0.51100000000E-03 0.  1.
        -12    1    3    3    0    0 -0.14976284110E+02  0.43227348300E+01 -0.13559451757E+01  0.15646523879E+02  0.00000000000E+00 0.  1.
</event>
<event>
 7    1  0.2714068E-010  0.4778727E+02  0.7816164E-02  0.1312668E+00
        -11   -1    0    0    0    0  0.00000000000E+00  0.00000000000E+00  0.45593999997E+02  0.45594000000E+02  0.51100000000E-03 0.  1.
         11   -1    0    0    0    0 -0.00000000000E+00 -0.00000000000E+00 -0.45593999997E+02  0.45594000000E+02  0.51100000000E-03 0. -1.
    9900012    2    1    2    0    0  0.31005140738E+01 -0.41236067405E+02 -0.13175611810E+02  0.47787272021E+02  0.20000004452E+02 0.  0.
        -12    1    1    2    0    0 -0.31005140738E+01  0.41236067405E+02  0.13175611810E+02  0.43400727979E+02  0.00000000000E+00 0.  1.
         11    1    3    3    0    0  0.22580454663E+00 -0.20884799290E+02 -0.93808409468E+01  0.22895982316E+02  0.51100000000E-03 0. -1.
        -11    1    3    3    0    0  0.76242599210E+01 -0.15487911428E+02 -0.34050418356E+00  0.17266171640E+02  0.51100000000E-03 0.  1.
        -12    1    3    3    0    0 -0.47495503939E+01 -0.48633566866E+01 -0.34542666796E+01  0.76251180646E+01  0.00000000000E+00 0.  1.
</event>
<event>
 7    1  0.2714068E-010  0.4778727E+02  0.7816164E-02  0.1312668E+00
        -11   -1    0    0    0    0  0.00000000000E+00  0.00000000000E+00  0.45593999997E+02  0.45594000000E+02  0.51100000000E-03 0.  1.
         11   -1    0    0    0    0 -0.00000000000E+00 -0.00000000000E+00 -0.45593999997E+02  0.45594000000E+02  0.51100000000E-03 0. -1.
    9900012    2    1    2    0    0 -0.99247715723E+01  0.42054996084E+02 -0.40619468804E+01  0.47787271909E+02  0.20000003942E+02 0.  0.
        -12    1    1    2    0    0  0.99247715723E+01 -0.42054996084E+02  0.40619468804E+01  0.43400728091E+02  0.00000000000E+00 0.  1.
         11    1    3    3    0    0 -0.10658051720E+02  0.13235460720E+02 -0.27479178257E+01  0.17214021598E+02  0.51100000000E-03 0. -1.
        -11    1    3    3    0    0  0.44916130165E+01  0.20444088126E+02  0.14619361013E+01  0.20982673429E+02  0.51100000000E-03 0.  1.
        -12    1    3    3    0    0 -0.37583328689E+01  0.83754472377E+01 -0.27759651560E+01  0.95905768821E+01  0.00000000000E+00 0.  1.
</event>
<event>
 7    1  0.2714068E-010  0.4778728E+02  0.7816164E-02  0.1312668E+00
        -11   -1    0    0    0    0  0.00000000000E+00  0.00000000000E+00  0.45593999997E+02  0.45594000000E+02  0.51100000000E-03 0.  1.
         11   -1    0    0    0    0 -0.00000000000E+00 -0.00000000000E+00 -0.45593999997E+02  0.45594000000E+02  0.51100000000E-03 0. -1.
    9900012    2    1    2    0    0  0.34523019347E+02 -0.42921300433E+01 -0.25949201284E+02  0.47787282351E+02  0.20000051553E+02 0.  0.
        -12    1    1    2    0    0 -0.34523019347E+02  0.42921300433E+01  0.25949201284E+02  0.43400717649E+02  0.00000000000E+00 0.  1.
         11    1    3    3    0    0  0.26456281742E+02 -0.25522585964E+01 -0.27682493014E+02  0.38376676345E+02  0.51100000000E-03 0. -1.
        -11    1    3    3    0    0  0.67915168231E+01 -0.19585066186E+01 -0.21534684101E+00  0.70715502867E+01  0.51100000000E-03 0.  1.
         12    1    3    3    0    0  0.12752207822E+01  0.21863517170E+00  0.19486385710E+01  0.23390557202E+01  0.00000000000E+00 0. -1.
</event>
<event>
 7    1  0.2714068E-010  0.4778727E+02  0.7816164E-02  0.1312668E+00
        -11   -1    0    0    0    0  0.00000000000E+00  0.00000000000E+00  0.45593999997E+02  0.45594000000E+02  0.51100000000E-03 0.  1.
         11   -1    0    0    0    0 -0.00000000000E+00 -0.00000000000E+00 -0.45593999997E+02  0.45594000000E+02  0.51100000000E-03 0. -1.
    9900012    2    1    2    0    0 -0.36320250554E+02 -0.78272301478E+01 -0.22432064756E+02  0.47787266581E+02  0.19999979649E+02 0.  0.
        -12    1    1    2    0    0  0.36320250554E+02  0.78272301478E+01  0.22432064756E+02  0.43400733419E+02  0.00000000000E+00 0.  1.
         11    1    3    3    0    0 -0.19689610131E+02  0.54021083445E+01 -0.91427664522E+01  0.22370822522E+02  0.51100000000E-03 0.  1.
        -11    1    3    3    0    0 -0.11037944106E+02 -0.10851445021E+02 -0.83638144662E+01  0.17593847271E+02  0.51100000000E-03 0. -1.
        -12    1    3    3    0    0 -0.55926963176E+01 -0.23778934717E+01 -0.49254838381E+01  0.78225967877E+01  0.00000000000E+00 0.  1.
</event>
<event>
 7    1  0.2714068E-010  0.4778727E+02  0.7816164E-02  0.1312668E+00
        -11   -1    0    0    0    0  0.00000000000E+00  0.00000000000E+00  0.45593999997E+02  0.45594000000E+02  0.51100000000E-03 0.  1.
         11   -1    0    0    0    0 -0.00000000000E+00 -0.00000000000E+00 -0.45593999997E+02  0.45594000000E+02  0.51100000000E-03 0. -1.
    9900012    2    1    2    0    0 -0.36805605599E+01 -0.57380915247E+00 -0.43240575619E+02  0.47787272324E+02  0.20000005833E+02 0.  0.
        -12    1    1    2    0    0  0.36805605599E+01  0.57380915247E+00  0.43240575619E+02  0.43400727676E+02  0.00000000000E+00 0.  1.
         11    1    3    3    0    0  0.35342864977E+01 -0.27635475085E+01 -0.21319258835E+02  0.21786215215E+02  0.51100000000E-03 0. -1.
        -11    1    3    3    0    0 -0.10139238902E+02  0.32238809252E+01 -0.14742133269E+02  0.18180430889E+02  0.51100000000E-03 0.  1.
        -12    1    3    3    0    0  0.29243918449E+01 -0.10341425692E+01 -0.71791835153E+01  0.78206262193E+01  0.00000000000E+00 0.  1.
</event>
<event>
 7    1  0.2714068E-010  0.4778728E+02  0.7816164E-02  0.1312668E+00
        -11   -1    0    0    0    0  0.00000000000E+00  0.00000000000E+00  0.45593999997E+02  0.45594000000E+02  0.51100000000E-03 0.  1.
         11   -1    0    0    0    0 -0.00000000000E+00 -0.00000000000E+00 -0.45593999997E+02  0.45594000000E+02  0.51100000000E-03 0. -1.
    9900012    2    1    2    0    0  0.19346965215E+02  0.30654878601E+02 -0.23866202419E+02  0.47787282690E+02  0.20000053099E+02 0.  0.
        -12    1    1    2    0    0 -0.19346965215E+02 -0.30654878601E+02  0.23866202419E+02  0.43400717310E+02  0.00000000000E+00 0.  1.
         11    1    3    3    0    0  0.64517307965E+01  0.23024984389E+02 -0.20971296705E+02  0.31805188604E+02  0.51100000000E-03 0. -1.
        -11    1    3    3    0    0  0.13255760357E+02  0.77260661107E+01 -0.27911038168E+01  0.15594792111E+02  0.51100000000E-03 0.  1.
        -12    1    3    3    0    0 -0.36052593906E+00 -0.96171898182E-01 -0.10380189702E+00  0.38730197593E+00  0.00000000000E+00 0.  1.
</event>
<event>
 7    1  0.2714068E-010  0.4778724E+02  0.7816164E-02  0.1312668E+00
        -11   -1    0    0    0    0  0.00000000000E+00  0.00000000000E+00  0.45593999997E+02  0.45594000000E+02  0.51100000000E-03 0.  1.
         11   -1    0    0    0    0 -0.00000000000E+00 -0.00000000000E+00 -0.45593999997E+02  0.45594000000E+02  0.51100000000E-03 0. -1.
    9900012    2    1    2    0    0 -0.15494980711E+02 -0.37216710649E+02 -0.16076305447E+02  0.47787244528E+02  0.19999879099E+02 0.  0.
        -12    1    1    2    0    0  0.15494980711E+02  0.37216710649E+02  0.16076305447E+02  0.43400755472E+02  0.00000000000E+00 0.  1.
         11    1    3    3    0    0 -0.72354270512E+01 -0.26668408426E+02 -0.19035561804E+02  0.33554552986E+02  0.51100000000E-03 0. -1.
        -11    1    3    3    0    0 -0.34684828820E+01 -0.38684432305E+01  0.30247901687E+01  0.60120364567E+01  0.51100000000E-03 0.  1.
         12    1    3    3    0    0 -0.47910707774E+01 -0.66798589921E+01 -0.65533811285E-01  0.82206550851E+01  0.00000000000E+00 0. -1.
</event>
<event>
 7    1  0.2714068E-010  0.4778727E+02  0.7816164E-02  0.1312668E+00
        -11   -1    0    0    0    0  0.00000000000E+00  0.00000000000E+00  0.45593999997E+02  0.45594000000E+02  0.51100000000E-03 0. -1.
         11   -1    0    0    0    0 -0.00000000000E+00 -0.00000000000E+00 -0.45593999997E+02  0.45594000000E+02  0.51100000000E-03 0.  1.
    9900012    2    1    2    0    0 -0.21172998801E+01 -0.18467048544E+02  0.39218724123E+02  0.47787272326E+02  0.20000005845E+02 0.  0.
        -12    1    1    2    0    0  0.21172998801E+01  0.18467048544E+02 -0.39218724123E+02  0.43400727674E+02  0.00000000000E+00 0.  1.
         11    1    3    3    0    0  0.37173300043E+01 -0.11545819263E+02  0.20393666301E+02  0.23728171237E+02  0.51100000000E-03 0. -1.
        -11    1    3    3    0    0 -0.14931963258E+01 -0.93107534085E+00 -0.15734101745E+01  0.23605415472E+01  0.51100000000E-03 0.  1.
        -12    1    3    3    0    0 -0.43414335585E+01 -0.59901539411E+01  0.20398467997E+02  0.21698559542E+02  0.00000000000E+00 0.  1.
</event>
<event>
 7    1  0.2714068E-010  0.4778727E+02  0.7816164E-02  0.1312668E+00
        -11   -1    0    0    0    0  0.00000000000E+00  0.00000000000E+00  0.45593999997E+02  0.45594000000E+02  0.51100000000E-03 0.  1.
         11   -1    0    0    0    0 -0.00000000000E+00 -0.00000000000E+00 -0.45593999997E+02  0.45594000000E+02  0.51100000000E-03 0. -1.
    9900012    2    1    2    0    0 -0.33938770828E+02  0.21153040716E+01 -0.26968661888E+02  0.47787269583E+02  0.19999993338E+02 0.  0.
        -12    1    1    2    0    0  0.33938770828E+02 -0.21153040716E+01  0.26968661888E+02  0.43400730417E+02  0.00000000000E+00 0.  1.
         11    1    3    3    0    0 -0.38735323896E+01 -0.21510774480E+00 -0.11879064567E+02  0.12496507503E+02  0.51100000000E-03 0. -1.
        -11    1    3    3    0    0 -0.24516655854E+02  0.53036257800E+01 -0.14487826798E+02  0.28967084532E+02  0.51100000000E-03 0.  1.
        -12    1    3    3    0    0 -0.55485825852E+01 -0.29732139636E+01 -0.60177052244E+00  0.63236775487E+01  0.00000000000E+00 0.  1.
</event>
<event>
 7    1  0.2714068E-010  0.4778728E+02  0.7816164E-02  0.1312668E+00
        -11   -1    0    0    0    0  0.00000000000E+00  0.00000000000E+00  0.45593999997E+02  0.45594000000E+02  0.51100000000E-03 0. -1.
         11   -1    0    0    0    0 -0.00000000000E+00 -0.00000000000E+00 -0.45593999997E+02  0.45594000000E+02  0.51100000000E-03 0.  1.
    9900012    2    1    2    0    0 -0.32079467197E+02 -0.12431291316E+02  0.26457387213E+02  0.47787279297E+02  0.20000037627E+02 0.  0.
        -12    1    1    2    0    0  0.32079467197E+02  0.12431291316E+02 -0.26457387213E+02  0.43400720703E+02  0.00000000000E+00 0.  1.
         11    1    3    3    0    0 -0.10551132002E+02 -0.22765091283E+01  0.18127679967E+02  0.21097906569E+02  0.51100000000E-03 0. -1.
        -11    1    3    3    0    0 -0.13171136855E+01  0.10638733362E+01  0.21969020080E+01  0.27736246375E+01  0.51100000000E-03 0.  1.
         12    1    3    3    0    0 -0.20211221509E+02 -0.11218655524E+02  0.61328052372E+01  0.23915748090E+02  0.00000000000E+00 0. -1.
</event>
<event>
 7    1  0.2714068E-010  0.4778728E+02  0.7816164E-02  0.1312668E+00
        -11   -1    0    0    0    0  0.00000000000E+00  0.00000000000E+00  0.45593999997E+02  0.45594000000E+02  0.51100000000E-03 0. -1.
         11   -1    0    0    0    0 -0.00000000000E+00 -0.00000000000E+00 -0.45593999997E+02  0.45594000000E+02  0.51100000000E-03 0.  1.
    9900012    2    1    2    0    0  0.39469772005E+02 -0.16156982811E+02  0.80443296027E+01  0.47787283020E+02  0.20000054601E+02 0.  0.
        -12    1    1    2    0    0 -0.39469772005E+02  0.16156982811E+02 -0.80443296027E+01  0.43400716980E+02  0.00000000000E+00 0.  1.
         11    1    3    3    0    0  0.75780925363E+01 -0.14894399882E+01  0.72176106309E+01  0.10570705816E+02  0.51100000000E-03 0. -1.
        -11    1    3    3    0    0  0.32656579399E+02 -0.13977933144E+02 -0.51391957868E+00  0.35526031394E+02  0.51100000000E-03 0.  1.
        -12    1    3    3    0    0 -0.76489993060E+00 -0.68960967892E+00  0.13406385504E+01  0.16905458101E+01  0.00000000000E+00 0.  1.
</event>
<event>
 7    1  0.2714068E-010  0.4778728E+02  0.7816164E-02  0.1312668E+00
        -11   -1    0    0    0    0  0.00000000000E+00  0.00000000000E+00  0.45593999997E+02  0.45594000000E+02  0.51100000000E-03 0.  1.
         11   -1    0    0    0    0 -0.00000000000E+00 -0.00000000000E+00 -0.45593999997E+02  0.45594000000E+02  0.51100000000E-03 0. -1.
    9900012    2    1    2    0    0 -0.31252525887E+02 -0.29682014659E+02 -0.50872924358E+01  0.47787275204E+02  0.20000018963E+02 0.  0.
        -12    1    1    2    0    0  0.31252525887E+02  0.29682014659E+02  0.50872924358E+01  0.43400724796E+02  0.00000000000E+00 0.  1.
         11    1    3    3    0    0 -0.16606080882E+02 -0.90918275515E+01  0.47444076783E+01  0.19517496125E+02  0.51100000000E-03 0.  1.
        -11    1    3    3    0    0 -0.20487249217E+01 -0.91237339573E+01 -0.47797766126E+01  0.10501716996E+02  0.51100000000E-03 0. -1.
         12    1    3    3    0    0 -0.12597720083E+02 -0.11466453150E+02 -0.50519235015E+01  0.17768062083E+02  0.00000000000E+00 0. -1.
</event>
<event>
 7    1  0.2714068E-010  0.4778727E+02  0.7816164E-02  0.1312668E+00
        -11   -1    0    0    0    0  0.00000000000E+00  0.00000000000E+00  0.45593999997E+02  0.45594000000E+02  0.51100000000E-03 0.  1.
         11   -1    0    0    0    0 -0.00000000000E+00 -0.00000000000E+00 -0.45593999997E+02  0.45594000000E+02  0.51100000000E-03 0. -1.
    9900012    2    1    2    0    0  0.18005371268E+02  0.19283395297E+02 -0.34461292341E+02  0.47787269608E+02  0.19999993453E+02 0.  0.
        -12    1    1    2    0    0 -0.18005371268E+02 -0.19283395297E+02  0.34461292341E+02  0.43400730392E+02  0.00000000000E+00 0.  1.
         11    1    3    3    0    0  0.41975489540E+01  0.20722173371E+01 -0.19101978780E+02  0.19667208635E+02  0.51100000000E-03 0. -1.
        -11    1    3    3    0    0  0.19393263249E+01  0.80062126403E-01  0.41226815854E+00  0.19842786685E+01  0.51100000000E-03 0.  1.
         12    1    3    3    0    0  0.11868495990E+02  0.17131115834E+02 -0.15771581720E+02  0.26135782305E+02  0.00000000000E+00 0. -1.
</event>
<event>
 7    1  0.2714068E-010  0.4778727E+02  0.7816164E-02  0.1312668E+00
        -11   -1    0    0    0    0  0.00000000000E+00  0.00000000000E+00  0.45593999997E+02  0.45594000000E+02  0.51100000000E-03 0. -1.
         11   -1    0    0    0    0 -0.00000000000E+00 -0.00000000000E+00 -0.45593999997E+02  0.45594000000E+02  0.51100000000E-03 0.  1.
    9900012    2    1    2    0    0  0.27579146383E+02  0.32667634359E+02  0.74725880405E+01  0.47787271644E+02  0.20000002734E+02 0.  0.
        -12    1    1    2    0    0 -0.27579146383E+02 -0.32667634359E+02 -0.74725880405E+01  0.43400728356E+02  0.00000000000E+00 0.  1.
         11    1    3    3    0    0  0.19200123978E+02  0.24496220910E+02  0.29292215243E+01  0.31261636852E+02  0.51100000000E-03 0. -1.
        -11    1    3    3    0    0 -0.75098839677E+00 -0.99798956039E+00  0.32975152763E+01  0.35261273365E+01  0.51100000000E-03 0.  1.
        -12    1    3    3    0    0  0.91300108016E+01  0.91694030087E+01  0.12458512399E+01  0.12999507456E+02  0.00000000000E+00 0.  1.
</event>
<event>
 7    1  0.2714068E-010  0.4778727E+02  0.7816164E-02  0.1312668E+00
        -11   -1    0    0    0    0  0.00000000000E+00  0.00000000000E+00  0.45593999997E+02  0.45594000000E+02  0.51100000000E-03 0. -1.
         11   -1    0    0    0    0 -0.00000000000E+00 -0.00000000000E+00 -0.45593999997E+02  0.45594000000E+02  0.51100000000E-03 0.  1.
    9900012    2    1    2    0    0 -0.37114390954E+02 -0.16548120521E+02  0.15241566346E+02  0.47787266673E+02  0.19999980070E+02 0.  0.
        -12    1    1    2    0    0  0.37114390954E+02  0.16548120521E+02 -0.15241566346E+02  0.43400733327E+02  0.00000000000E+00 0.  1.
         11    1    3    3    0    0 -0.23024622798E+02 -0.10085059474E+02  0.20324702803E+01  0.25218497483E+02  0.51100000000E-03 0. -1.
        -11    1    3    3    0    0 -0.66782368276E+01 -0.29535216045E+01  0.34142621596E+00  0.73101784599E+01  0.51100000000E-03 0.  1.
         12    1    3    3    0    0 -0.74115313277E+01 -0.35095394423E+01  0.12867669850E+02  0.15258590730E+02  0.00000000000E+00 0. -1.
</event>
<event>
 7    1  0.2714068E-010  0.4778727E+02  0.7816164E-02  0.1312668E+00
        -11   -1    0    0    0    0  0.00000000000E+00  0.00000000000E+00  0.45593999997E+02  0.45594000000E+02  0.51100000000E-03 0. -1.
         11   -1    0    0    0    0 -0.00000000000E+00 -0.00000000000E+00 -0.45593999997E+02  0.45594000000E+02  0.51100000000E-03 0.  1.
    9900012    2    1    2    0    0 -0.12127996583E+02  0.55740738296E+01  0.41297268824E+02  0.47787274056E+02  0.20000013731E+02 0.  0.
        -12    1    1    2    0    0  0.12127996583E+02 -0.55740738296E+01 -0.41297268824E+02  0.43400725944E+02  0.00000000000E+00 0.  1.
         11    1    3    3    0    0 -0.37528097870E+01 -0.37786599203E+01  0.24052655736E+02  0.24635180136E+02  0.51100000000E-03 0. -1.
        -11    1    3    3    0    0 -0.22673003392E+01  0.80300712410E+01  0.59649022504E+01  0.10256839381E+02  0.51100000000E-03 0.  1.
         12    1    3    3    0    0 -0.61078864563E+01  0.13226625090E+01  0.11279710837E+02  0.12895254539E+02  0.00000000000E+00 0. -1.
</event>
<event>
 7    1  0.2714068E-010  0.4778727E+02  0.7816164E-02  0.1312668E+00
        -11   -1    0    0    0    0  0.00000000000E+00  0.00000000000E+00  0.45593999997E+02  0.45594000000E+02  0.51100000000E-03 0.  1.
         11   -1    0    0    0    0 -0.00000000000E+00 -0.00000000000E+00 -0.45593999997E+02  0.45594000000E+02  0.51100000000E-03 0. -1.
    9900012    2    1    2    0    0  0.19377157815E+01 -0.63987668749E+01 -0.42882679848E+02  0.47787272000E+02  0.20000004357E+02 0.  0.
        -12    1    1    2    0    0 -0.19377157815E+01  0.63987668749E+01  0.42882679848E+02  0.43400728000E+02  0.00000000000E+00 0.  1.
         11    1    3    3    0    0  0.28102681009E+01 -0.66215699490E+01 -0.35843139570E+02  0.36557809698E+02  0.51100000000E-03 0. -1.
        -11    1    3    3    0    0 -0.33613817952E+01  0.24785776340E+01 -0.96246346754E+00  0.42858570728E+01  0.51100000000E-03 0.  1.
         12    1    3    3    0    0  0.24888294757E+01 -0.22557745599E+01 -0.60770768105E+01  0.69436052296E+01  0.00000000000E+00 0. -1.
</event>
<event>
 7    1  0.2714068E-010  0.4778727E+02  0.7816164E-02  0.1312668E+00
        -11   -1    0    0    0    0  0.00000000000E+00  0.00000000000E+00  0.45593999997E+02  0.45594000000E+02  0.51100000000E-03 0.  1.
         11   -1    0    0    0    0 -0.00000000000E+00 -0.00000000000E+00 -0.45593999997E+02  0.45594000000E+02  0.51100000000E-03 0. -1.
    9900012    2    1    2    0    0  0.23245039071E+01 -0.35324726151E+02 -0.25107442563E+02  0.47787271111E+02  0.20000000303E+02 0.  0.
        -12    1    1    2    0    0 -0.23245039071E+01  0.35324726151E+02  0.25107442563E+02  0.43400728889E+02  0.00000000000E+00 0.  1.
         11    1    3    3    0    0 -0.16168251628E+01 -0.20327180215E+02 -0.24152582612E+02  0.31609423060E+02  0.51100000000E-03 0. -1.
        -11    1    3    3    0    0  0.24941868512E+01 -0.34651550174E+01  0.10170530432E+01  0.43889252097E+01  0.51100000000E-03 0.  1.
         12    1    3    3    0    0  0.14471422187E+01 -0.11532390918E+02 -0.19719129941E+01  0.11788922841E+02  0.00000000000E+00 0. -1.
</event>
<event>
 7    1  0.2714068E-010  0.4778727E+02  0.7816164E-02  0.1312668E+00
        -11   -1    0    0    0    0  0.00000000000E+00  0.00000000000E+00  0.45593999997E+02  0.45594000000E+02  0.51100000000E-03 0.  1.
         11   -1    0    0    0    0 -0.00000000000E+00 -0.00000000000E+00 -0.45593999997E+02  0.45594000000E+02  0.51100000000E-03 0. -1.
    9900012    2    1    2    0    0 -0.42458123534E+02 -0.75124908149E+01 -0.49491185677E+01  0.47787267899E+02  0.19999985658E+02 0.  0.
        -12    1    1    2    0    0  0.42458123534E+02  0.75124908149E+01  0.49491185677E+01  0.43400732101E+02  0.00000000000E+00 0.  1.
         11    1    3    3    0    0 -0.50925467620E+01 -0.32870366113E+01 -0.12609592537E+01  0.61910145136E+01  0.51100000000E-03 0. -1.
        -11    1    3    3    0    0 -0.15713436853E+01 -0.47510389808E+01  0.19233008131E+01  0.53610240303E+01  0.51100000000E-03 0.  1.
        -12    1    3    3    0    0 -0.35794233087E+02  0.52558477726E+00 -0.56114601271E+01  0.36235229355E+02  0.00000000000E+00 0.  1.
</event>
<event>
 7    1  0.2714068E-010  0.4778727E+02  0.7816164E-02  0.1312668E+00
        -11   -1    0    0    0    0  0.00000000000E+00  0.00000000000E+00  0.45593999997E+02  0.45594000000E+02  0.51100000000E-03 0.  1.
         11   -1    0    0    0    0 -0.00000000000E+00 -0.00000000000E+00 -0.45593999997E+02  0.45594000000E+02  0.51100000000E-03 0. -1.
    9900012    2    1    2    0    0  0.37494252013E+01 -0.26276560687E+02 -0.34338131780E+02  0.47787272759E+02  0.20000007819E+02 0.  0.
        -12    1    1    2    0    0 -0.37494252013E+01  0.26276560687E+02  0.34338131780E+02  0.43400727241E+02  0.00000000000E+00 0.  1.
         11    1    3    3    0    0 -0.66968636589E+01 -0.12400287766E+02 -0.11581815452E+02  0.18241534172E+02  0.51100000000E-03 0. -1.
        -11    1    3    3    0    0  0.86103592436E+01 -0.68997547238E+01 -0.10001314129E+02  0.14891983955E+02  0.51100000000E-03 0.  1.
         12    1    3    3    0    0  0.18359296166E+01 -0.69765181977E+01 -0.12755002199E+02  0.14653754632E+02  0.00000000000E+00 0. -1.
</event>
<event>
 7    1  0.2714068E-010  0.4778727E+02  0.7816164E-02  0.1312668E+00
        -11   -1    0    0    0    0  0.00000000000E+00  0.00000000000E+00  0.45593999997E+02  0.45594000000E+02  0.51100000000E-03 0. -1.
         11   -1    0    0    0    0 -0.00000000000E+00 -0.00000000000E+00 -0.45593999997E+02  0.45594000000E+02  0.51100000000E-03 0.  1.
    9900012    2    1    2    0    0  0.36662806497E+02 -0.28380831708E+01  0.23052269802E+02  0.47787271442E+02  0.20000001815E+02 0.  0.
        -12    1    1    2    0    0 -0.36662806497E+02  0.28380831708E+01 -0.23052269802E+02  0.43400728558E+02  0.00000000000E+00 0.  1.
         11    1    3    3    0    0  0.10185866197E+02 -0.44186600454E+01  0.49857425118E+01  0.12171033458E+02  0.51100000000E-03 0. -1.
        -11    1    3    3    0    0  0.61383785765E+01 -0.11277191350E+01  0.13092328385E+02  0.14503810010E+02  0.51100000000E-03 0.  1.
        -12    1    3    3    0    0  0.20338561723E+02  0.27082960095E+01  0.49741989053E+01  0.21112427975E+02  0.00000000000E+00 0.  1.
</event>
<event>
 7    1  0.2714068E-010  0.4778727E+02  0.7816164E-02  0.1312668E+00
        -11   -1    0    0    0    0  0.00000000000E+00  0.00000000000E+00  0.45593999997E+02  0.45594000000E+02  0.51100000000E-03 0.  1.
         11   -1    0    0    0    0 -0.00000000000E+00 -0.00000000000E+00 -0.45593999997E+02  0.45594000000E+02  0.51100000000E-03 0. -1.
    9900012    2    1    2    0    0 -0.39483864535E+02 -0.16234920849E+02 -0.78150468052E+01  0.47787272240E+02  0.20000005449E+02 0.  0.
        -12    1    1    2    0    0  0.39483864535E+02  0.16234920849E+02  0.78150468052E+01  0.43400727760E+02  0.00000000000E+00 0.  1.
         11    1    3    3    0    0 -0.11702208663E+02 -0.12023528845E+02 -0.75205125512E+01  0.18386545156E+02  0.51100000000E-03 0. -1.
        -11    1    3    3    0    0 -0.16696541880E+02  0.63508850000E+00 -0.30696721820E+01  0.16988252874E+02  0.51100000000E-03 0.  1.
        -12    1    3    3    0    0 -0.11085113991E+02 -0.48464805042E+01  0.27751379280E+01  0.12412474209E+02  0.00000000000E+00 0.  1.
</event>
<event>
 7    1  0.2714068E-010  0.4778727E+02  0.7816164E-02  0.1312668E+00
        -11   -1    0    0    0    0  0.00000000000E+00  0.00000000000E+00  0.45593999997E+02  0.45594000000E+02  0.51100000000E-03 0. -1.
         11   -1    0    0    0    0 -0.00000000000E+00 -0.00000000000E+00 -0.45593999997E+02  0.45594000000E+02  0.51100000000E-03 0.  1.
    9900012    2    1    2    0    0 -0.10816761016E+02 -0.41348717770E+02 -0.75435110975E+01  0.47787270285E+02  0.19999996537E+02 0.  0.
        -12    1    1    2    0    0  0.10816761016E+02  0.41348717770E+02  0.75435110975E+01  0.43400729715E+02  0.00000000000E+00 0.  1.
         11    1    3    3    0    0 -0.45209669303E+01 -0.21843934967E+02 -0.80355555761E+01  0.23710056738E+02  0.51100000000E-03 0. -1.
        -11    1    3    3    0    0  0.33584680702E+00 -0.69751753592E+01  0.56592433056E+01  0.89884870485E+01  0.51100000000E-03 0.  1.
        -12    1    3    3    0    0 -0.66316408930E+01 -0.12529607444E+02 -0.51671988270E+01  0.15088726498E+02  0.00000000000E+00 0.  1.
</event>
<event>
 7    1  0.2714068E-010  0.4778727E+02  0.7816164E-02  0.1312668E+00
        -11   -1    0    0    0    0  0.00000000000E+00  0.00000000000E+00  0.45593999997E+02  0.45594000000E+02  0.51100000000E-03 0.  1.
         11   -1    0    0    0    0 -0.00000000000E+00 -0.00000000000E+00 -0.45593999997E+02  0.45594000000E+02  0.51100000000E-03 0. -1.
    9900012    2    1    2    0    0  0.35384574901E+02 -0.11095639075E+02 -0.22548651724E+02  0.47787273716E+02  0.20000012181E+02 0.  0.
        -12    1    1    2    0    0 -0.35384574901E+02  0.11095639075E+02  0.22548651724E+02  0.43400726284E+02  0.00000000000E+00 0.  1.
         11    1    3    3    0    0  0.10893704068E+02 -0.59647811391E+01 -0.16926321941E+02  0.20994089098E+02  0.51100000000E-03 0. -1.
        -11    1    3    3    0    0 -0.19872598248E+00  0.42872460821E+00  0.56842432407E+00  0.73919096255E+00  0.51100000000E-03 0.  1.
         12    1    3    3    0    0  0.24689596815E+02 -0.55595825440E+01 -0.61907541073E+01  0.26053993655E+02  0.00000000000E+00 0. -1.
</event>
<event>
 7    1  0.2714068E-010  0.4778727E+02  0.7816164E-02  0.1312668E+00
        -11   -1    0    0    0    0  0.00000000000E+00  0.00000000000E+00  0.45593999997E+02  0.45594000000E+02  0.51100000000E-03 0.  1.
         11   -1    0    0    0    0 -0.00000000000E+00 -0.00000000000E+00 -0.45593999997E+02  0.45594000000E+02  0.51100000000E-03 0. -1.
    9900012    2    1    2    0    0 -0.11705610686E+02 -0.17534983222E+02 -0.37935814142E+02  0.47787274744E+02  0.20000016868E+02 0.  0.
        -12    1    1    2    0    0  0.11705610686E+02  0.17534983222E+02  0.37935814142E+02  0.43400725256E+02  0.00000000000E+00 0.  1.
         11    1    3    3    0    0 -0.63330425046E+01 -0.11199496213E+02 -0.14194241558E+02  0.19157573867E+02  0.51100000000E-03 0. -1.
        -11    1    3    3    0    0 -0.79572539932E+00  0.41757247299E+01 -0.90134416729E+01  0.99655399745E+01  0.51100000000E-03 0.  1.
        -12    1    3    3    0    0 -0.45768427825E+01 -0.10511211738E+02 -0.14728130911E+02  0.18664160902E+02  0.00000000000E+00 0.  1.
</event>
<event>
 7    1  0.2714068E-010  0.4778727E+02  0.7816164E-02  0.1312668E+00
        -11   -1    0    0    0    0  0.00000000000E+00  0.00000000000E+00  0.45593999997E+02  0.45594000000E+02  0.51100000000E-03 0.  1.
         11   -1    0    0    0    0 -0.00000000000E+00 -0.00000000000E+00 -0.45593999997E+02  0.45594000000E+02  0.51100000000E-03 0. -1.
    9900012    2    1    2    0    0  0.26811356789E+02 -0.52410409711E+01 -0.33723969662E+02  0.47787268519E+02  0.19999988486E+02 0.  0.
        -12    1    1    2    0    0 -0.26811356789E+02  0.52410409711E+01  0.33723969662E+02  0.43400731481E+02  0.00000000000E+00 0.  1.
         11    1    3    3    0    0  0.26526620586E+01 -0.24285572435E+01 -0.14336258391E+02  0.14780487516E+02  0.51100000000E-03 0. -1.
        -11    1    3    3    0    0  0.17586857796E+02 -0.66136272181E+01 -0.11354130177E+02  0.21953448577E+02  0.51100000000E-03 0.  1.
        -12    1    3    3    0    0  0.65718369348E+01  0.38011434905E+01 -0.80335810934E+01  0.11053332426E+02  0.00000000000E+00 0.  1.
</event>
<event>
 7    1  0.2714068E-010  0.4778728E+02  0.7816164E-02  0.1312668E+00
        -11   -1    0    0    0    0  0.00000000000E+00  0.00000000000E+00  0.45593999997E+02  0.45594000000E+02  0.51100000000E-03 0. -1.
         11   -1    0    0    0    0 -0.00000000000E+00 -0.00000000000E+00 -0.45593999997E+02  0.45594000000E+02  0.51100000000E-03 0.  1.
    9900012    2    1    2    0    0 -0.12508019740E+02  0.29882363543E+02 -0.28882806387E+02  0.47787277500E+02  0.20000029432E+02 0.  0.
        -12    1    1    2    0    0  0.12508019740E+02 -0.29882363543E+02  0.28882806387E+02  0.43400722500E+02  0.00000000000E+00 0.  1.
         11    1    3    3    0    0 -0.33996762238E+01  0.10487087545E+02  0.91850439697E+00  0.11062569963E+02  0.51100000000E-03 0. -1.
        -11    1    3    3    0    0 -0.84475320039E+01  0.18572335628E+02 -0.28456134442E+02  0.35014911613E+02  0.51100000000E-03 0.  1.
         12    1    3    3    0    0 -0.66081151245E+00  0.82294036967E+00 -0.13451763426E+01  0.17097959234E+01  0.00000000000E+00 0. -1.
</event>
<event>
 7    1  0.2714068E-010  0.4778727E+02  0.7816164E-02  0.1312668E+00
        -11   -1    0    0    0    0  0.00000000000E+00  0.00000000000E+00  0.45593999997E+02  0.45594000000E+02  0.51100000000E-03 0. -1.
         11   -1    0    0    0    0 -0.00000000000E+00 -0.00000000000E+00 -0.45593999997E+02  0.45594000000E+02  0.51100000000E-03 0.  1.
    9900012    2    1    2    0    0  0.41806035251E+02 -0.10681173279E+02  0.46681349190E+01  0.47787268098E+02  0.19999986566E+02 0.  0.
        -12    1    1    2    0    0 -0.41806035251E+02  0.10681173279E+02 -0.46681349190E+01  0.43400731902E+02  0.00000000000E+00 0.  1.
         11    1    3    3    0    0  0.23049742236E+02 -0.96057756965E+01 -0.30933606387E+01  0.25162083065E+02  0.51100000000E-03 0. -1.
        -11    1    3    3    0    0  0.13296350486E+01  0.27686502689E+01 -0.21328386265E+00  0.30787731227E+01  0.51100000000E-03 0.  1.
         12    1    3    3    0    0  0.17426657967E+02 -0.38440478512E+01  0.79747794204E+01  0.19546411910E+02  0.00000000000E+00 0. -1.
</event>
<event>
 7    1  0.2714068E-010  0.4778728E+02  0.7816164E-02  0.1312668E+00
        -11   -1    0    0    0    0  0.00000000000E+00  0.00000000000E+00  0.45593999997E+02  0.45594000000E+02  0.51100000000E-03 0. -1.
         11   -1    0    0    0    0 -0.00000000000E+00 -0.00000000000E+00 -0.45593999997E+02  0.45594000000E+02  0.51100000000E-03 0.  1.
    9900012    2    1    2    0    0 -0.16130100047E+01 -0.43336894171E+02  0.17130696453E+01  0.47787276443E+02  0.20000024612E+02 0.  0.
        -12    1    1    2    0    0  0.16130100047E+01  0.43336894171E+02 -0.17130696453E+01  0.43400723557E+02  0.00000000000E+00 0.  1.
         11    1    3    3    0    0 -0.69702502551E+01 -0.31206525873E+02  0.17734984895E+01  0.32024630253E+02  0.51100000000E-03 0. -1.
        -11    1    3    3    0    0  0.78992014991E+00 -0.21383435559E+01 -0.35643953836E+01  0.42310048119E+01  0.51100000000E-03 0.  1.
         12    1    3    3    0    0  0.45673201005E+01 -0.99920247423E+01  0.35039665395E+01  0.11531641378E+02  0.00000000000E+00 0. -1.
</event>
<event>
 7    1  0.2714068E-010  0.4778729E+02  0.7816164E-02  0.1312668E+00
        -11   -1    0    0    0    0  0.00000000000E+00  0.00000000000E+00  0.45593999997E+02  0.45594000000E+02  0.51100000000E-03 0.  1.
         11   -1    0    0    0    0 -0.00000000000E+00 -0.00000000000E+00 -0.45593999997E+02  0.45594000000E+02  0.51100000000E-03 0. -1.
    9900012    2    1    2    0    0  0.83833963074E+01  0.39990741465E+02 -0.14631516028E+02  0.47787285745E+02  0.20000067027E+02 0.  0.
        -12    1    1    2    0    0 -0.83833963074E+01 -0.39990741465E+02  0.14631516028E+02  0.43400714255E+02  0.00000000000E+00 0.  1.
         11    1    3    3    0    0  0.13864154258E-01  0.21906625702E+02 -0.14168643237E+02  0.26089286945E+02  0.51100000000E-03 0. -1.
        -11    1    3    3    0    0 -0.17729399482E+01  0.20437915909E+01 -0.27032095555E+00  0.27190942990E+01  0.51100000000E-03 0.  1.
         12    1    3    3    0    0  0.10142472101E+02  0.16040324172E+02 -0.19255183575E+00  0.18978904502E+02  0.00000000000E+00 0. -1.
</event>
<event>
 7    1  0.2714068E-010  0.4778727E+02  0.7816164E-02  0.1312668E+00
        -11   -1    0    0    0    0  0.00000000000E+00  0.00000000000E+00  0.45593999997E+02  0.45594000000E+02  0.51100000000E-03 0. -1.
         11   -1    0    0    0    0 -0.00000000000E+00 -0.00000000000E+00 -0.45593999997E+02  0.45594000000E+02  0.51100000000E-03 0.  1.
    9900012    2    1    2    0    0 -0.25740236709E+02 -0.31542549901E+02  0.15037659491E+02  0.47787269095E+02  0.19999991113E+02 0.  0.
        -12    1    1    2    0    0  0.25740236709E+02  0.31542549901E+02 -0.15037659491E+02  0.43400730905E+02  0.00000000000E+00 0.  1.
         11    1    3    3    0    0 -0.10696655587E+02 -0.18429316430E+02  0.95881065034E+01  0.23366427442E+02  0.51100000000E-03 0. -1.
        -11    1    3    3    0    0 -0.17128745205E+02 -0.94574930570E+01  0.49501023558E+01  0.20182705488E+02  0.51100000000E-03 0.  1.
        -12    1    3    3    0    0  0.20851640825E+01 -0.36557404132E+01  0.49945063212E+00  0.42381361650E+01  0.00000000000E+00 0.  1.
</event>
<event>
 7    1  0.2714068E-010  0.4778727E+02  0.7816164E-02  0.1312668E+00
        -11   -1    0    0    0    0  0.00000000000E+00  0.00000000000E+00  0.45593999997E+02  0.45594000000E+02  0.51100000000E-03 0. -1.
         11   -1    0    0    0    0 -0.00000000000E+00 -0.00000000000E+00 -0.45593999997E+02  0.45594000000E+02  0.51100000000E-03 0.  1.
    9900012    2    1    2    0    0  0.29369726156E+02 -0.31479283113E+02  0.54860992193E+01  0.47787270001E+02  0.19999995244E+02 0.  0.
        -12    1    1    2    0    0 -0.29369726156E+02  0.31479283113E+02 -0.54860992193E+01  0.43400729999E+02  0.00000000000E+00 0.  1.
         11    1    3    3    0    0  0.10537196477E+02 -0.20233760010E+02  0.59355056338E+01  0.23572606583E+02  0.51100000000E-03 0. -1.
        -11    1    3    3    0    0  0.12210493323E+00 -0.39502207362E+01  0.10106704177E+01  0.40792901874E+01  0.51100000000E-03 0.  1.
         12    1    3    3    0    0  0.18710424745E+02 -0.72953023667E+01 -0.14600768322E+01  0.20135373230E+02  0.00000000000E+00 0. -1.
</event>
<event>
 7    1  0.2714068E-010  0.4778721E+02  0.7816164E-02  0.1312668E+00
        -11   -1    0    0    0    0  0.00000000000E+00  0.00000000000E+00  0.45593999997E+02  0.45594000000E+02  0.51100000000E-03 0.  1.
         11   -1    0    0    0    0 -0.00000000000E+00 -0.00000000000E+00 -0.45593999997E+02  0.45594000000E+02  0.51100000000E-03 0. -1.
    9900012    2    1    2    0    0  0.24148192045E+02  0.33807103973E+02 -0.12552797754E+02  0.47787214414E+02  0.19999741796E+02 0.  0.
        -12    1    1    2    0    0 -0.24148192045E+02 -0.33807103973E+02  0.12552797754E+02  0.43400785586E+02  0.00000000000E+00 0.  1.
         11    1    3    3    0    0  0.85328464222E+01  0.21939050167E+02 -0.94265806014E+01  0.25357283222E+02  0.51100000000E-03 0. -1.
        -11    1    3    3    0    0  0.67683359814E+01 -0.30298039239E+00  0.94866143762E+00  0.68412080701E+01  0.51100000000E-03 0.  1.
        -12    1    3    3    0    0  0.88470096411E+01  0.12171034198E+02 -0.40748785899E+01  0.15588723122E+02  0.00000000000E+00 0.  1.
</event>
<event>
 7    1  0.2714068E-010  0.4778727E+02  0.7816164E-02  0.1312668E+00
        -11   -1    0    0    0    0  0.00000000000E+00  0.00000000000E+00  0.45593999997E+02  0.45594000000E+02  0.51100000000E-03 0. -1.
         11   -1    0    0    0    0 -0.00000000000E+00 -0.00000000000E+00 -0.45593999997E+02  0.45594000000E+02  0.51100000000E-03 0.  1.
    9900012    2    1    2    0    0  0.31979805438E+02 -0.24467014702E+02  0.16195069719E+02  0.47787273653E+02  0.20000011892E+02 0.  0.
        -12    1    1    2    0    0 -0.31979805438E+02  0.24467014702E+02 -0.16195069719E+02  0.43400726347E+02  0.00000000000E+00 0.  1.
         11    1    3    3    0    0  0.21818058694E+02 -0.22533731522E+02  0.12142858449E+02  0.33633996983E+02  0.51100000000E-03 0. -1.
        -11    1    3    3    0    0  0.47765032973E+01  0.27622361382E+00 -0.24922613565E+01  0.53946872165E+01  0.51100000000E-03 0.  1.
        -12    1    3    3    0    0  0.53852434465E+01 -0.22095067936E+01  0.65444726268E+01  0.87585894533E+01  0.00000000000E+00 0.  1.
</event>
<event>
 7    1  0.2714068E-010  0.4778727E+02  0.7816164E-02  0.1312668E+00
        -11   -1    0    0    0    0  0.00000000000E+00  0.00000000000E+00  0.45593999997E+02  0.45594000000E+02  0.51100000000E-03 0. -1.
         11   -1    0    0    0    0 -0.00000000000E+00 -0.00000000000E+00 -0.45593999997E+02  0.45594000000E+02  0.51100000000E-03 0.  1.
    9900012    2    1    2    0    0 -0.15118899872E+02 -0.36949925229E+02  0.17021915285E+02  0.47787266046E+02  0.19999977210E+02 0.  0.
        -12    1    1    2    0    0  0.15118899872E+02  0.36949925229E+02 -0.17021915285E+02  0.43400733954E+02  0.00000000000E+00 0.  1.
         11    1    3    3    0    0 -0.10341466986E+02 -0.25282925551E+02  0.20390631354E+02  0.34087389327E+02  0.51100000000E-03 0. -1.
        -11    1    3    3    0    0 -0.39629402095E+01 -0.58466965528E+01 -0.33627866618E+01  0.78228569000E+01  0.51100000000E-03 0.  1.
         12    1    3    3    0    0 -0.81449267669E+00 -0.58203031258E+01 -0.59294080289E-02  0.58770198191E+01  0.00000000000E+00 0. -1.
</event>
<event>
 7    1  0.2714068E-010  0.4778727E+02  0.7816164E-02  0.1312668E+00
        -11   -1    0    0    0    0  0.00000000000E+00  0.00000000000E+00  0.45593999997E+02  0.45594000000E+02  0.51100000000E-03 0.  1.
         11   -1    0    0    0    0 -0.00000000000E+00 -0.00000000000E+00 -0.45593999997E+02  0.45594000000E+02  0.51100000000E-03 0. -1.
    9900012    2    1    2    0    0 -0.60537761343E+01  0.39113483093E+02 -0.17807594552E+02  0.47787272024E+02  0.20000004464E+02 0.  0.
        -12    1    1    2    0    0  0.60537761343E+01 -0.39113483093E+02  0.17807594552E+02  0.43400727976E+02  0.00000000000E+00 0.  1.
         11    1    3    3    0    0 -0.10530279632E+01  0.63749714272E+01 -0.83264139571E+01  0.10539368968E+02  0.51100000000E-03 0. -1.
        -11    1    3    3    0    0  0.13030382799E+01  0.27779685192E+02 -0.89288906144E+01  0.29208456070E+02  0.51100000000E-03 0.  1.
        -12    1    3    3    0    0 -0.63037864511E+01  0.49588264741E+01 -0.55228998012E+00  0.80394469862E+01  0.00000000000E+00 0.  1.
</event>
<event>
 7    1  0.2714068E-010  0.4778727E+02  0.7816164E-02  0.1312668E+00
        -11   -1    0    0    0    0  0.00000000000E+00  0.00000000000E+00  0.45593999997E+02  0.45594000000E+02  0.51100000000E-03 0.  1.
         11   -1    0    0    0    0 -0.00000000000E+00 -0.00000000000E+00 -0.45593999997E+02  0.45594000000E+02  0.51100000000E-03 0. -1.
    9900012    2    1    2    0    0  0.22268122837E+02 -0.28203472249E+02  0.24337587353E+02  0.47787270746E+02  0.19999998642E+02 0.  0.
        -12    1    1    2    0    0 -0.22268122837E+02  0.28203472249E+02 -0.24337587353E+02  0.43400729254E+02  0.00000000000E+00 0.  1.
         11    1    3    3    0    0  0.53768129917E+01 -0.11324293995E+02  0.68957566779E+01  0.14307383159E+02  0.51100000000E-03 0. -1.
        -11    1    3    3    0    0  0.11029896811E+02 -0.18186892241E+02  0.17389847659E+02  0.27474141932E+02  0.51100000000E-03 0.  1.
        -12    1    3    3    0    0  0.58614130348E+01  0.13077139880E+01  0.51983016006E-01  0.60057456551E+01  0.00000000000E+00 0.  1.
</event>
<event>
 7    1  0.2714068E-010  0.4778729E+02  0.7816164E-02  0.1312668E+00
        -11   -1    0    0    0    0  0.00000000000E+00  0.00000000000E+00  0.45593999997E+02  0.45594000000E+02  0.51100000000E-03 0. -1.
         11   -1    0    0    0    0 -0.00000000000E+00 -0.00000000000E+00 -0.45593999997E+02  0.45594000000E+02  0.51100000000E-03 0.  1.
    9900012    2    1    2    0    0  0.13454710000E+02 -0.41095207716E+02  0.37116682001E+01  0.47787288033E+02  0.20000077458E+02 0.  0.
        -12    1    1    2    0    0 -0.13454710000E+02  0.41095207716E+02 -0.37116682001E+01  0.43400711967E+02  0.00000000000E+00 0.  1.
         11    1    3    3    0    0  0.66747104865E+01 -0.21172641188E+02 -0.32162099118E+01  0.22431596052E+02  0.51100000000E-03 0.  1.
        -11    1    3    3    0    0  0.92035117857E+01 -0.14036395241E+02  0.84777227123E+01  0.18804169836E+02  0.51100000000E-03 0. -1.
        -12    1    3    3    0    0 -0.24235122718E+01 -0.58861712859E+01 -0.15498446005E+01  0.65515221456E+01  0.00000000000E+00 0.  1.
</event>
<event>
 7    1  0.2714068E-010  0.4778727E+02  0.7816164E-02  0.1312668E+00
        -11   -1    0    0    0    0  0.00000000000E+00  0.00000000000E+00  0.45593999997E+02  0.45594000000E+02  0.51100000000E-03 0.  1.
         11   -1    0    0    0    0 -0.00000000000E+00 -0.00000000000E+00 -0.45593999997E+02  0.45594000000E+02  0.51100000000E-03 0. -1.
    9900012    2    1    2    0    0 -0.43360435309E+02 -0.12790203980E-01 -0.18696386332E+01  0.47787273481E+02  0.20000011110E+02 0.  0.
        -12    1    1    2    0    0  0.43360435309E+02  0.12790203980E-01  0.18696386332E+01  0.43400726519E+02  0.00000000000E+00 0.  1.
         11    1    3    3    0    0 -0.27982787462E+02  0.57369507438E+01 -0.28656661201E+01  0.28708205109E+02  0.51100000000E-03 0. -1.
        -11    1    3    3    0    0 -0.52092737371E+01 -0.29450618202E+01  0.49985329882E+01  0.77971311575E+01  0.51100000000E-03 0.  1.
         12    1    3    3    0    0 -0.10168374109E+02 -0.28046791275E+01 -0.40025055013E+01  0.11281937215E+02  0.00000000000E+00 0. -1.
</event>
<event>
 7    1  0.2714068E-010  0.4778727E+02  0.7816164E-02  0.1312668E+00
        -11   -1    0    0    0    0  0.00000000000E+00  0.00000000000E+00  0.45593999997E+02  0.45594000000E+02  0.51100000000E-03 0.  1.
         11   -1    0    0    0    0 -0.00000000000E+00 -0.00000000000E+00 -0.45593999997E+02  0.45594000000E+02  0.51100000000E-03 0. -1.
    9900012    2    1    2    0    0  0.57342492413E+01 -0.17692837954E+02 -0.39213581869E+02  0.47787272676E+02  0.20000007438E+02 0.  0.
        -12    1    1    2    0    0 -0.57342492413E+01  0.17692837954E+02  0.39213581869E+02  0.43400727324E+02  0.00000000000E+00 0.  1.
         11    1    3    3    0    0  0.54602166276E+01 -0.41375781313E+01 -0.14683489503E+02  0.16203036217E+02  0.51100000000E-03 0. -1.
        -11    1    3    3    0    0 -0.62734770291E+01 -0.11343711473E+02 -0.15286291993E+02  0.20042630246E+02  0.51100000000E-03 0.  1.
        -12    1    3    3    0    0  0.65475096428E+01 -0.22115483500E+01 -0.92438003732E+01  0.11541606213E+02  0.00000000000E+00 0.  1.
</event>
<event>
 7    1  0.2714068E-010  0.4778727E+02  0.7816164E-02  0.1312668E+00
        -11   -1    0    0    0    0  0.00000000000E+00  0.00000000000E+00  0.45593999997E+02  0.45594000000E+02  0.51100000000E-03 0.  1.
         11   -1    0    0    0    0 -0.00000000000E+00 -0.00000000000E+00 -0.45593999997E+02  0.45594000000E+02  0.51100000000E-03 0. -1.
    9900012    2    1    2    0    0 -0.42201714137E+02  0.15501095664E+00 -0.10129868651E+02  0.47787274852E+02  0.20000017358E+02 0.  0.
        -12    1    1    2    0    0  0.42201714137E+02 -0.15501095664E+00  0.10129868651E+02  0.43400725148E+02  0.00000000000E+00 0.  1.
         11    1    3    3    0    0 -0.49025433248E+01 -0.58363420644E+01  0.15875225698E+01  0.77857593023E+01  0.51100000000E-03 0. -1.
        -11    1    3    3    0    0 -0.12163943285E+02  0.24121198187E+01 -0.67933372666E+01  0.14139634710E+02  0.51100000000E-03 0.  1.
         12    1    3    3    0    0 -0.25135227528E+02  0.35792332023E+01 -0.49240539545E+01  0.25861880839E+02  0.00000000000E+00 0. -1.
</event>
<event>
 7    1  0.2714068E-010  0.4778728E+02  0.7816164E-02  0.1312668E+00
        -11   -1    0    0    0    0  0.00000000000E+00  0.00000000000E+00  0.45593999997E+02  0.45594000000E+02  0.51100000000E-03 0. -1.
         11   -1    0    0    0    0 -0.00000000000E+00 -0.00000000000E+00 -0.45593999997E+02  0.45594000000E+02  0.51100000000E-03 0.  1.
    9900012    2    1    2    0    0  0.25740574741E+02 -0.16569651577E+02  0.30765113557E+02  0.47787277039E+02  0.20000027331E+02 0.  0.
        -12    1    1    2    0    0 -0.25740574741E+02  0.16569651577E+02 -0.30765113557E+02  0.43400722961E+02  0.00000000000E+00 0.  1.
         11    1    3    3    0    0  0.17880580061E+02 -0.12500963942E+02  0.14903274648E+02  0.26421522256E+02  0.51100000000E-03 0. -1.
        -11    1    3    3    0    0  0.59648536305E+01  0.22004858236E+00  0.15561925054E+02  0.16667375674E+02  0.51100000000E-03 0.  1.
        -12    1    3    3    0    0  0.18951410489E+01 -0.42887362173E+01  0.29991385543E+00  0.46983791096E+01  0.00000000000E+00 0.  1.
</event>
<event>
 7    1  0.2714068E-010  0.4778727E+02  0.7816164E-02  0.1312668E+00
        -11   -1    0    0    0    0  0.00000000000E+00  0.00000000000E+00  0.45593999997E+02  0.45594000000E+02  0.51100000000E-03 0.  1.
         11   -1    0    0    0    0 -0.00000000000E+00 -0.00000000000E+00 -0.45593999997E+02  0.45594000000E+02  0.51100000000E-03 0. -1.
    9900012    2    1    2    0    0  0.30466786013E+01  0.39541314532E+02 -0.17630235637E+02  0.47787274038E+02  0.20000013651E+02 0.  0.
        -12    1    1    2    0    0 -0.30466786013E+01 -0.39541314532E+02  0.17630235637E+02  0.43400725962E+02  0.00000000000E+00 0.  1.
         11    1    3    3    0    0 -0.41894879803E+01  0.48402822531E+01  0.42936263987E+00  0.64159562315E+01  0.51100000000E-03 0. -1.
        -11    1    3    3    0    0  0.33568534784E+01  0.33317652676E+01  0.43552089507E+00  0.47496109089E+01  0.51100000000E-03 0.  1.
         12    1    3    3    0    0  0.38793131031E+01  0.31369267011E+02 -0.18495119172E+02  0.36621706898E+02  0.00000000000E+00 0. -1.
</event>
<event>
 7    1  0.2714068E-010  0.4778728E+02  0.7816164E-02  0.1312668E+00
        -11   -1    0    0    0    0  0.00000000000E+00  0.00000000000E+00  0.45593999997E+02  0.45594000000E+02  0.51100000000E-03 0.  1.
         11   -1    0    0    0    0 -0.00000000000E+00 -0.00000000000E+00 -0.45593999997E+02  0.45594000000E+02  0.51100000000E-03 0. -1.
    9900012    2    1    2    0    0  0.38627665985E+02  0.18524703462E+02  0.69542578815E+01  0.47787275115E+02  0.20000018561E+02 0.  0.
        -12    1    1    2    0    0 -0.38627665985E+02 -0.18524703462E+02 -0.69542578815E+01  0.43400724885E+02  0.00000000000E+00 0.  1.
         11    1    3    3    0    0  0.67872410787E+01  0.35349683262E+01  0.82691024376E+01  0.11266796258E+02  0.51100000000E-03 0. -1.
        -11    1    3    3    0    0  0.28710486145E+00  0.24436255832E+01  0.52021422773E+00  0.25148276872E+01  0.51100000000E-03 0.  1.
         12    1    3    3    0    0  0.31553320045E+02  0.12546109553E+02 -0.18350587838E+01  0.34005651170E+02  0.00000000000E+00 0. -1.
</event>
<event>
 7    1  0.2714068E-010  0.4778727E+02  0.7816164E-02  0.1312668E+00
        -11   -1    0    0    0    0  0.00000000000E+00  0.00000000000E+00  0.45593999997E+02  0.45594000000E+02  0.51100000000E-03 0. -1.
         11   -1    0    0    0    0 -0.00000000000E+00 -0.00000000000E+00 -0.45593999997E+02  0.45594000000E+02  0.51100000000E-03 0.  1.
    9900012    2    1    2    0    0 -0.42797829952E+02 -0.40651185434E+01 -0.59534487590E+01  0.47787274321E+02  0.20000014937E+02 0.  0.
        -12    1    1    2    0    0  0.42797829952E+02  0.40651185434E+01  0.59534487590E+01  0.43400725679E+02  0.00000000000E+00 0.  1.
         11    1    3    3    0    0 -0.17313247930E+02 -0.13303892349E+01  0.25388991607E+01  0.17548917306E+02  0.51100000000E-03 0. -1.
        -11    1    3    3    0    0  0.78743560618E+00  0.55455550778E+00 -0.30622636832E+01  0.32101473131E+01  0.51100000000E-03 0.  1.
        -12    1    3    3    0    0 -0.26272017628E+02 -0.32892848163E+01 -0.54300842365E+01  0.27028209702E+02  0.00000000000E+00 0.  1.
</event>
<event>
 7    1  0.2714068E-010  0.4778727E+02  0.7816164E-02  0.1312668E+00
        -11   -1    0    0    0    0  0.00000000000E+00  0.00000000000E+00  0.45593999997E+02  0.45594000000E+02  0.51100000000E-03 0.  1.
         11   -1    0    0    0    0 -0.00000000000E+00 -0.00000000000E+00 -0.45593999997E+02  0.45594000000E+02  0.51100000000E-03 0. -1.
    9900012    2    1    2    0    0 -0.22020578049E+02 -0.36691157766E+02 -0.72440562430E+01  0.47787271127E+02  0.20000000378E+02 0.  0.
        -12    1    1    2    0    0  0.22020578049E+02  0.36691157766E+02  0.72440562430E+01  0.43400728873E+02  0.00000000000E+00 0.  1.
         11    1    3    3    0    0  0.10124735642E+01 -0.14905344943E+01 -0.13816039131E+01  0.22706002358E+01  0.51100000000E-03 0. -1.
        -11    1    3    3    0    0 -0.13444627236E+02 -0.23724311882E+02 -0.11418490944E+02  0.29563201982E+02  0.51100000000E-03 0.  1.
        -12    1    3    3    0    0 -0.95884243768E+01 -0.11476311390E+02  0.55560386137E+01  0.15953468909E+02  0.00000000000E+00 0.  1.
</event>
<event>
 7    1  0.2714068E-010  0.4778727E+02  0.7816164E-02  0.1312668E+00
        -11   -1    0    0    0    0  0.00000000000E+00  0.00000000000E+00  0.45593999997E+02  0.45594000000E+02  0.51100000000E-03 0.  1.
         11   -1    0    0    0    0 -0.00000000000E+00 -0.00000000000E+00 -0.45593999997E+02  0.45594000000E+02  0.51100000000E-03 0. -1.
    9900012    2    1    2    0    0  0.40280981574E+02 -0.13464983264E+02 -0.89308418981E+01  0.47787272035E+02  0.20000004518E+02 0.  0.
        -12    1    1    2    0    0 -0.40280981574E+02  0.13464983264E+02  0.89308418981E+01  0.43400727965E+02  0.00000000000E+00 0.  1.
         11    1    3    3    0    0  0.82312498882E+01 -0.41771070070E+01 -0.28124985249E+01  0.96494479574E+01  0.51100000000E-03 0. -1.
        -11    1    3    3    0    0  0.77147764293E+01  0.20423251412E+01 -0.79078867642E+01  0.11234925041E+02  0.51100000000E-03 0.  1.
        -12    1    3    3    0    0  0.24334955256E+02 -0.11330201398E+02  0.17895433910E+01  0.26902899037E+02  0.00000000000E+00 0.  1.
</event>
<event>
 7    1  0.2714068E-010  0.4778727E+02  0.7816164E-02  0.1312668E+00
        -11   -1    0    0    0    0  0.00000000000E+00  0.00000000000E+00  0.45593999997E+02  0.45594000000E+02  0.51100000000E-03 0.  1.
         11   -1    0    0    0    0 -0.00000000000E+00 -0.00000000000E+00 -0.45593999997E+02  0.45594000000E+02  0.51100000000E-03 0. -1.
    9900012    2    1    2    0    0 -0.24425142588E+02 -0.30397049062E+02 -0.19054002184E+02  0.47787272110E+02  0.20000004859E+02 0.  0.
        -12    1    1    2    0    0  0.24425142588E+02  0.30397049062E+02  0.19054002184E+02  0.43400727890E+02  0.00000000000E+00 0.  1.
         11    1    3    3    0    0 -0.14810200899E+02 -0.17030117084E+02 -0.13815051016E+02  0.26461719018E+02  0.51100000000E-03 0. -1.
        -11    1    3    3    0    0  0.24416035073E+01 -0.61578312962E+01 -0.17353213030E+01  0.68477481149E+01  0.51100000000E-03 0.  1.
        -12    1    3    3    0    0 -0.12056545197E+02 -0.72091006818E+01 -0.35036298645E+01  0.14477804977E+02  0.00000000000E+00 0.  1.
</event>
<event>
 7    1  0.2714068E-010  0.4778727E+02  0.7816164E-02  0.1312668E+00
        -11   -1    0    0    0    0  0.00000000000E+00  0.00000000000E+00  0.45593999997E+02  0.45594000000E+02  0.51100000000E-03 0.  1.
         11   -1    0    0    0    0 -0.00000000000E+00 -0.00000000000E+00 -0.45593999997E+02  0.45594000000E+02  0.51100000000E-03 0. -1.
    9900012    2    1    2    0    0  0.85968589096E+01  0.25756875623E+02 -0.33857066404E+02  0.47787267628E+02  0.19999984421E+02 0.  0.
        -12    1    1    2    0    0 -0.85968589096E+01 -0.25756875623E+02  0.33857066404E+02  0.43400732372E+02  0.00000000000E+00 0.  1.
         11    1    3    3    0    0  0.42728941147E+01  0.22766225541E+02 -0.31215622386E+02  0.38871245551E+02  0.51100000000E-03 0. -1.
        -11    1    3    3    0    0 -0.17025016798E+00 -0.18783514484E+01 -0.47797308223E+00  0.19456741279E+01  0.51100000000E-03 0.  1.
        -12    1    3    3    0    0  0.44942149630E+01  0.48690015303E+01 -0.21634709363E+01  0.69703479488E+01  0.00000000000E+00 0.  1.
</event>
<event>
 7    1  0.2714068E-010  0.4778727E+02  0.7816164E-02  0.1312668E+00
        -11   -1    0    0    0    0  0.00000000000E+00  0.00000000000E+00  0.45593999997E+02  0.45594000000E+02  0.51100000000E-03 0.  1.
         11   -1    0    0    0    0 -0.00000000000E+00 -0.00000000000E+00 -0.45593999997E+02  0.45594000000E+02  0.51100000000E-03 0. -1.
    9900012    2    1    2    0    0  0.40886799434E+02 -0.11731024670E+02 -0.86183391630E+01  0.47787273304E+02  0.20000010303E+02 0.  0.
        -12    1    1    2    0    0 -0.40886799434E+02  0.11731024670E+02  0.86183391630E+01  0.43400726696E+02  0.00000000000E+00 0.  1.
         11    1    3    3    0    0  0.19044256783E+02  0.17007108726E+01 -0.56490737226E+01  0.19937105308E+02  0.51100000000E-03 0. -1.
        -11    1    3    3    0    0  0.15212326213E+02 -0.14180731365E+02 -0.37501472769E+01  0.21132241142E+02  0.51100000000E-03 0.  1.
        -12    1    3    3    0    0  0.66302164389E+01  0.74899582197E+00  0.78088183651E+00  0.67179268536E+01  0.00000000000E+00 0.  1.
</event>
<event>
 7    1  0.2714068E-010  0.4778727E+02  0.7816164E-02  0.1312668E+00
        -11   -1    0    0    0    0  0.00000000000E+00  0.00000000000E+00  0.45593999997E+02  0.45594000000E+02  0.51100000000E-03 0.  1.
         11   -1    0    0    0    0 -0.00000000000E+00 -0.00000000000E+00 -0.45593999997E+02  0.45594000000E+02  0.51100000000E-03 0. -1.
    9900012    2    1    2    0    0  0.20828584635E+02  0.37815844667E+02 -0.44446913279E+01  0.47787270435E+02  0.19999997222E+02 0.  0.
        -12    1    1    2    0    0 -0.20828584635E+02 -0.37815844667E+02  0.44446913279E+01  0.43400729565E+02  0.00000000000E+00 0.  1.
         11    1    3    3    0    0 -0.22000965613E+01  0.33591034922E+01  0.25292892908E+01  0.47456617798E+01  0.51100000000E-03 0. -1.
        -11    1    3    3    0    0  0.61506845668E+00  0.42972636060E+01  0.13663728846E+01  0.45510173398E+01  0.51100000000E-03 0.  1.
         12    1    3    3    0    0  0.22413612740E+02  0.30159477569E+02 -0.83403535033E+01  0.38490591316E+02  0.00000000000E+00 0. -1.
</event>
<event>
 7    1  0.2714068E-010  0.4778727E+02  0.7816164E-02  0.1312668E+00
        -11   -1    0    0    0    0  0.00000000000E+00  0.00000000000E+00  0.45593999997E+02  0.45594000000E+02  0.51100000000E-03 0.  1.
         11   -1    0    0    0    0 -0.00000000000E+00 -0.00000000000E+00 -0.45593999997E+02  0.45594000000E+02  0.51100000000E-03 0. -1.
    9900012    2    1    2    0    0  0.14970587556E+02  0.90077281426E+01 -0.39728651619E+02  0.47787269390E+02  0.19999992455E+02 0.  0.
        -12    1    1    2    0    0 -0.14970587556E+02 -0.90077281426E+01  0.39728651619E+02  0.43400730610E+02  0.00000000000E+00 0.  1.
         11    1    3    3    0    0  0.73619325103E+01 -0.24368750777E+01 -0.16103180190E+02  0.17873131313E+02  0.51100000000E-03 0. -1.
        -11    1    3    3    0    0  0.62660004084E+01  0.87919150037E+01 -0.66494613327E+01  0.12679742380E+02  0.51100000000E-03 0.  1.
        -12    1    3    3    0    0  0.13426546378E+01  0.26526882165E+01 -0.16976010096E+02  0.17234395697E+02  0.00000000000E+00 0.  1.
</event>
<event>
 7    1  0.2714068E-010  0.4778727E+02  0.7816164E-02  0.1312668E+00
        -11   -1    0    0    0    0  0.00000000000E+00  0.00000000000E+00  0.45593999997E+02  0.45594000000E+02  0.51100000000E-03 0.  1.
         11   -1    0    0    0    0 -0.00000000000E+00 -0.00000000000E+00 -0.45593999997E+02  0.45594000000E+02  0.51100000000E-03 0. -1.
    9900012    2    1    2    0    0  0.15466462982E+02  0.22777879814E+02 -0.33549662300E+02  0.47787272743E+02  0.20000007743E+02 0.  0.
        -12    1    1    2    0    0 -0.15466462982E+02 -0.22777879814E+02  0.33549662300E+02  0.43400727257E+02  0.00000000000E+00 0.  1.
         11    1    3    3    0    0  0.11986624367E+01  0.29177466386E+00  0.21084515660E+01  0.24428451361E+01  0.51100000000E-03 0. -1.
        -11    1    3    3    0    0  0.18551293811E+00  0.71850040463E+01 -0.10070926074E+02  0.12372641207E+02  0.51100000000E-03 0.  1.
         12    1    3    3    0    0  0.14082287608E+02  0.15301101104E+02 -0.25587187792E+02  0.32971786399E+02  0.00000000000E+00 0. -1.
</event>
<event>
 7    1  0.2714068E-010  0.4778728E+02  0.7816164E-02  0.1312668E+00
        -11   -1    0    0    0    0  0.00000000000E+00  0.00000000000E+00  0.45593999997E+02  0.45594000000E+02  0.51100000000E-03 0.  1.
         11   -1    0    0    0    0 -0.00000000000E+00 -0.00000000000E+00 -0.45593999997E+02  0.45594000000E+02  0.51100000000E-03 0. -1.
    9900012    2    1    2    0    0  0.14111567647E+01  0.26889691529E+02 -0.34037859569E+02  0.47787276988E+02  0.20000027097E+02 0.  0.
        -12    1    1    2    0    0 -0.14111567647E+01 -0.26889691529E+02  0.34037859569E+02  0.43400723012E+02  0.00000000000E+00 0.  1.
         11    1    3    3    0    0 -0.90790072233E+00  0.67392220068E+01 -0.23571792177E+02  0.24533054919E+02  0.51100000000E-03 0. -1.
        -11    1    3    3    0    0 -0.29980433991E+00  0.13241635829E+02 -0.79565870099E+01  0.15451151386E+02  0.51100000000E-03 0.  1.
         12    1    3    3    0    0  0.26188618269E+01  0.69088336936E+01 -0.25094803824E+01  0.78030706818E+01  0.00000000000E+00 0. -1.
</event>
<event>
 7    1  0.2714068E-010  0.4778727E+02  0.7816164E-02  0.1312668E+00
        -11   -1    0    0    0    0  0.00000000000E+00  0.00000000000E+00  0.45593999997E+02  0.45594000000E+02  0.51100000000E-03 0.  1.
         11   -1    0    0    0    0 -0.00000000000E+00 -0.00000000000E+00 -0.45593999997E+02  0.45594000000E+02  0.51100000000E-03 0. -1.
    9900012    2    1    2    0    0 -0.15023382334E+02 -0.34082579988E+02 -0.22277767016E+02  0.47787272142E+02  0.20000005004E+02 0.  0.
        -12    1    1    2    0    0  0.15023382334E+02  0.34082579988E+02  0.22277767016E+02  0.43400727858E+02  0.00000000000E+00 0.  1.
         11    1    3    3    0    0 -0.18033782707E+01 -0.21642668411E+01  0.28570898443E+01  0.40123791928E+01  0.51100000000E-03 0.  1.
        -11    1    3    3    0    0 -0.14258722280E+02 -0.30599567583E+02 -0.25148367616E+02  0.42096141050E+02  0.51100000000E-03 0. -1.
         12    1    3    3    0    0  0.10387182166E+01 -0.13187455643E+01  0.13510756213E-01  0.16787518987E+01  0.00000000000E+00 0. -1.
</event>
<event>
 7    1  0.2714068E-010  0.4778727E+02  0.7816164E-02  0.1312668E+00
        -11   -1    0    0    0    0  0.00000000000E+00  0.00000000000E+00  0.45593999997E+02  0.45594000000E+02  0.51100000000E-03 0. -1.
         11   -1    0    0    0    0 -0.00000000000E+00 -0.00000000000E+00 -0.45593999997E+02  0.45594000000E+02  0.51100000000E-03 0.  1.
    9900012    2    1    2    0    0  0.72557038142E+00  0.42877448399E+02  0.66798960153E+01  0.47787273688E+02  0.20000012055E+02 0.  0.
        -12    1    1    2    0    0 -0.72557038142E+00 -0.42877448399E+02 -0.66798960153E+01  0.43400726312E+02  0.00000000000E+00 0.  1.
         11    1    3    3    0    0 -0.32356751826E+01  0.15243250550E+02  0.56719917393E+01  0.16583056768E+02  0.51100000000E-03 0. -1.
        -11    1    3    3    0    0  0.41035904249E+01  0.88342281770E+00  0.14743419340E+01  0.44489970386E+01  0.51100000000E-03 0.  1.
        -12    1    3    3    0    0 -0.14234486091E+00  0.26750775031E+02 -0.46643765791E+00  0.26755219882E+02  0.00000000000E+00 0.  1.
</event>
<event>
 7    1  0.2714068E-010  0.4778728E+02  0.7816164E-02  0.1312668E+00
        -11   -1    0    0    0    0  0.00000000000E+00  0.00000000000E+00  0.45593999997E+02  0.45594000000E+02  0.51100000000E-03 0.  1.
         11   -1    0    0    0    0 -0.00000000000E+00 -0.00000000000E+00 -0.45593999997E+02  0.45594000000E+02  0.51100000000E-03 0. -1.
    9900012    2    1    2    0    0  0.41498960977E+02  0.10766069020E+02 -0.67491360804E+01  0.47787276018E+02  0.20000022678E+02 0.  0.
        -12    1    1    2    0    0 -0.41498960977E+02 -0.10766069020E+02  0.67491360804E+01  0.43400723982E+02  0.00000000000E+00 0.  1.
         11    1    3    3    0    0  0.23267007786E+02 -0.16951748488E+01 -0.33292418539E+01  0.23565040222E+02  0.51100000000E-03 0. -1.
        -11    1    3    3    0    0  0.30763475036E+01  0.43048986228E+01  0.27194004497E+01  0.59490507800E+01  0.51100000000E-03 0.  1.
         12    1    3    3    0    0  0.15155605687E+02  0.81563452458E+01 -0.61392946761E+01  0.18273185016E+02  0.00000000000E+00 0. -1.
</event>
<event>
 7    1  0.2714068E-010  0.4778727E+02  0.7816164E-02  0.1312668E+00
        -11   -1    0    0    0    0  0.00000000000E+00  0.00000000000E+00  0.45593999997E+02  0.45594000000E+02  0.51100000000E-03 0.  1.
         11   -1    0    0    0    0 -0.00000000000E+00 -0.00000000000E+00 -0.45593999997E+02  0.45594000000E+02  0.51100000000E-03 0. -1.
    9900012    2    1    2    0    0  0.50628222543E+01  0.29435197140E+02 -0.31489052825E+02  0.47787269042E+02  0.19999990872E+02 0.  0.
        -12    1    1    2    0    0 -0.50628222543E+01 -0.29435197140E+02  0.31489052825E+02  0.43400730958E+02  0.00000000000E+00 0.  1.
         11    1    3    3    0    0  0.44949312962E+01  0.20231492544E+02 -0.18207375164E+02  0.27586703474E+02  0.51100000000E-03 0. -1.
        -11    1    3    3    0    0  0.35042799942E+01 -0.97169483906E+00 -0.69970930799E+01  0.78856503199E+01  0.51100000000E-03 0.  1.
        -12    1    3    3    0    0 -0.29363890362E+01  0.10175399435E+02 -0.62845845811E+01  0.12314915249E+02  0.00000000000E+00 0.  1.
</event>
<event>
 7    1  0.2714068E-010  0.4778727E+02  0.7816164E-02  0.1312668E+00
        -11   -1    0    0    0    0  0.00000000000E+00  0.00000000000E+00  0.45593999997E+02  0.45594000000E+02  0.51100000000E-03 0.  1.
         11   -1    0    0    0    0 -0.00000000000E+00 -0.00000000000E+00 -0.45593999997E+02  0.45594000000E+02  0.51100000000E-03 0. -1.
    9900012    2    1    2    0    0  0.28710624287E+02  0.63318666351E+01 -0.31925394181E+02  0.47787271024E+02  0.19999999906E+02 0.  0.
        -12    1    1    2    0    0 -0.28710624287E+02 -0.63318666351E+01  0.31925394181E+02  0.43400728976E+02  0.00000000000E+00 0.  1.
         11    1    3    3    0    0  0.12953551917E+02 -0.11166085208E+01 -0.20075752171E+01  0.13155671034E+02  0.51100000000E-03 0. -1.
        -11    1    3    3    0    0  0.12558539737E+02  0.61863987188E+01 -0.23674026439E+02  0.27503599356E+02  0.51100000000E-03 0.  1.
         12    1    3    3    0    0  0.31985326341E+01  0.12620764371E+01 -0.62437925249E+01  0.71280006340E+01  0.00000000000E+00 0. -1.
</event>
<event>
 7    1  0.2714068E-010  0.4778727E+02  0.7816164E-02  0.1312668E+00
        -11   -1    0    0    0    0  0.00000000000E+00  0.00000000000E+00  0.45593999997E+02  0.45594000000E+02  0.51100000000E-03 0.  1.
         11   -1    0    0    0    0 -0.00000000000E+00 -0.00000000000E+00 -0.45593999997E+02  0.45594000000E+02  0.51100000000E-03 0. -1.
    9900012    2    1    2    0    0  0.14946854120E+02  0.30753304025E+01 -0.40629513886E+02  0.47787268396E+02  0.19999987924E+02 0.  0.
        -12    1    1    2    0    0 -0.14946854120E+02 -0.30753304025E+01  0.40629513886E+02  0.43400731604E+02  0.00000000000E+00 0.  1.
         11    1    3    3    0    0  0.94366533633E+01  0.11345618292E+02 -0.24794625832E+02  0.28853889713E+02  0.51100000000E-03 0. -1.
        -11    1    3    3    0    0  0.60939734959E+00 -0.27933131563E+01 -0.60901577321E+01  0.67278514387E+01  0.51100000000E-03 0.  1.
         12    1    3    3    0    0  0.49008034074E+01 -0.54769747337E+01 -0.97447303216E+01  0.12205527244E+02  0.00000000000E+00 0. -1.
</event>
<event>
 7    1  0.2714068E-010  0.4778728E+02  0.7816164E-02  0.1312668E+00
        -11   -1    0    0    0    0  0.00000000000E+00  0.00000000000E+00  0.45593999997E+02  0.45594000000E+02  0.51100000000E-03 0.  1.
         11   -1    0    0    0    0 -0.00000000000E+00 -0.00000000000E+00 -0.45593999997E+02  0.45594000000E+02  0.51100000000E-03 0. -1.
    9900012    2    1    2    0    0  0.30779629182E+02  0.10657308387E+02 -0.28682030026E+02  0.47787278335E+02  0.20000033241E+02 0.  0.
        -12    1    1    2    0    0 -0.30779629182E+02 -0.10657308387E+02  0.28682030026E+02  0.43400721665E+02  0.00000000000E+00 0.  1.
         11    1    3    3    0    0  0.18113805760E+02  0.23545100774E+01 -0.12822436175E+02  0.22317449374E+02  0.51100000000E-03 0. -1.
        -11    1    3    3    0    0  0.94426706255E+01  0.10276758004E+02 -0.16527398145E+02  0.21631705280E+02  0.51100000000E-03 0.  1.
        -12    1    3    3    0    0  0.32231527960E+01 -0.19739596945E+01  0.66780429350E+00  0.38381236817E+01  0.00000000000E+00 0.  1.
</event>
<event>
 7    1  0.2714068E-010  0.4778727E+02  0.7816164E-02  0.1312668E+00
        -11   -1    0    0    0    0  0.00000000000E+00  0.00000000000E+00  0.45593999997E+02  0.45594000000E+02  0.51100000000E-03 0. -1.
         11   -1    0    0    0    0 -0.00000000000E+00 -0.00000000000E+00 -0.45593999997E+02  0.45594000000E+02  0.51100000000E-03 0.  1.
    9900012    2    1    2    0    0  0.15158237929E+02  0.49867596846E+01  0.40360665057E+02  0.47787271514E+02  0.20000002143E+02 0.  0.
        -12    1    1    2    0    0 -0.15158237929E+02 -0.49867596846E+01 -0.40360665057E+02  0.43400728486E+02  0.00000000000E+00 0.  1.
         11    1    3    3    0    0  0.15464984164E+02 -0.63268498259E+00  0.33297583585E+02  0.36719138039E+02  0.51100000000E-03 0. -1.
        -11    1    3    3    0    0 -0.28786621371E+01  0.37132437380E+01  0.61496531644E+01  0.77390638362E+01  0.51100000000E-03 0.  1.
         12    1    3    3    0    0  0.25719159017E+01  0.19062009292E+01  0.91342830722E+00  0.33290696389E+01  0.00000000000E+00 0. -1.
</event>
<event>
 7    1  0.2714068E-010  0.4778726E+02  0.7816164E-02  0.1312668E+00
        -11   -1    0    0    0    0  0.00000000000E+00  0.00000000000E+00  0.45593999997E+02  0.45594000000E+02  0.51100000000E-03 0.  1.
         11   -1    0    0    0    0 -0.00000000000E+00 -0.00000000000E+00 -0.45593999997E+02  0.45594000000E+02  0.51100000000E-03 0. -1.
    9900012    2    1    2    0    0 -0.71333384365E+01 -0.18253622393E+02 -0.38723958300E+02  0.47787260442E+02  0.19999951661E+02 0.  0.
        -12    1    1    2    0    0  0.71333384365E+01  0.18253622393E+02  0.38723958300E+02  0.43400739558E+02  0.00000000000E+00 0.  1.
         11    1    3    3    0    0 -0.16965290778E+01 -0.17333639001E+02 -0.17669927711E+02  0.24810473544E+02  0.51100000000E-03 0. -1.
        -11    1    3    3    0    0  0.51732823003E+00  0.23072456777E+01 -0.43308718643E+01  0.49343147934E+01  0.51100000000E-03 0.  1.
         12    1    3    3    0    0 -0.59541375887E+01 -0.32272290695E+01 -0.16723158725E+02  0.18042472105E+02  0.00000000000E+00 0. -1.
</event>
<event>
 7    1  0.2714068E-010  0.4778727E+02  0.7816164E-02  0.1312668E+00
        -11   -1    0    0    0    0  0.00000000000E+00  0.00000000000E+00  0.45593999997E+02  0.45594000000E+02  0.51100000000E-03 0.  1.
         11   -1    0    0    0    0 -0.00000000000E+00 -0.00000000000E+00 -0.45593999997E+02  0.45594000000E+02  0.51100000000E-03 0. -1.
    9900012    2    1    2    0    0 -0.16975713834E+02  0.19268192191E+02 -0.34988361564E+02  0.47787268031E+02  0.19999986262E+02 0.  0.
        -12    1    1    2    0    0  0.16975713834E+02 -0.19268192191E+02  0.34988361564E+02  0.43400731969E+02  0.00000000000E+00 0.  1.
         11    1    3    3    0    0  0.68842399676E+00 -0.90415578137E+00 -0.10456533674E+02  0.10518104488E+02  0.51100000000E-03 0. -1.
        -11    1    3    3    0    0 -0.16969593021E+02  0.15337197109E+02 -0.17966313449E+02  0.29085823380E+02  0.51100000000E-03 0.  1.
        -12    1    3    3    0    0 -0.69454480990E+00  0.48351508639E+01 -0.65655144408E+01  0.81833401641E+01  0.00000000000E+00 0.  1.
</event>
<event>
 7    1  0.2714068E-010  0.4778728E+02  0.7816164E-02  0.1312668E+00
        -11   -1    0    0    0    0  0.00000000000E+00  0.00000000000E+00  0.45593999997E+02  0.45594000000E+02  0.51100000000E-03 0.  1.
         11   -1    0    0    0    0 -0.00000000000E+00 -0.00000000000E+00 -0.45593999997E+02  0.45594000000E+02  0.51100000000E-03 0. -1.
    9900012    2    1    2    0    0  0.18379318944E+02 -0.25291569134E+02 -0.30102492422E+02  0.47787275535E+02  0.20000020473E+02 0.  0.
        -12    1    1    2    0    0 -0.18379318944E+02  0.25291569134E+02  0.30102492422E+02  0.43400724465E+02  0.00000000000E+00 0.  1.
         11    1    3    3    0    0  0.85637175550E+01 -0.21041618527E+02 -0.23272804314E+02  0.32522459770E+02  0.51100000000E-03 0. -1.
        -11    1    3    3    0    0  0.81405698119E+01  0.64160005024E+00 -0.25550940187E+01  0.85562277431E+01  0.51100000000E-03 0.  1.
        -12    1    3    3    0    0  0.16750315767E+01 -0.48915506576E+01 -0.42745940890E+01  0.67085880216E+01  0.00000000000E+00 0.  1.
</event>
<event>
 7    1  0.2714068E-010  0.4778727E+02  0.7816164E-02  0.1312668E+00
        -11   -1    0    0    0    0  0.00000000000E+00  0.00000000000E+00  0.45593999997E+02  0.45594000000E+02  0.51100000000E-03 0. -1.
         11   -1    0    0    0    0 -0.00000000000E+00 -0.00000000000E+00 -0.45593999997E+02  0.45594000000E+02  0.51100000000E-03 0.  1.
    9900012    2    1    2    0    0 -0.40150318232E+02  0.25391895309E+01  0.16282740821E+02  0.47787272054E+02  0.20000004603E+02 0.  0.
        -12    1    1    2    0    0  0.40150318232E+02 -0.25391895309E+01 -0.16282740821E+02  0.43400727946E+02  0.00000000000E+00 0.  1.
         11    1    3    3    0    0 -0.10010891704E+02 -0.19005618213E+01 -0.27136438963E+01  0.10544854262E+02  0.51100000000E-03 0. -1.
        -11    1    3    3    0    0 -0.21382458308E+02  0.13043579517E+01  0.17823650017E+02  0.27867424947E+02  0.51100000000E-03 0.  1.
         12    1    3    3    0    0 -0.87569682193E+01  0.31353934005E+01  0.11727347001E+01  0.93749928451E+01  0.00000000000E+00 0. -1.
</event>
<event>
 7    1  0.2714068E-010  0.4778728E+02  0.7816164E-02  0.1312668E+00
        -11   -1    0    0    0    0  0.00000000000E+00  0.00000000000E+00  0.45593999997E+02  0.45594000000E+02  0.51100000000E-03 0. -1.
         11   -1    0    0    0    0 -0.00000000000E+00 -0.00000000000E+00 -0.45593999997E+02  0.45594000000E+02  0.51100000000E-03 0.  1.
    9900012    2    1    2    0    0 -0.20108411358E+02 -0.35435675981E+02  0.14952827499E+02  0.47787281230E+02  0.20000046440E+02 0.  0.
        -12    1    1    2    0    0  0.20108411358E+02  0.35435675981E+02 -0.14952827499E+02  0.43400718770E+02  0.00000000000E+00 0.  1.
         11    1    3    3    0    0 -0.22324555239E+02 -0.27048488576E+02  0.14175159327E+02  0.37827789297E+02  0.51100000000E-03 0. -1.
        -11    1    3    3    0    0  0.17500458392E+01 -0.89773383209E+01  0.92568440056E+00  0.91930493112E+01  0.51100000000E-03 0.  1.
         12    1    3    3    0    0  0.46609804225E+00  0.59015091633E+00 -0.14801622854E+00  0.76644262208E+00  0.00000000000E+00 0. -1.
</event>
<event>
 7    1  0.2714068E-010  0.4778727E+02  0.7816164E-02  0.1312668E+00
        -11   -1    0    0    0    0  0.00000000000E+00  0.00000000000E+00  0.45593999997E+02  0.45594000000E+02  0.51100000000E-03 0. -1.
         11   -1    0    0    0    0 -0.00000000000E+00 -0.00000000000E+00 -0.45593999997E+02  0.45594000000E+02  0.51100000000E-03 0.  1.
    9900012    2    1    2    0    0  0.21333676468E+02 -0.30037849899E+02  0.22939596015E+02  0.47787271394E+02  0.20000001592E+02 0.  0.
        -12    1    1    2    0    0 -0.21333676468E+02  0.30037849899E+02 -0.22939596015E+02  0.43400728606E+02  0.00000000000E+00 0.  1.
         11    1    3    3    0    0  0.11601570846E+02 -0.18253741352E+02  0.12082679061E+02  0.24774718020E+02  0.51100000000E-03 0. -1.
        -11    1    3    3    0    0  0.77780473296E+01 -0.50474241335E+01  0.12733302849E+02  0.15751555871E+02  0.51100000000E-03 0.  1.
        -12    1    3    3    0    0  0.19540582929E+01 -0.67366844138E+01 -0.18763858951E+01  0.72609975025E+01  0.00000000000E+00 0.  1.
</event>
<event>
 7    1  0.2714068E-010  0.4778727E+02  0.7816164E-02  0.1312668E+00
        -11   -1    0    0    0    0  0.00000000000E+00  0.00000000000E+00  0.45593999997E+02  0.45594000000E+02  0.51100000000E-03 0.  1.
         11   -1    0    0    0    0 -0.00000000000E+00 -0.00000000000E+00 -0.45593999997E+02  0.45594000000E+02  0.51100000000E-03 0. -1.
    9900012    2    1    2    0    0  0.14101151995E+02  0.15501381604E+02 -0.38006419873E+02  0.47787271080E+02  0.20000000161E+02 0.  0.
        -12    1    1    2    0    0 -0.14101151995E+02 -0.15501381604E+02  0.38006419873E+02  0.43400728920E+02  0.00000000000E+00 0.  1.
         11    1    3    3    0    0  0.56420971628E+01  0.20282365296E+01 -0.13597859280E+02  0.14860981834E+02  0.51100000000E-03 0. -1.
        -11    1    3    3    0    0 -0.25894606548E+01 -0.18669088770E+01 -0.36822897094E+01  0.48733882467E+01  0.51100000000E-03 0.  1.
        -12    1    3    3    0    0  0.11048515487E+02  0.15340053951E+02 -0.20726270884E+02  0.28052900999E+02  0.00000000000E+00 0.  1.
</event>
<event>
 7    1  0.2714068E-010  0.4778723E+02  0.7816164E-02  0.1312668E+00
        -11   -1    0    0    0    0  0.00000000000E+00  0.00000000000E+00  0.45593999997E+02  0.45594000000E+02  0.51100000000E-03 0.  1.
         11   -1    0    0    0    0 -0.00000000000E+00 -0.00000000000E+00 -0.45593999997E+02  0.45594000000E+02  0.51100000000E-03 0. -1.
    9900012    2    1    2    0    0 -0.20208857323E+02 -0.31664271869E+02 -0.21739436190E+02  0.47787226814E+02  0.19999798332E+02 0.  0.
        -12    1    1    2    0    0  0.20208857323E+02  0.31664271869E+02  0.21739436190E+02  0.43400773186E+02  0.00000000000E+00 0.  1.
         11    1    3    3    0    0 -0.15225360725E+02 -0.16860634815E+02 -0.17533761470E+02  0.28697132385E+02  0.51100000000E-03 0. -1.
        -11    1    3    3    0    0 -0.60988887105E+00 -0.11732759939E+02  0.78937902823E+00  0.11775089797E+02  0.51100000000E-03 0.  1.
        -12    1    3    3    0    0 -0.43736077270E+01 -0.30708771151E+01 -0.49950537484E+01  0.73150046313E+01  0.00000000000E+00 0.  1.
</event>
<event>
 7    1  0.2714068E-010  0.4778728E+02  0.7816164E-02  0.1312668E+00
        -11   -1    0    0    0    0  0.00000000000E+00  0.00000000000E+00  0.45593999997E+02  0.45594000000E+02  0.51100000000E-03 0.  1.
         11   -1    0    0    0    0 -0.00000000000E+00 -0.00000000000E+00 -0.45593999997E+02  0.45594000000E+02  0.51100000000E-03 0. -1.
    9900012    2    1    2    0    0  0.18121450386E+02  0.28484357981E+02 -0.27274103657E+02  0.47787281757E+02  0.20000048844E+02 0.  0.
        -12    1    1    2    0    0 -0.18121450386E+02 -0.28484357981E+02  0.27274103657E+02  0.43400718243E+02  0.00000000000E+00 0.  1.
         11    1    3    3    0    0 -0.19333387149E+00  0.10067568334E+02 -0.19986126233E+01  0.10265854218E+02  0.51100000000E-03 0. -1.
        -11    1    3    3    0    0  0.17283705619E+02  0.14249571915E+02 -0.16730338280E+02  0.27958558599E+02  0.51100000000E-03 0.  1.
         12    1    3    3    0    0  0.10310786377E+01  0.41672177323E+01 -0.85451527539E+01  0.95628689405E+01  0.00000000000E+00 0. -1.
</event>
<event>
 7    1  0.2714068E-010  0.4778729E+02  0.7816164E-02  0.1312668E+00
        -11   -1    0    0    0    0  0.00000000000E+00  0.00000000000E+00  0.45593999997E+02  0.45594000000E+02  0.51100000000E-03 0.  1.
         11   -1    0    0    0    0 -0.00000000000E+00 -0.00000000000E+00 -0.45593999997E+02  0.45594000000E+02  0.51100000000E-03 0. -1.
    9900012    2    1    2    0    0  0.11334617411E+02 -0.24554052991E+02 -0.33944762134E+02  0.47787286336E+02  0.20000069722E+02 0.  0.
        -12    1    1    2    0    0 -0.11334617411E+02  0.24554052991E+02  0.33944762134E+02  0.43400713664E+02  0.00000000000E+00 0.  1.
         11    1    3    3    0    0  0.57926134513E+01 -0.11666871693E+02 -0.14011327857E+02  0.19130801715E+02  0.51100000000E-03 0. -1.
        -11    1    3    3    0    0 -0.11706134478E+01 -0.29913738345E+01  0.19222536511E+01  0.37434893645E+01  0.51100000000E-03 0.  1.
        -12    1    3    3    0    0  0.67126174076E+01 -0.98958074636E+01 -0.21855687929E+02  0.24912995257E+02  0.00000000000E+00 0.  1.
</event>
<event>
 7    1  0.2714068E-010  0.4778727E+02  0.7816164E-02  0.1312668E+00
        -11   -1    0    0    0    0  0.00000000000E+00  0.00000000000E+00  0.45593999997E+02  0.45594000000E+02  0.51100000000E-03 0. -1.
         11   -1    0    0    0    0 -0.00000000000E+00 -0.00000000000E+00 -0.45593999997E+02  0.45594000000E+02  0.51100000000E-03 0.  1.
    9900012    2    1    2    0    0 -0.39789228271E+02 -0.72130698134E+01 -0.15761106889E+02  0.47787267830E+02  0.19999985343E+02 0.  0.
        -12    1    1    2    0    0  0.39789228271E+02  0.72130698134E+01  0.15761106889E+02  0.43400732170E+02  0.00000000000E+00 0.  1.
         11    1    3    3    0    0 -0.12848342782E+02 -0.22935484385E+01  0.33627136436E+01  0.13477689712E+02  0.51100000000E-03 0. -1.
        -11    1    3    3    0    0 -0.50363892716E+01  0.11018401115E+01 -0.65808033924E+01  0.83597991649E+01  0.51100000000E-03 0.  1.
         12    1    3    3    0    0 -0.21904496218E+02 -0.60213614863E+01 -0.12543017140E+02  0.25949778953E+02  0.00000000000E+00 0. -1.
</event>
<event>
 7    1  0.2714068E-010  0.4778728E+02  0.7816164E-02  0.1312668E+00
        -11   -1    0    0    0    0  0.00000000000E+00  0.00000000000E+00  0.45593999997E+02  0.45594000000E+02  0.51100000000E-03 0.  1.
         11   -1    0    0    0    0 -0.00000000000E+00 -0.00000000000E+00 -0.45593999997E+02  0.45594000000E+02  0.51100000000E-03 0. -1.
    9900012    2    1    2    0    0  0.13443109388E+02  0.39192930606E+02 -0.12915867688E+02  0.47787278374E+02  0.20000033418E+02 0.  0.
        -12    1    1    2    0    0 -0.13443109388E+02 -0.39192930606E+02  0.12915867688E+02  0.43400721626E+02  0.00000000000E+00 0.  1.
         11    1    3    3    0    0  0.83199903391E+00  0.17771917453E+02 -0.69374208210E+01  0.19096101179E+02  0.51100000000E-03 0. -1.
        -11    1    3    3    0    0  0.50730655746E+01  0.55001922506E+01  0.39599650291E+01  0.84657800828E+01  0.51100000000E-03 0.  1.
        -12    1    3    3    0    0  0.75380447793E+01  0.15920820903E+02 -0.99384118956E+01  0.20225397112E+02  0.00000000000E+00 0.  1.
</event>
<event>
 7    1  0.2714068E-010  0.4778728E+02  0.7816164E-02  0.1312668E+00
        -11   -1    0    0    0    0  0.00000000000E+00  0.00000000000E+00  0.45593999997E+02  0.45594000000E+02  0.51100000000E-03 0.  1.
         11   -1    0    0    0    0 -0.00000000000E+00 -0.00000000000E+00 -0.45593999997E+02  0.45594000000E+02  0.51100000000E-03 0. -1.
    9900012    2    1    2    0    0  0.82095925690E+01 -0.37337265702E+02 -0.20546369197E+02  0.47787284482E+02  0.20000061269E+02 0.  0.
        -12    1    1    2    0    0 -0.82095925690E+01  0.37337265702E+02  0.20546369197E+02  0.43400715518E+02  0.00000000000E+00 0.  1.
         11    1    3    3    0    0  0.28730997906E+01 -0.87641956309E+01 -0.11089376526E+02  0.14423595233E+02  0.51100000000E-03 0. -1.
        -11    1    3    3    0    0  0.34036671730E+00 -0.26150246582E+02 -0.94607323542E+01  0.27811089564E+02  0.51100000000E-03 0.  1.
        -12    1    3    3    0    0  0.49961260612E+01 -0.24228234890E+01  0.37396827004E-02  0.55525996851E+01  0.00000000000E+00 0.  1.
</event>
<event>
 7    1  0.2714068E-010  0.4778727E+02  0.7816164E-02  0.1312668E+00
        -11   -1    0    0    0    0  0.00000000000E+00  0.00000000000E+00  0.45593999997E+02  0.45594000000E+02  0.51100000000E-03 0.  1.
         11   -1    0    0    0    0 -0.00000000000E+00 -0.00000000000E+00 -0.45593999997E+02  0.45594000000E+02  0.51100000000E-03 0. -1.
    9900012    2    1    2    0    0  0.12067716369E+01 -0.43383687265E+02  0.15011303740E+00  0.47787272444E+02  0.20000006380E+02 0.  0.
        -12    1    1    2    0    0 -0.12067716369E+01  0.43383687265E+02 -0.15011303740E+00  0.43400727556E+02  0.00000000000E+00 0.  1.
         11    1    3    3    0    0  0.20617164016E+01 -0.16238090873E+02  0.58937649043E+01  0.17397204796E+02  0.51100000000E-03 0. -1.
        -11    1    3    3    0    0 -0.52523288944E+01 -0.12785733828E+02 -0.66614903314E+01  0.15343969565E+02  0.51100000000E-03 0.  1.
        -12    1    3    3    0    0  0.43973841297E+01 -0.14359862564E+02  0.91783846451E+00  0.15046098082E+02  0.00000000000E+00 0.  1.
</event>
<event>
 7    1  0.2714068E-010  0.4778727E+02  0.7816164E-02  0.1312668E+00
        -11   -1    0    0    0    0  0.00000000000E+00  0.00000000000E+00  0.45593999997E+02  0.45594000000E+02  0.51100000000E-03 0.  1.
         11   -1    0    0    0    0 -0.00000000000E+00 -0.00000000000E+00 -0.45593999997E+02  0.45594000000E+02  0.51100000000E-03 0. -1.
    9900012    2    1    2    0    0  0.14312231768E+01  0.10707717953E+02 -0.42034742262E+02  0.47787272120E+02  0.20000004902E+02 0.  0.
        -12    1    1    2    0    0 -0.14312231768E+01 -0.10707717953E+02  0.42034742262E+02  0.43400727880E+02  0.00000000000E+00 0.  1.
         11    1    3    3    0    0  0.16442286813E+01 -0.32360594430E+01 -0.99254476263E+01  0.10568352734E+02  0.51100000000E-03 0. -1.
        -11    1    3    3    0    0  0.92837690788E-01  0.15545626964E+02 -0.32009749857E+02  0.35585098324E+02  0.51100000000E-03 0.  1.
        -12    1    3    3    0    0 -0.30584319526E+00 -0.16018495679E+01 -0.99544778564E-01  0.16338210616E+01  0.00000000000E+00 0.  1.
</event>
<event>
 7    1  0.2714068E-010  0.4778727E+02  0.7816164E-02  0.1312668E+00
        -11   -1    0    0    0    0  0.00000000000E+00  0.00000000000E+00  0.45593999997E+02  0.45594000000E+02  0.51100000000E-03 0.  1.
         11   -1    0    0    0    0 -0.00000000000E+00 -0.00000000000E+00 -0.45593999997E+02  0.45594000000E+02  0.51100000000E-03 0. -1.
    9900012    2    1    2    0    0  0.41332465715E+02 -0.11670422524E+02 -0.62491477580E+01  0.47787270379E+02  0.19999996965E+02 0.  0.
        -12    1    1    2    0    0 -0.41332465715E+02  0.11670422524E+02  0.62491477580E+01  0.43400729621E+02  0.00000000000E+00 0.  1.
         11    1    3    3    0    0  0.20335372437E+02 -0.92069820686E+01 -0.98122683359E+01  0.24383939409E+02  0.51100000000E-03 0. -1.
        -11    1    3    3    0    0  0.18322238112E+02 -0.44752492086E+01  0.53557312269E+01  0.19606532639E+02  0.51100000000E-03 0.  1.
        -12    1    3    3    0    0  0.26748551664E+01  0.20118087532E+01 -0.17926106490E+01  0.37967983301E+01  0.00000000000E+00 0.  1.
</event>
<event>
 7    1  0.2714068E-010  0.4778727E+02  0.7816164E-02  0.1312668E+00
        -11   -1    0    0    0    0  0.00000000000E+00  0.00000000000E+00  0.45593999997E+02  0.45594000000E+02  0.51100000000E-03 0. -1.
         11   -1    0    0    0    0 -0.00000000000E+00 -0.00000000000E+00 -0.45593999997E+02  0.45594000000E+02  0.51100000000E-03 0.  1.
    9900012    2    1    2    0    0  0.26056916040E+02  0.29905489858E+02 -0.17615956474E+02  0.47787272821E+02  0.20000008101E+02 0.  0.
        -12    1    1    2    0    0 -0.26056916040E+02 -0.29905489858E+02  0.17615956474E+02  0.43400727179E+02  0.00000000000E+00 0.  1.
         11    1    3    3    0    0  0.22845447059E+02  0.29351372125E+02 -0.18856334193E+02  0.41701065171E+02  0.51100000000E-03 0. -1.
        -11    1    3    3    0    0 -0.12595230162E+01 -0.42964048971E+00  0.61404191571E+00  0.14656182703E+01  0.51100000000E-03 0.  1.
         12    1    3    3    0    0  0.44709919976E+01  0.98375822270E+00  0.62633580303E+00  0.46205893803E+01  0.00000000000E+00 0. -1.
</event>
<event>
 7    1  0.2714068E-010  0.4778728E+02  0.7816164E-02  0.1312668E+00
        -11   -1    0    0    0    0  0.00000000000E+00  0.00000000000E+00  0.45593999997E+02  0.45594000000E+02  0.51100000000E-03 0.  1.
         11   -1    0    0    0    0 -0.00000000000E+00 -0.00000000000E+00 -0.45593999997E+02  0.45594000000E+02  0.51100000000E-03 0. -1.
    9900012    2    1    2    0    0 -0.11266038023E+02 -0.41779033792E+02 -0.33483409210E+01  0.47787278068E+02  0.20000032023E+02 0.  0.
        -12    1    1    2    0    0  0.11266038023E+02  0.41779033792E+02  0.33483409210E+01  0.43400721932E+02  0.00000000000E+00 0.  1.
         11    1    3    3    0    0 -0.57939163104E+01 -0.11260056336E+02 -0.87014763123E+01  0.15364700621E+02  0.51100000000E-03 0. -1.
        -11    1    3    3    0    0 -0.34986391362E+00 -0.76303559167E+01  0.46801367054E+01  0.89581480238E+01  0.51100000000E-03 0.  1.
        -12    1    3    3    0    0 -0.51222577993E+01 -0.22888621539E+02  0.67299868588E+00  0.23464429423E+02  0.00000000000E+00 0.  1.
</event>
<event>
 7    1  0.2714068E-010  0.4778727E+02  0.7816164E-02  0.1312668E+00
        -11   -1    0    0    0    0  0.00000000000E+00  0.00000000000E+00  0.45593999997E+02  0.45594000000E+02  0.51100000000E-03 0.  1.
         11   -1    0    0    0    0 -0.00000000000E+00 -0.00000000000E+00 -0.45593999997E+02  0.45594000000E+02  0.51100000000E-03 0. -1.
    9900012    2    1    2    0    0 -0.36545022470E+02 -0.36543026774E+00 -0.23408354587E+02  0.47787271077E+02  0.20000000147E+02 0.  0.
        -12    1    1    2    0    0  0.36545022470E+02  0.36543026774E+00  0.23408354587E+02  0.43400728923E+02  0.00000000000E+00 0.  1.
         11    1    3    3    0    0 -0.26217513380E+02  0.11122741113E+01 -0.24157010140E+02  0.35667300159E+02  0.51100000000E-03 0. -1.
        -11    1    3    3    0    0 -0.48127975150E+01 -0.32030477705E+01  0.21604097078E+01  0.61717019782E+01  0.51100000000E-03 0.  1.
        -12    1    3    3    0    0 -0.55147115754E+01  0.17253433915E+01 -0.14117541550E+01  0.59482689391E+01  0.00000000000E+00 0.  1.
</event>
<event>
 7    1  0.2714068E-010  0.4778727E+02  0.7816164E-02  0.1312668E+00
        -11   -1    0    0    0    0  0.00000000000E+00  0.00000000000E+00  0.45593999997E+02  0.45594000000E+02  0.51100000000E-03 0.  1.
         11   -1    0    0    0    0 -0.00000000000E+00 -0.00000000000E+00 -0.45593999997E+02  0.45594000000E+02  0.51100000000E-03 0. -1.
    9900012    2    1    2    0    0  0.41817345146E+02  0.76382162217E+01 -0.87516014975E+01  0.47787271540E+02  0.20000002260E+02 0.  0.
        -12    1    1    2    0    0 -0.41817345146E+02 -0.76382162217E+01  0.87516014975E+01  0.43400728460E+02  0.00000000000E+00 0.  1.
         11    1    3    3    0    0  0.86686581880E+01  0.56211916424E+01  0.44863268995E+01  0.11263683215E+02  0.51100000000E-03 0. -1.
        -11    1    3    3    0    0  0.58507613854E+01  0.28932260246E+01 -0.10315780138E+01  0.66080495669E+01  0.51100000000E-03 0.  1.
         12    1    3    3    0    0  0.27297925572E+02 -0.87620144531E+00 -0.12206350383E+02  0.29915538758E+02  0.00000000000E+00 0. -1.
</event>
<event>
 7    1  0.2714068E-010  0.4778727E+02  0.7816164E-02  0.1312668E+00
        -11   -1    0    0    0    0  0.00000000000E+00  0.00000000000E+00  0.45593999997E+02  0.45594000000E+02  0.51100000000E-03 0.  1.
         11   -1    0    0    0    0 -0.00000000000E+00 -0.00000000000E+00 -0.45593999997E+02  0.45594000000E+02  0.51100000000E-03 0. -1.
    9900012    2    1    2    0    0 -0.14613509773E+02 -0.14976332547E+02 -0.38023388763E+02  0.47787270773E+02  0.19999998762E+02 0.  0.
        -12    1    1    2    0    0  0.14613509773E+02  0.14976332547E+02  0.38023388763E+02  0.43400729227E+02  0.00000000000E+00 0.  1.
         11    1    3    3    0    0 -0.57738482827E+01 -0.16931570718E+01 -0.26111370085E+02  0.26795666680E+02  0.51100000000E-03 0. -1.
        -11    1    3    3    0    0 -0.79703950864E+01 -0.62163489883E+01 -0.61477250378E+01  0.11830668450E+02  0.51100000000E-03 0.  1.
         12    1    3    3    0    0 -0.86926640408E+00 -0.70668264871E+01 -0.57642936398E+01  0.91609356425E+01  0.00000000000E+00 0. -1.
</event>
<event>
 7    1  0.2714068E-010  0.4778728E+02  0.7816164E-02  0.1312668E+00
        -11   -1    0    0    0    0  0.00000000000E+00  0.00000000000E+00  0.45593999997E+02  0.45594000000E+02  0.51100000000E-03 0.  1.
         11   -1    0    0    0    0 -0.00000000000E+00 -0.00000000000E+00 -0.45593999997E+02  0.45594000000E+02  0.51100000000E-03 0. -1.
    9900012    2    1    2    0    0  0.73133698087E+01  0.25210212362E+02 -0.34562735912E+02  0.47787275363E+02  0.20000019691E+02 0.  0.
        -12    1    1    2    0    0 -0.73133698087E+01 -0.25210212362E+02  0.34562735912E+02  0.43400724637E+02  0.00000000000E+00 0.  1.
         11    1    3    3    0    0  0.91876659839E+01  0.20840881055E+02 -0.15843249051E+02  0.27744622365E+02  0.51100000000E-03 0. -1.
        -11    1    3    3    0    0  0.10410208998E+01 -0.55543112821E+00 -0.57002455658E+01  0.58210847807E+01  0.51100000000E-03 0.  1.
         12    1    3    3    0    0 -0.29153170750E+01  0.49247624347E+01 -0.13019241295E+02  0.14221568218E+02  0.00000000000E+00 0. -1.
</event>
<event>
 7    1  0.2714068E-010  0.4778732E+02  0.7816164E-02  0.1312668E+00
        -11   -1    0    0    0    0  0.00000000000E+00  0.00000000000E+00  0.45593999997E+02  0.45594000000E+02  0.51100000000E-03 0.  1.
         11   -1    0    0    0    0 -0.00000000000E+00 -0.00000000000E+00 -0.45593999997E+02  0.45594000000E+02  0.51100000000E-03 0. -1.
    9900012    2    1    2    0    0 -0.39848420225E+02 -0.10710177215E+02 -0.13454155632E+02  0.47787322653E+02  0.20000235301E+02 0.  0.
        -12    1    1    2    0    0  0.39848420225E+02  0.10710177215E+02  0.13454155632E+02  0.43400677347E+02  0.00000000000E+00 0.  1.
         11    1    3    3    0    0 -0.19716699724E+02 -0.68544420659E+01 -0.41081270928E+01  0.21274593592E+02  0.51100000000E-03 0. -1.
        -11    1    3    3    0    0  0.12766156514E+01 -0.61035131174E+00  0.16944234768E+01  0.22075659503E+01  0.51100000000E-03 0.  1.
        -12    1    3    3    0    0 -0.21408336153E+02 -0.32453838374E+01 -0.11040452016E+02  0.24305163110E+02  0.00000000000E+00 0.  1.
</event>
<event>
 7    1  0.2714068E-010  0.4778728E+02  0.7816164E-02  0.1312668E+00
        -11   -1    0    0    0    0  0.00000000000E+00  0.00000000000E+00  0.45593999997E+02  0.45594000000E+02  0.51100000000E-03 0.  1.
         11   -1    0    0    0    0 -0.00000000000E+00 -0.00000000000E+00 -0.45593999997E+02  0.45594000000E+02  0.51100000000E-03 0. -1.
    9900012    2    1    2    0    0  0.22243443445E+01  0.55940346345E+01 -0.42981181535E+02  0.47787275382E+02  0.20000019775E+02 0.  0.
        -12    1    1    2    0    0 -0.22243443445E+01 -0.55940346345E+01  0.42981181535E+02  0.43400724618E+02  0.00000000000E+00 0.  1.
         11    1    3    3    0    0 -0.42280079709E+01 -0.18060463647E+01 -0.31939848366E+01  0.55981599004E+01  0.51100000000E-03 0.  1.
        -11    1    3    3    0    0  0.14270956059E+01  0.13398176527E+01 -0.27668902968E+02  0.27738058781E+02  0.51100000000E-03 0. -1.
        -12    1    3    3    0    0  0.50252567095E+01  0.60602633465E+01 -0.12118293730E+02  0.14451056701E+02  0.00000000000E+00 0.  1.
</event>
<event>
 7    1  0.2714068E-010  0.4778728E+02  0.7816164E-02  0.1312668E+00
        -11   -1    0    0    0    0  0.00000000000E+00  0.00000000000E+00  0.45593999997E+02  0.45594000000E+02  0.51100000000E-03 0.  1.
         11   -1    0    0    0    0 -0.00000000000E+00 -0.00000000000E+00 -0.45593999997E+02  0.45594000000E+02  0.51100000000E-03 0. -1.
    9900012    2    1    2    0    0  0.10115767198E+02  0.39348332681E+02 -0.15264432346E+02  0.47787275056E+02  0.20000018290E+02 0.  0.
        -12    1    1    2    0    0 -0.10115767198E+02 -0.39348332681E+02  0.15264432346E+02  0.43400724944E+02  0.00000000000E+00 0.  1.
         11    1    3    3    0    0 -0.19513174299E+01  0.35371949574E+01 -0.72253763053E+00  0.41038334235E+01  0.51100000000E-03 0. -1.
        -11    1    3    3    0    0 -0.23286636129E+01  0.11438622917E+02 -0.92332349287E+01  0.14883460484E+02  0.51100000000E-03 0.  1.
        -12    1    3    3    0    0  0.14395748241E+02  0.24372514807E+02 -0.53086597870E+01  0.28799981149E+02  0.00000000000E+00 0.  1.
</event>
<event>
 7    1  0.2714068E-010  0.4778727E+02  0.7816164E-02  0.1312668E+00
        -11   -1    0    0    0    0  0.00000000000E+00  0.00000000000E+00  0.45593999997E+02  0.45594000000E+02  0.51100000000E-03 0.  1.
         11   -1    0    0    0    0 -0.00000000000E+00 -0.00000000000E+00 -0.45593999997E+02  0.45594000000E+02  0.51100000000E-03 0. -1.
    9900012    2    1    2    0    0 -0.33425357136E+02 -0.19106162406E+02 -0.20033056982E+02  0.47787270587E+02  0.19999997914E+02 0.  0.
        -12    1    1    2    0    0  0.33425357136E+02  0.19106162406E+02  0.20033056982E+02  0.43400729413E+02  0.00000000000E+00 0.  1.
         11    1    3    3    0    0 -0.24936233358E+02 -0.91136687451E+01 -0.18306616656E+02  0.32249138062E+02  0.51100000000E-03 0. -1.
        -11    1    3    3    0    0  0.22258422559E+00 -0.56809311218E+01 -0.11526083155E+01  0.58009506409E+01  0.51100000000E-03 0.  1.
        -12    1    3    3    0    0 -0.87117080037E+01 -0.43115625387E+01 -0.57383200970E+00  0.97371818840E+01  0.00000000000E+00 0.  1.
</event>
<event>
 7    1  0.2714068E-010  0.4778727E+02  0.7816164E-02  0.1312668E+00
        -11   -1    0    0    0    0  0.00000000000E+00  0.00000000000E+00  0.45593999997E+02  0.45594000000E+02  0.51100000000E-03 0.  1.
         11   -1    0    0    0    0 -0.00000000000E+00 -0.00000000000E+00 -0.45593999997E+02  0.45594000000E+02  0.51100000000E-03 0. -1.
    9900012    2    1    2    0    0  0.11160473340E+02 -0.31509535291E+01 -0.41822707596E+02  0.47787267933E+02  0.19999985812E+02 0.  0.
        -12    1    1    2    0    0 -0.11160473340E+02  0.31509535291E+01  0.41822707596E+02  0.43400732067E+02  0.00000000000E+00 0.  1.
         11    1    3    3    0    0  0.70265444315E+01 -0.30399937732E+01 -0.85985801914E+01  0.11513013088E+02  0.51100000000E-03 0. -1.
        -11    1    3    3    0    0 -0.22507502264E+01 -0.35863734958E+01 -0.24749357493E+02  0.25108935621E+02  0.51100000000E-03 0.  1.
        -12    1    3    3    0    0  0.63846791353E+01  0.34754137400E+01 -0.84747699114E+01  0.11165319224E+02  0.00000000000E+00 0.  1.
</event>
<event>
 7    1  0.2714068E-010  0.4778727E+02  0.7816164E-02  0.1312668E+00
        -11   -1    0    0    0    0  0.00000000000E+00  0.00000000000E+00  0.45593999997E+02  0.45594000000E+02  0.51100000000E-03 0.  1.
         11   -1    0    0    0    0 -0.00000000000E+00 -0.00000000000E+00 -0.45593999997E+02  0.45594000000E+02  0.51100000000E-03 0. -1.
    9900012    2    1    2    0    0 -0.66493988383E+01 -0.30220267432E+02 -0.30432613302E+02  0.47787273959E+02  0.20000013286E+02 0.  0.
        -12    1    1    2    0    0  0.66493988383E+01  0.30220267432E+02  0.30432613302E+02  0.43400726041E+02  0.00000000000E+00 0.  1.
         11    1    3    3    0    0 -0.29070191164E+01 -0.12269595063E+02 -0.11492169734E+02  0.17060588753E+02  0.51100000000E-03 0. -1.
        -11    1    3    3    0    0 -0.88417796041E+01 -0.96445795433E+01 -0.15740100560E+02  0.20468164232E+02  0.51100000000E-03 0.  1.
        -12    1    3    3    0    0  0.50993998822E+01 -0.83060928253E+01 -0.32003430073E+01  0.10258520973E+02  0.00000000000E+00 0.  1.
</event>
<event>
 7    1  0.2714068E-010  0.4778727E+02  0.7816164E-02  0.1312668E+00
        -11   -1    0    0    0    0  0.00000000000E+00  0.00000000000E+00  0.45593999997E+02  0.45594000000E+02  0.51100000000E-03 0.  1.
         11   -1    0    0    0    0 -0.00000000000E+00 -0.00000000000E+00 -0.45593999997E+02  0.45594000000E+02  0.51100000000E-03 0. -1.
    9900012    2    1    2    0    0 -0.14396279576E+02 -0.24907883174E+02 -0.32495657585E+02  0.47787271069E+02  0.20000000112E+02 0.  0.
        -12    1    1    2    0    0  0.14396279576E+02  0.24907883174E+02  0.32495657585E+02  0.43400728931E+02  0.00000000000E+00 0.  1.
         11    1    3    3    0    0 -0.34050080598E+01 -0.13658890686E+02 -0.52213068026E+01  0.15014040750E+02  0.51100000000E-03 0. -1.
        -11    1    3    3    0    0 -0.89522302860E+01 -0.67900387890E+01 -0.24916393840E+02  0.27332649636E+02  0.51100000000E-03 0.  1.
        -12    1    3    3    0    0 -0.20390412299E+01 -0.44589536991E+01 -0.23579569426E+01  0.54405806832E+01  0.00000000000E+00 0.  1.
</event>
<event>
 7    1  0.2714068E-010  0.4778728E+02  0.7816164E-02  0.1312668E+00
        -11   -1    0    0    0    0  0.00000000000E+00  0.00000000000E+00  0.45593999997E+02  0.45594000000E+02  0.51100000000E-03 0.  1.
         11   -1    0    0    0    0 -0.00000000000E+00 -0.00000000000E+00 -0.45593999997E+02  0.45594000000E+02  0.51100000000E-03 0. -1.
    9900012    2    1    2    0    0 -0.32732445880E+02 -0.77617524437E+01 -0.27421975466E+02  0.47787279353E+02  0.20000037881E+02 0.  0.
        -12    1    1    2    0    0  0.32732445880E+02  0.77617524437E+01  0.27421975466E+02  0.43400720647E+02  0.00000000000E+00 0.  1.
         11    1    3    3    0    0 -0.23176095762E+02 -0.71993461278E+01 -0.19444379944E+02  0.31097361803E+02  0.51100000000E-03 0. -1.
        -11    1    3    3    0    0 -0.10780675316E-01  0.40450772421E+01 -0.18654273267E+01  0.44545017106E+01  0.51100000000E-03 0.  1.
        -12    1    3    3    0    0 -0.95455694425E+01 -0.46074835579E+01 -0.61121681955E+01  0.12235415840E+02  0.00000000000E+00 0.  1.
</event>
<event>
 7    1  0.2714068E-010  0.4778728E+02  0.7816164E-02  0.1312668E+00
        -11   -1    0    0    0    0  0.00000000000E+00  0.00000000000E+00  0.45593999997E+02  0.45594000000E+02  0.51100000000E-03 0.  1.
         11   -1    0    0    0    0 -0.00000000000E+00 -0.00000000000E+00 -0.45593999997E+02  0.45594000000E+02  0.51100000000E-03 0. -1.
    9900012    2    1    2    0    0 -0.18733783906E+02  0.11457118174E+02 -0.37435312046E+02  0.47787276455E+02  0.20000024669E+02 0.  0.
        -12    1    1    2    0    0  0.18733783906E+02 -0.11457118174E+02  0.37435312046E+02  0.43400723545E+02  0.00000000000E+00 0.  1.
         11    1    3    3    0    0 -0.50526068862E+01  0.55550005127E-01 -0.69739505438E+01  0.86120792262E+01  0.51100000000E-03 0. -1.
        -11    1    3    3    0    0 -0.14647470506E+02  0.14850099029E+02 -0.24082204624E+02  0.31859479173E+02  0.51100000000E-03 0.  1.
        -12    1    3    3    0    0  0.96629348650E+00 -0.34485308598E+01 -0.63791568781E+01  0.73157180555E+01  0.00000000000E+00 0.  1.
</event>
<event>
 7    1  0.2714068E-010  0.4778727E+02  0.7816164E-02  0.1312668E+00
        -11   -1    0    0    0    0  0.00000000000E+00  0.00000000000E+00  0.45593999997E+02  0.45594000000E+02  0.51100000000E-03 0.  1.
         11   -1    0    0    0    0 -0.00000000000E+00 -0.00000000000E+00 -0.45593999997E+02  0.45594000000E+02  0.51100000000E-03 0. -1.
    9900012    2    1    2    0    0 -0.35417572432E+02 -0.20190556982E+02 -0.14884910880E+02  0.47787267286E+02  0.19999982864E+02 0.  0.
        -12    1    1    2    0    0  0.35417572432E+02  0.20190556982E+02  0.14884910880E+02  0.43400732714E+02  0.00000000000E+00 0.  1.
         11    1    3    3    0    0 -0.31013126129E+01 -0.71874439074E+01 -0.68637184164E+01  0.10410961560E+02  0.51100000000E-03 0. -1.
        -11    1    3    3    0    0  0.54798836833E-01 -0.24369036596E+01 -0.81607874142E+00  0.25705032838E+01  0.51100000000E-03 0.  1.
         12    1    3    3    0    0 -0.32371058656E+02 -0.10566209415E+02 -0.72051137218E+01  0.34805802442E+02  0.00000000000E+00 0. -1.
</event>
<event>
 7    1  0.2714068E-010  0.4778726E+02  0.7816164E-02  0.1312668E+00
        -11   -1    0    0    0    0  0.00000000000E+00  0.00000000000E+00  0.45593999997E+02  0.45594000000E+02  0.51100000000E-03 0. -1.
         11   -1    0    0    0    0 -0.00000000000E+00 -0.00000000000E+00 -0.45593999997E+02  0.45594000000E+02  0.51100000000E-03 0.  1.
    9900012    2    1    2    0    0 -0.32367903791E+02  0.24647607819E+02  0.15114166635E+02  0.47787264982E+02  0.19999972359E+02 0.  0.
        -12    1    1    2    0    0  0.32367903791E+02 -0.24647607819E+02 -0.15114166635E+02  0.43400735018E+02  0.00000000000E+00 0.  1.
         11    1    3    3    0    0 -0.14921202607E+02  0.13457723011E+02 -0.19202028907E+01  0.20185137485E+02  0.51100000000E-03 0. -1.
        -11    1    3    3    0    0 -0.31232167805E+01  0.22801918586E+01  0.69382726396E+01  0.79431344854E+01  0.51100000000E-03 0.  1.
         12    1    3    3    0    0 -0.14323484403E+02  0.89096929495E+01  0.10096096886E+02  0.19658993012E+02  0.00000000000E+00 0. -1.
</event>
<event>
 7    1  0.2714068E-010  0.4778727E+02  0.7816164E-02  0.1312668E+00
        -11   -1    0    0    0    0  0.00000000000E+00  0.00000000000E+00  0.45593999997E+02  0.45594000000E+02  0.51100000000E-03 0.  1.
         11   -1    0    0    0    0 -0.00000000000E+00 -0.00000000000E+00 -0.45593999997E+02  0.45594000000E+02  0.51100000000E-03 0. -1.
    9900012    2    1    2    0    0  0.13729193764E+02  0.14922600605E+02 -0.38372494909E+02  0.47787272636E+02  0.20000007255E+02 0.  0.
        -12    1    1    2    0    0 -0.13729193764E+02 -0.14922600605E+02  0.38372494909E+02  0.43400727364E+02  0.00000000000E+00 0.  1.
         11    1    3    3    0    0  0.12406598196E+02  0.89563879870E+00 -0.20430386689E+02  0.23919166962E+02  0.51100000000E-03 0. -1.
        -11    1    3    3    0    0 -0.97100109524E+00  0.96979286321E+01 -0.73804904298E+01  0.12225559379E+02  0.51100000000E-03 0.  1.
        -12    1    3    3    0    0  0.22935966632E+01  0.43290331741E+01 -0.10561617790E+02  0.11642546295E+02  0.00000000000E+00 0.  1.
</event>
<event>
 7    1  0.2714068E-010  0.4778728E+02  0.7816164E-02  0.1312668E+00
        -11   -1    0    0    0    0  0.00000000000E+00  0.00000000000E+00  0.45593999997E+02  0.45594000000E+02  0.51100000000E-03 0.  1.
         11   -1    0    0    0    0 -0.00000000000E+00 -0.00000000000E+00 -0.45593999997E+02  0.45594000000E+02  0.51100000000E-03 0. -1.
    9900012    2    1    2    0    0 -0.13219253925E+02  0.52665169642E+00 -0.41335174387E+02  0.47787277910E+02  0.20000031304E+02 0.  0.
        -12    1    1    2    0    0  0.13219253925E+02 -0.52665169642E+00  0.41335174387E+02  0.43400722090E+02  0.00000000000E+00 0.  1.
         11    1    3    3    0    0  0.40829730012E+01 -0.11581643866E+01 -0.68745439614E+01  0.80790697616E+01  0.51100000000E-03 0. -1.
        -11    1    3    3    0    0 -0.72935378017E+00  0.28816451436E+01 -0.36946825130E+01  0.47419948127E+01  0.51100000000E-03 0.  1.
         12    1    3    3    0    0 -0.16572873146E+02 -0.11968290606E+01 -0.30765947912E+02  0.34966213336E+02  0.00000000000E+00 0. -1.
</event>
<event>
 7    1  0.2714068E-010  0.4778726E+02  0.7816164E-02  0.1312668E+00
        -11   -1    0    0    0    0  0.00000000000E+00  0.00000000000E+00  0.45593999997E+02  0.45594000000E+02  0.51100000000E-03 0.  1.
         11   -1    0    0    0    0 -0.00000000000E+00 -0.00000000000E+00 -0.45593999997E+02  0.45594000000E+02  0.51100000000E-03 0. -1.
    9900012    2    1    2    0    0 -0.17008650122E+02 -0.21298299850E+02 -0.33774437883E+02  0.47787257958E+02  0.19999940332E+02 0.  0.
        -12    1    1    2    0    0  0.17008650122E+02  0.21298299850E+02  0.33774437883E+02  0.43400742042E+02  0.00000000000E+00 0.  1.
         11    1    3    3    0    0 -0.48810184952E+01 -0.75142687247E+01 -0.10167529041E+02  0.13552388095E+02  0.51100000000E-03 0. -1.
        -11    1    3    3    0    0 -0.16331173219E+02 -0.11764935575E+02 -0.19373450625E+02  0.27936562372E+02  0.51100000000E-03 0.  1.
        -12    1    3    3    0    0  0.42035415928E+01 -0.20190955507E+01 -0.42334582177E+01  0.62983074906E+01  0.00000000000E+00 0.  1.
</event>
<event>
 7    1  0.2714068E-010  0.4778727E+02  0.7816164E-02  0.1312668E+00
        -11   -1    0    0    0    0  0.00000000000E+00  0.00000000000E+00  0.45593999997E+02  0.45594000000E+02  0.51100000000E-03 0. -1.
         11   -1    0    0    0    0 -0.00000000000E+00 -0.00000000000E+00 -0.45593999997E+02  0.45594000000E+02  0.51100000000E-03 0.  1.
    9900012    2    1    2    0    0 -0.42631001037E+02 -0.77421537686E+00 -0.81007276368E+01  0.47787269048E+02  0.19999990899E+02 0.  0.
        -12    1    1    2    0    0  0.42631001037E+02  0.77421537686E+00  0.81007276368E+01  0.43400730952E+02  0.00000000000E+00 0.  1.
         11    1    3    3    0    0 -0.24242015994E+02 -0.40072024870E+01 -0.10318434735E+02  0.26649636149E+02  0.51100000000E-03 0. -1.
        -11    1    3    3    0    0 -0.93154877352E+01  0.65177345429E+01  0.10546228610E+01  0.11418029819E+02  0.51100000000E-03 0.  1.
         12    1    3    3    0    0 -0.90734973080E+01 -0.32847474328E+01  0.11630842369E+01  0.97196030803E+01  0.00000000000E+00 0. -1.
</event>
<event>
 7    1  0.2714068E-010  0.4778727E+02  0.7816164E-02  0.1312668E+00
        -11   -1    0    0    0    0  0.00000000000E+00  0.00000000000E+00  0.45593999997E+02  0.45594000000E+02  0.51100000000E-03 0. -1.
         11   -1    0    0    0    0 -0.00000000000E+00 -0.00000000000E+00 -0.45593999997E+02  0.45594000000E+02  0.51100000000E-03 0.  1.
    9900012    2    1    2    0    0 -0.11335489486E+02 -0.39683416841E+02  0.13429677930E+02  0.47787272548E+02  0.20000006853E+02 0.  0.
        -12    1    1    2    0    0  0.11335489486E+02  0.39683416841E+02 -0.13429677930E+02  0.43400727452E+02  0.00000000000E+00 0.  1.
         11    1    3    3    0    0 -0.30954638634E+00 -0.45834869258E+01  0.19734351685E+01  0.49998617971E+01  0.51100000000E-03 0. -1.
        -11    1    3    3    0    0 -0.28585945100E+01 -0.29065308011E+02  0.13896964377E+02  0.32343303966E+02  0.51100000000E-03 0.  1.
        -12    1    3    3    0    0 -0.81673485893E+01 -0.60346219051E+01 -0.24407216148E+01  0.10444106784E+02  0.00000000000E+00 0.  1.
</event>
<event>
 7    1  0.2714068E-010  0.4778727E+02  0.7816164E-02  0.1312668E+00
        -11   -1    0    0    0    0  0.00000000000E+00  0.00000000000E+00  0.45593999997E+02  0.45594000000E+02  0.51100000000E-03 0. -1.
         11   -1    0    0    0    0 -0.00000000000E+00 -0.00000000000E+00 -0.45593999997E+02  0.45594000000E+02  0.51100000000E-03 0.  1.
    9900012    2    1    2    0    0  0.40071006286E+02 -0.30516473878E+01  0.16389785032E+02  0.47787272472E+02  0.20000006508E+02 0.  0.
        -12    1    1    2    0    0 -0.40071006286E+02  0.30516473878E+01 -0.16389785032E+02  0.43400727528E+02  0.00000000000E+00 0.  1.
         11    1    3    3    0    0  0.64433390735E+01  0.16070213672E+01  0.35559169714E+01  0.75328402252E+01  0.51100000000E-03 0. -1.
        -11    1    3    3    0    0  0.28676210763E+02  0.31299054407E+01  0.10813048135E+02  0.30806547714E+02  0.51100000000E-03 0.  1.
        -12    1    3    3    0    0  0.49514564499E+01 -0.77885741957E+01  0.20208199251E+01  0.94478845329E+01  0.00000000000E+00 0.  1.
</event>
<event>
 7    1  0.2714068E-010  0.4778727E+02  0.7816164E-02  0.1312668E+00
        -11   -1    0    0    0    0  0.00000000000E+00  0.00000000000E+00  0.45593999997E+02  0.45594000000E+02  0.51100000000E-03 0. -1.
         11   -1    0    0    0    0 -0.00000000000E+00 -0.00000000000E+00 -0.45593999997E+02  0.45594000000E+02  0.51100000000E-03 0.  1.
    9900012    2    1    2    0    0 -0.41848076203E+02 -0.11032005350E+02  0.32644195855E+01  0.47787273519E+02  0.20000011281E+02 0.  0.
        -12    1    1    2    0    0  0.41848076203E+02  0.11032005350E+02 -0.32644195855E+01  0.43400726481E+02  0.00000000000E+00 0.  1.
         11    1    3    3    0    0 -0.11273500418E+02 -0.11496194430E+02  0.35960360938E+01  0.16498053639E+02  0.51100000000E-03 0. -1.
        -11    1    3    3    0    0 -0.22756402262E+02 -0.23562710743E+01  0.85240437497E+00  0.22893939171E+02  0.51100000000E-03 0.  1.
         12    1    3    3    0    0 -0.78181735225E+01  0.28204601547E+01 -0.11840208833E+01  0.83952807078E+01  0.00000000000E+00 0. -1.
</event>
<event>
 7    1  0.2714068E-010  0.4778727E+02  0.7816164E-02  0.1312668E+00
        -11   -1    0    0    0    0  0.00000000000E+00  0.00000000000E+00  0.45593999997E+02  0.45594000000E+02  0.51100000000E-03 0.  1.
         11   -1    0    0    0    0 -0.00000000000E+00 -0.00000000000E+00 -0.45593999997E+02  0.45594000000E+02  0.51100000000E-03 0. -1.
    9900012    2    1    2    0    0 -0.24929243524E+02  0.21551485179E+02 -0.28243395842E+02  0.47787272992E+02  0.20000008882E+02 0.  0.
        -12    1    1    2    0    0  0.24929243524E+02 -0.21551485179E+02  0.28243395842E+02  0.43400727008E+02  0.00000000000E+00 0.  1.
         11    1    3    3    0    0 -0.33443418069E+01  0.49415929277E+01 -0.12811000303E+02  0.14132434037E+02  0.51100000000E-03 0. -1.
        -11    1    3    3    0    0 -0.95525977621E+01  0.83426634696E+01 -0.38375243202E+00  0.12688554841E+02  0.51100000000E-03 0.  1.
        -12    1    3    3    0    0 -0.12032303955E+02  0.82672287813E+01 -0.15048643107E+02  0.20966284114E+02  0.00000000000E+00 0.  1.
</event>
<event>
 7    1  0.2714068E-010  0.4778727E+02  0.7816164E-02  0.1312668E+00
        -11   -1    0    0    0    0  0.00000000000E+00  0.00000000000E+00  0.45593999997E+02  0.45594000000E+02  0.51100000000E-03 0. -1.
         11   -1    0    0    0    0 -0.00000000000E+00 -0.00000000000E+00 -0.45593999997E+02  0.45594000000E+02  0.51100000000E-03 0.  1.
    9900012    2    1    2    0    0 -0.10535742313E+02 -0.15622250945E+02  0.39096885321E+02  0.47787273825E+02  0.20000012678E+02 0.  0.
        -12    1    1    2    0    0  0.10535742313E+02  0.15622250945E+02 -0.39096885321E+02  0.43400726175E+02  0.00000000000E+00 0.  1.
         11    1    3    3    0    0 -0.32628365118E+01 -0.15944906265E+02  0.21624206790E+02  0.27064597863E+02  0.51100000000E-03 0. -1.
        -11    1    3    3    0    0 -0.12962279003E+01  0.25201197912E+01  0.11988068731E+02  0.12318482158E+02  0.51100000000E-03 0.  1.
         12    1    3    3    0    0 -0.59766779010E+01 -0.21974644718E+01  0.54846098003E+01  0.84041938043E+01  0.00000000000E+00 0. -1.
</event>
<event>
 7    1  0.2714068E-010  0.4778726E+02  0.7816164E-02  0.1312668E+00
        -11   -1    0    0    0    0  0.00000000000E+00  0.00000000000E+00  0.45593999997E+02  0.45594000000E+02  0.51100000000E-03 0. -1.
         11   -1    0    0    0    0 -0.00000000000E+00 -0.00000000000E+00 -0.45593999997E+02  0.45594000000E+02  0.51100000000E-03 0.  1.
    9900012    2    1    2    0    0 -0.27787342879E+02  0.41319103803E+01  0.33081939489E+02  0.47787264660E+02  0.19999970891E+02 0.  0.
        -12    1    1    2    0    0  0.27787342879E+02 -0.41319103803E+01 -0.33081939489E+02  0.43400735340E+02  0.00000000000E+00 0.  1.
         11    1    3    3    0    0 -0.78720758831E+01 -0.21241506876E-01  0.40207931395E+01  0.88395026808E+01  0.51100000000E-03 0. -1.
        -11    1    3    3    0    0 -0.12079614538E+02  0.68265453593E+01  0.73286129755E+01  0.15691633992E+02  0.51100000000E-03 0.  1.
        -12    1    3    3    0    0 -0.78356524578E+01 -0.26733934721E+01  0.21732533374E+02  0.23256127987E+02  0.00000000000E+00 0.  1.
</event>
<event>
 7    1  0.2714068E-010  0.4778727E+02  0.7816164E-02  0.1312668E+00
        -11   -1    0    0    0    0  0.00000000000E+00  0.00000000000E+00  0.45593999997E+02  0.45594000000E+02  0.51100000000E-03 0.  1.
         11   -1    0    0    0    0 -0.00000000000E+00 -0.00000000000E+00 -0.45593999997E+02  0.45594000000E+02  0.51100000000E-03 0. -1.
    9900012    2    1    2    0    0 -0.42066480860E+02 -0.10541769919E+02  0.17046601412E+01  0.47787267389E+02  0.19999983334E+02 0.  0.
        -12    1    1    2    0    0  0.42066480860E+02  0.10541769919E+02 -0.17046601412E+01  0.43400732611E+02  0.00000000000E+00 0.  1.
         11    1    3    3    0    0 -0.14598170272E+02 -0.13303088722E+01  0.59695594243E+01  0.15827568890E+02  0.51100000000E-03 0. -1.
        -11    1    3    3    0    0 -0.50263793334E+01 -0.37502174441E+01  0.39888947582E+01  0.74323550597E+01  0.51100000000E-03 0.  1.
         12    1    3    3    0    0 -0.22441931254E+02 -0.54612436027E+01 -0.82537940413E+01  0.24527343439E+02  0.00000000000E+00 0. -1.
</event>
<event>
 7    1  0.2714068E-010  0.4778727E+02  0.7816164E-02  0.1312668E+00
        -11   -1    0    0    0    0  0.00000000000E+00  0.00000000000E+00  0.45593999997E+02  0.45594000000E+02  0.51100000000E-03 0.  1.
         11   -1    0    0    0    0 -0.00000000000E+00 -0.00000000000E+00 -0.45593999997E+02  0.45594000000E+02  0.51100000000E-03 0. -1.
    9900012    2    1    2    0    0  0.17123204156E+02 -0.33224180771E+02 -0.22058406130E+02  0.47787267409E+02  0.19999983424E+02 0.  0.
        -12    1    1    2    0    0 -0.17123204156E+02  0.33224180771E+02  0.22058406130E+02  0.43400732591E+02  0.00000000000E+00 0.  1.
         11    1    3    3    0    0  0.18419023163E+02 -0.29252155453E+02 -0.24444121318E+02  0.42337502054E+02  0.51100000000E-03 0. -1.
        -11    1    3    3    0    0 -0.94396403823E+00 -0.41263173898E+01  0.26403102107E+01  0.49888677650E+01  0.51100000000E-03 0.  1.
         12    1    3    3    0    0 -0.35185496913E+00  0.15429207171E+00 -0.25459502261E+00  0.46089758974E+00  0.00000000000E+00 0. -1.
</event>
<event>
 7    1  0.2714068E-010  0.4778728E+02  0.7816164E-02  0.1312668E+00
        -11   -1    0    0    0    0  0.00000000000E+00  0.00000000000E+00  0.45593999997E+02  0.45594000000E+02  0.51100000000E-03 0.  1.
         11   -1    0    0    0    0 -0.00000000000E+00 -0.00000000000E+00 -0.45593999997E+02  0.45594000000E+02  0.51100000000E-03 0. -1.
    9900012    2    1    2    0    0  0.41922257892E+02  0.44275167098E+00 -0.11222787580E+02  0.47787277692E+02  0.20000030309E+02 0.  0.
        -12    1    1    2    0    0 -0.41922257892E+02 -0.44275167098E+00  0.11222787580E+02  0.43400722308E+02  0.00000000000E+00 0.  1.
         11    1    3    3    0    0  0.21205741776E+02  0.13204093040E+01  0.85796539359E+00  0.21264126360E+02  0.51100000000E-03 0. -1.
        -11    1    3    3    0    0  0.20881552640E+02 -0.70250365564E+00 -0.13635987700E+02  0.24949407064E+02  0.51100000000E-03 0.  1.
        -12    1    3    3    0    0 -0.16503652384E+00 -0.17515397734E+00  0.15552347255E+01  0.15737442681E+01  0.00000000000E+00 0.  1.
</event>
<event>
 7    1  0.2714068E-010  0.4778727E+02  0.7816164E-02  0.1312668E+00
        -11   -1    0    0    0    0  0.00000000000E+00  0.00000000000E+00  0.45593999997E+02  0.45594000000E+02  0.51100000000E-03 0.  1.
         11   -1    0    0    0    0 -0.00000000000E+00 -0.00000000000E+00 -0.45593999997E+02  0.45594000000E+02  0.51100000000E-03 0. -1.
    9900012    2    1    2    0    0 -0.13042976535E+02  0.38024063639E+02 -0.16360765519E+02  0.47787270733E+02  0.19999998581E+02 0.  0.
        -12    1    1    2    0    0  0.13042976535E+02 -0.38024063639E+02  0.16360765519E+02  0.43400729267E+02  0.00000000000E+00 0.  1.
         11    1    3    3    0    0 -0.54534783864E+01  0.89456118601E+01 -0.10689772654E+02  0.14967820072E+02  0.51100000000E-03 0.  1.
        -11    1    3    3    0    0  0.33548424974E+00  0.12764934158E+02 -0.71285564623E+01  0.14624377294E+02  0.51100000000E-03 0. -1.
         12    1    3    3    0    0 -0.79249823982E+01  0.16313517621E+02  0.14575635975E+01  0.18195073367E+02  0.00000000000E+00 0. -1.
</event>
<event>
 7    1  0.2714068E-010  0.4778727E+02  0.7816164E-02  0.1312668E+00
        -11   -1    0    0    0    0  0.00000000000E+00  0.00000000000E+00  0.45593999997E+02  0.45594000000E+02  0.51100000000E-03 0.  1.
         11   -1    0    0    0    0 -0.00000000000E+00 -0.00000000000E+00 -0.45593999997E+02  0.45594000000E+02  0.51100000000E-03 0. -1.
    9900012    2    1    2    0    0 -0.32534965919E+02  0.14141552571E+02 -0.25002324644E+02  0.47787265513E+02  0.19999974778E+02 0.  0.
        -12    1    1    2    0    0  0.32534965919E+02 -0.14141552571E+02  0.25002324644E+02  0.43400734487E+02  0.00000000000E+00 0.  1.
         11    1    3    3    0    0 -0.27148425299E+02  0.10537233762E+02 -0.16440982327E+02  0.33442131985E+02  0.51100000000E-03 0. -1.
        -11    1    3    3    0    0 -0.28857828824E+01  0.15670161397E+01 -0.10208263886E+02  0.10723429221E+02  0.51100000000E-03 0.  1.
         12    1    3    3    0    0 -0.25007577371E+01  0.20373026691E+01  0.16469215696E+01  0.36217043062E+01  0.00000000000E+00 0. -1.
</event>
<event>
 7    1  0.2714068E-010  0.4778727E+02  0.7816164E-02  0.1312668E+00
        -11   -1    0    0    0    0  0.00000000000E+00  0.00000000000E+00  0.45593999997E+02  0.45594000000E+02  0.51100000000E-03 0.  1.
         11   -1    0    0    0    0 -0.00000000000E+00 -0.00000000000E+00 -0.45593999997E+02  0.45594000000E+02  0.51100000000E-03 0. -1.
    9900012    2    1    2    0    0 -0.17718953316E+00  0.34864770506E+02 -0.25846462391E+02  0.47787271473E+02  0.20000001954E+02 0.  0.
        -12    1    1    2    0    0  0.17718953316E+00 -0.34864770506E+02  0.25846462391E+02  0.43400728527E+02  0.00000000000E+00 0.  1.
         11    1    3    3    0    0 -0.55484198670E+00  0.46432323354E+01 -0.42893776130E+01  0.63455666980E+01  0.51100000000E-03 0. -1.
        -11    1    3    3    0    0  0.87670082098E+01  0.21352408117E+02 -0.15584633914E+02  0.27850791368E+02  0.51100000000E-03 0.  1.
        -12    1    3    3    0    0 -0.83893557563E+01  0.88691300535E+01 -0.59724508634E+01  0.13590913407E+02  0.00000000000E+00 0.  1.
</event>
<event>
 7    1  0.2714068E-010  0.4778727E+02  0.7816164E-02  0.1312668E+00
        -11   -1    0    0    0    0  0.00000000000E+00  0.00000000000E+00  0.45593999997E+02  0.45594000000E+02  0.51100000000E-03 0. -1.
         11   -1    0    0    0    0 -0.00000000000E+00 -0.00000000000E+00 -0.45593999997E+02  0.45594000000E+02  0.51100000000E-03 0.  1.
    9900012    2    1    2    0    0  0.21483622771E+02 -0.16069624592E+02  0.34115159845E+02  0.47787274048E+02  0.20000013696E+02 0.  0.
        -12    1    1    2    0    0 -0.21483622771E+02  0.16069624592E+02 -0.34115159845E+02  0.43400725952E+02  0.00000000000E+00 0.  1.
         11    1    3    3    0    0  0.21106983177E+02 -0.11866432279E+02  0.24023129677E+02  0.34109056182E+02  0.51100000000E-03 0. -1.
        -11    1    3    3    0    0 -0.31299296878E+01 -0.12260710869E+01  0.10303485543E+01  0.35158681098E+01  0.51100000000E-03 0.  1.
        -12    1    3    3    0    0  0.35065692825E+01 -0.29771212256E+01  0.90616816132E+01  0.10162349757E+02  0.00000000000E+00 0.  1.
</event>
<event>
 7    1  0.2714068E-010  0.4778727E+02  0.7816164E-02  0.1312668E+00
        -11   -1    0    0    0    0  0.00000000000E+00  0.00000000000E+00  0.45593999997E+02  0.45594000000E+02  0.51100000000E-03 0.  1.
         11   -1    0    0    0    0 -0.00000000000E+00 -0.00000000000E+00 -0.45593999997E+02  0.45594000000E+02  0.51100000000E-03 0. -1.
    9900012    2    1    2    0    0  0.32676631733E+02 -0.22193769874E+02 -0.17980473119E+02  0.47787273091E+02  0.20000009332E+02 0.  0.
        -12    1    1    2    0    0 -0.32676631733E+02  0.22193769874E+02  0.17980473119E+02  0.43400726909E+02  0.00000000000E+00 0.  1.
         11    1    3    3    0    0  0.24313463542E+02 -0.13805734479E+02 -0.15784627837E+02  0.32107589292E+02  0.51100000000E-03 0. -1.
        -11    1    3    3    0    0  0.32857256035E+01  0.20202784826E+01  0.16537789646E+00  0.38606823230E+01  0.51100000000E-03 0.  1.
         12    1    3    3    0    0  0.50774425874E+01 -0.10408313878E+02 -0.23612231788E+01  0.11819001477E+02  0.00000000000E+00 0. -1.
</event>
<event>
 7    1  0.2714068E-010  0.4778727E+02  0.7816164E-02  0.1312668E+00
        -11   -1    0    0    0    0  0.00000000000E+00  0.00000000000E+00  0.45593999997E+02  0.45594000000E+02  0.51100000000E-03 0.  1.
         11   -1    0    0    0    0 -0.00000000000E+00 -0.00000000000E+00 -0.45593999997E+02  0.45594000000E+02  0.51100000000E-03 0. -1.
    9900012    2    1    2    0    0 -0.43248056127E+02 -0.36330911671E+01 -0.17338187330E+00  0.47787265312E+02  0.19999973863E+02 0.  0.
        -12    1    1    2    0    0  0.43248056127E+02  0.36330911671E+01  0.17338187330E+00  0.43400734688E+02  0.00000000000E+00 0.  1.
         11    1    3    3    0    0  0.13463773986E+01 -0.22418742204E+00  0.21687167667E+01  0.25624841024E+01  0.51100000000E-03 0.  1.
        -11    1    3    3    0    0 -0.40734349271E+02 -0.13137011823E+01 -0.24762011828E+01  0.40830682016E+02  0.51100000000E-03 0. -1.
        -12    1    3    3    0    0 -0.38600842545E+01 -0.20952025627E+01  0.13410254284E+00  0.43940991935E+01  0.00000000000E+00 0.  1.
</event>
<event>
 7    1  0.2714068E-010  0.4778727E+02  0.7816164E-02  0.1312668E+00
        -11   -1    0    0    0    0  0.00000000000E+00  0.00000000000E+00  0.45593999997E+02  0.45594000000E+02  0.51100000000E-03 0. -1.
         11   -1    0    0    0    0 -0.00000000000E+00 -0.00000000000E+00 -0.45593999997E+02  0.45594000000E+02  0.51100000000E-03 0.  1.
    9900012    2    1    2    0    0  0.17822432742E+02 -0.36285941275E+02  0.15789712827E+02  0.47787266432E+02  0.19999978972E+02 0.  0.
        -12    1    1    2    0    0 -0.17822432742E+02  0.36285941275E+02 -0.15789712827E+02  0.43400733568E+02  0.00000000000E+00 0.  1.
         11    1    3    3    0    0  0.59830987416E+01 -0.44135150927E+01  0.80160062084E+01  0.10933112174E+02  0.51100000000E-03 0. -1.
        -11    1    3    3    0    0  0.90208804158E+01 -0.31956081020E+02  0.72082467848E+01  0.33978319847E+02  0.51100000000E-03 0.  1.
        -12    1    3    3    0    0  0.28184535842E+01  0.83654837491E-01  0.56545983340E+00  0.28758344113E+01  0.00000000000E+00 0.  1.
</event>
<event>
 7    1  0.2714068E-010  0.4778728E+02  0.7816164E-02  0.1312668E+00
        -11   -1    0    0    0    0  0.00000000000E+00  0.00000000000E+00  0.45593999997E+02  0.45594000000E+02  0.51100000000E-03 0. -1.
         11   -1    0    0    0    0 -0.00000000000E+00 -0.00000000000E+00 -0.45593999997E+02  0.45594000000E+02  0.51100000000E-03 0.  1.
    9900012    2    1    2    0    0 -0.31738042178E+01 -0.13668344906E+02  0.41069764433E+02  0.47787282999E+02  0.20000054505E+02 0.  0.
        -12    1    1    2    0    0  0.31738042178E+01  0.13668344906E+02 -0.41069764433E+02  0.43400717001E+02  0.00000000000E+00 0.  1.
         11    1    3    3    0    0 -0.44053840924E+01 -0.11584189092E+02  0.39841536985E+02  0.41724679933E+02  0.51100000000E-03 0. -1.
        -11    1    3    3    0    0  0.28036304570E+01 -0.29569516102E+01  0.43708672107E+00  0.40981644217E+01  0.51100000000E-03 0.  1.
        -12    1    3    3    0    0 -0.15720505825E+01  0.87279579690E+00  0.79114072638E+00  0.19644386440E+01  0.00000000000E+00 0.  1.
</event>
<event>
 7    1  0.2714068E-010  0.4778727E+02  0.7816164E-02  0.1312668E+00
        -11   -1    0    0    0    0  0.00000000000E+00  0.00000000000E+00  0.45593999997E+02  0.45594000000E+02  0.51100000000E-03 0.  1.
         11   -1    0    0    0    0 -0.00000000000E+00 -0.00000000000E+00 -0.45593999997E+02  0.45594000000E+02  0.51100000000E-03 0. -1.
    9900012    2    1    2    0    0  0.30696643356E+01 -0.41453724534E+02 -0.12481553004E+02  0.47787270948E+02  0.19999999561E+02 0.  0.
        -12    1    1    2    0    0 -0.30696643356E+01  0.41453724534E+02  0.12481553004E+02  0.43400729052E+02  0.00000000000E+00 0.  1.
         11    1    3    3    0    0  0.12403042436E+01 -0.67034302580E+01 -0.96601902179E+01  0.11823434660E+02  0.51100000000E-03 0. -1.
        -11    1    3    3    0    0  0.10620958095E+01 -0.16601243888E+02  0.29689420233E+01  0.16898046134E+02  0.51100000000E-03 0.  1.
         12    1    3    3    0    0  0.76726428248E+00 -0.18149050388E+02 -0.57903048089E+01  0.19065790155E+02  0.00000000000E+00 0. -1.
</event>
<event>
 7    1  0.2714068E-010  0.4778727E+02  0.7816164E-02  0.1312668E+00
        -11   -1    0    0    0    0  0.00000000000E+00  0.00000000000E+00  0.45593999997E+02  0.45594000000E+02  0.51100000000E-03 0.  1.
         11   -1    0    0    0    0 -0.00000000000E+00 -0.00000000000E+00 -0.45593999997E+02  0.45594000000E+02  0.51100000000E-03 0. -1.
    9900012    2    1    2    0    0 -0.26688675914E+02 -0.11118548142E+02 -0.32368435993E+02  0.47787272087E+02  0.20000004751E+02 0.  0.
        -12    1    1    2    0    0  0.26688675914E+02  0.11118548142E+02  0.32368435993E+02  0.43400727913E+02  0.00000000000E+00 0.  1.
         11    1    3    3    0    0 -0.25746490027E+02 -0.11664803278E+02 -0.25358122381E+02  0.37973461196E+02  0.51100000000E-03 0. -1.
        -11    1    3    3    0    0 -0.27623023932E+00 -0.42624053325E-01 -0.82685185172E+01  0.82732411234E+01  0.51100000000E-03 0.  1.
        -12    1    3    3    0    0 -0.66595564679E+00  0.58887919006E+00  0.12582049053E+01  0.15405697672E+01  0.00000000000E+00 0.  1.
</event>
<event>
 7    1  0.2714068E-010  0.4778727E+02  0.7816164E-02  0.1312668E+00
        -11   -1    0    0    0    0  0.00000000000E+00  0.00000000000E+00  0.45593999997E+02  0.45594000000E+02  0.51100000000E-03 0.  1.
         11   -1    0    0    0    0 -0.00000000000E+00 -0.00000000000E+00 -0.45593999997E+02  0.45594000000E+02  0.51100000000E-03 0. -1.
    9900012    2    1    2    0    0  0.85326753890E+01  0.22424038800E+02 -0.36165998023E+02  0.47787268688E+02  0.19999989255E+02 0.  0.
        -12    1    1    2    0    0 -0.85326753890E+01 -0.22424038800E+02  0.36165998023E+02  0.43400731312E+02  0.00000000000E+00 0.  1.
         11    1    3    3    0    0  0.13344832404E+01 -0.19354834913E+00 -0.13264583256E+02  0.13332946999E+02  0.51100000000E-03 0. -1.
        -11    1    3    3    0    0  0.32375899766E+01  0.21333398010E+02 -0.19141218625E+02  0.28844100093E+02  0.51100000000E-03 0.  1.
        -12    1    3    3    0    0  0.39606021720E+01  0.12841891398E+01 -0.37601961430E+01  0.56102215950E+01  0.00000000000E+00 0.  1.
</event>
<event>
 7    1  0.2714068E-010  0.4778728E+02  0.7816164E-02  0.1312668E+00
        -11   -1    0    0    0    0  0.00000000000E+00  0.00000000000E+00  0.45593999997E+02  0.45594000000E+02  0.51100000000E-03 0. -1.
         11   -1    0    0    0    0 -0.00000000000E+00 -0.00000000000E+00 -0.45593999997E+02  0.45594000000E+02  0.51100000000E-03 0.  1.
    9900012    2    1    2    0    0  0.12985092789E+01  0.26416688242E+02  0.34410678250E+02  0.47787282014E+02  0.20000050015E+02 0.  0.
        -12    1    1    2    0    0 -0.12985092789E+01 -0.26416688242E+02 -0.34410678250E+02  0.43400717986E+02  0.00000000000E+00 0.  1.
         11    1    3    3    0    0  0.64825043854E+01  0.18822894613E+02  0.16342589934E+02  0.25756639352E+02  0.51100000000E-03 0.  1.
        -11    1    3    3    0    0  0.17990283099E+01  0.30434516278E+01  0.23674659528E+01  0.42548790781E+01  0.51100000000E-03 0. -1.
         12    1    3    3    0    0 -0.69830234164E+01  0.45503420016E+01  0.15700622364E+02  0.17775763584E+02  0.00000000000E+00 0. -1.
</event>
<event>
 7    1  0.2714068E-010  0.4778727E+02  0.7816164E-02  0.1312668E+00
        -11   -1    0    0    0    0  0.00000000000E+00  0.00000000000E+00  0.45593999997E+02  0.45594000000E+02  0.51100000000E-03 0. -1.
         11   -1    0    0    0    0 -0.00000000000E+00 -0.00000000000E+00 -0.45593999997E+02  0.45594000000E+02  0.51100000000E-03 0.  1.
    9900012    2    1    2    0    0 -0.42347257830E+02 -0.69120279874E+01  0.65235786811E+01  0.47787268953E+02  0.19999990463E+02 0.  0.
        -12    1    1    2    0    0  0.42347257830E+02  0.69120279874E+01 -0.65235786811E+01  0.43400731047E+02  0.00000000000E+00 0.  1.
         11    1    3    3    0    0 -0.30758766959E+02 -0.11152184199E+01  0.11448820485E+02  0.32839320147E+02  0.51100000000E-03 0. -1.
        -11    1    3    3    0    0 -0.12093654891E+02 -0.58773769512E+01 -0.51373358097E+01  0.14394174792E+02  0.51100000000E-03 0.  1.
         12    1    3    3    0    0  0.50516402031E+00  0.80567383738E-01  0.21209400603E+00  0.55377401360E+00  0.00000000000E+00 0. -1.
</event>
<event>
 7    1  0.2714068E-010  0.4778727E+02  0.7816164E-02  0.1312668E+00
        -11   -1    0    0    0    0  0.00000000000E+00  0.00000000000E+00  0.45593999997E+02  0.45594000000E+02  0.51100000000E-03 0. -1.
         11   -1    0    0    0    0 -0.00000000000E+00 -0.00000000000E+00 -0.45593999997E+02  0.45594000000E+02  0.51100000000E-03 0.  1.
    9900012    2    1    2    0    0 -0.28641427114E+02  0.14179616195E+02  0.29363755601E+02  0.47787274136E+02  0.20000014094E+02 0.  0.
        -12    1    1    2    0    0  0.28641427114E+02 -0.14179616195E+02 -0.29363755601E+02  0.43400725864E+02  0.00000000000E+00 0.  1.
         11    1    3    3    0    0  0.19457039050E+00 -0.27458094675E+01  0.39572149405E+01  0.48204644606E+01  0.51100000000E-03 0. -1.
        -11    1    3    3    0    0 -0.22340811173E+02  0.15788315562E+02  0.23600822302E+02  0.36130064569E+02  0.51100000000E-03 0.  1.
        -12    1    3    3    0    0 -0.64951863312E+01  0.11371101007E+01  0.18057183582E+01  0.68367451062E+01  0.00000000000E+00 0.  1.
</event>
<event>
 7    1  0.2714068E-010  0.4778727E+02  0.7816164E-02  0.1312668E+00
        -11   -1    0    0    0    0  0.00000000000E+00  0.00000000000E+00  0.45593999997E+02  0.45594000000E+02  0.51100000000E-03 0.  1.
         11   -1    0    0    0    0 -0.00000000000E+00 -0.00000000000E+00 -0.45593999997E+02  0.45594000000E+02  0.51100000000E-03 0. -1.
    9900012    2    1    2    0    0  0.32577022953E+02  0.28509832476E+02  0.30903225420E+01  0.47787273443E+02  0.20000010934E+02 0.  0.
        -12    1    1    2    0    0 -0.32577022953E+02 -0.28509832476E+02 -0.30903225420E+01  0.43400726557E+02  0.00000000000E+00 0.  1.
         11    1    3    3    0    0  0.19781574531E+02  0.69600865202E+01 -0.40660841951E+01  0.21360864595E+02  0.51100000000E-03 0. -1.
        -11    1    3    3    0    0  0.34983632881E+01  0.94305162045E+01  0.16685590829E+01  0.10195943863E+02  0.51100000000E-03 0.  1.
         12    1    3    3    0    0  0.92970851339E+01  0.12119229752E+02  0.54878476542E+01  0.16230464985E+02  0.00000000000E+00 0. -1.
</event>
<event>
 7    1  0.2714068E-010  0.4778725E+02  0.7816164E-02  0.1312668E+00
        -11   -1    0    0    0    0  0.00000000000E+00  0.00000000000E+00  0.45593999997E+02  0.45594000000E+02  0.51100000000E-03 0.  1.
         11   -1    0    0    0    0 -0.00000000000E+00 -0.00000000000E+00 -0.45593999997E+02  0.45594000000E+02  0.51100000000E-03 0. -1.
    9900012    2    1    2    0    0 -0.22661974803E+02 -0.20169496077E+02 -0.31036298741E+02  0.47787245242E+02  0.19999882357E+02 0.  0.
        -12    1    1    2    0    0  0.22661974803E+02  0.20169496077E+02  0.31036298741E+02  0.43400754758E+02  0.00000000000E+00 0.  1.
         11    1    3    3    0    0 -0.32461349850E+01 -0.84681041331E+01 -0.17625284167E+02  0.19821625114E+02  0.51100000000E-03 0. -1.
        -11    1    3    3    0    0 -0.17693442085E+02 -0.66631438160E+01 -0.85271854057E+01  0.20740498295E+02  0.51100000000E-03 0.  1.
        -12    1    3    3    0    0 -0.17223977334E+01 -0.50382481280E+01 -0.48838291684E+01  0.72251218328E+01  0.00000000000E+00 0.  1.
</event>
<event>
 7    1  0.2714068E-010  0.4778727E+02  0.7816164E-02  0.1312668E+00
        -11   -1    0    0    0    0  0.00000000000E+00  0.00000000000E+00  0.45593999997E+02  0.45594000000E+02  0.51100000000E-03 0. -1.
         11   -1    0    0    0    0 -0.00000000000E+00 -0.00000000000E+00 -0.45593999997E+02  0.45594000000E+02  0.51100000000E-03 0.  1.
    9900012    2    1    2    0    0 -0.26088028017E+02  0.21108686935E+02  0.27522016913E+02  0.47787270918E+02  0.19999999422E+02 0.  0.
        -12    1    1    2    0    0  0.26088028017E+02 -0.21108686935E+02 -0.27522016913E+02  0.43400729082E+02  0.00000000000E+00 0.  1.
         11    1    3    3    0    0 -0.71427237480E+01  0.96113430066E+01  0.19421186521E+02  0.22816198261E+02  0.51100000000E-03 0. -1.
        -11    1    3    3    0    0 -0.35401385929E+01  0.45638351418E+01 -0.87374600397E+00  0.58416268966E+01  0.51100000000E-03 0.  1.
         12    1    3    3    0    0 -0.15405165676E+02  0.69335087863E+01  0.89745763955E+01  0.19129445760E+02  0.00000000000E+00 0. -1.
</event>
<event>
 7    1  0.2714068E-010  0.4778727E+02  0.7816164E-02  0.1312668E+00
        -11   -1    0    0    0    0  0.00000000000E+00  0.00000000000E+00  0.45593999997E+02  0.45594000000E+02  0.51100000000E-03 0. -1.
         11   -1    0    0    0    0 -0.00000000000E+00 -0.00000000000E+00 -0.45593999997E+02  0.45594000000E+02  0.51100000000E-03 0.  1.
    9900012    2    1    2    0    0 -0.39543507225E+02 -0.52647065664E+00  0.17878963316E+02  0.47787268851E+02  0.19999989998E+02 0.  0.
        -12    1    1    2    0    0  0.39543507225E+02  0.52647065664E+00 -0.17878963316E+02  0.43400731149E+02  0.00000000000E+00 0.  1.
         11    1    3    3    0    0 -0.28823536582E+02 -0.73868742861E+01  0.10805761508E+02  0.31656384109E+02  0.51100000000E-03 0. -1.
        -11    1    3    3    0    0 -0.32648352723E+01  0.33407031912E+01  0.63108043309E+01  0.78514774871E+01  0.51100000000E-03 0.  1.
         12    1    3    3    0    0 -0.74551353709E+01  0.35197004383E+01  0.76239747713E+00  0.82794072546E+01  0.00000000000E+00 0. -1.
</event>
<event>
 7    1  0.2714068E-010  0.4778727E+02  0.7816164E-02  0.1312668E+00
        -11   -1    0    0    0    0  0.00000000000E+00  0.00000000000E+00  0.45593999997E+02  0.45594000000E+02  0.51100000000E-03 0.  1.
         11   -1    0    0    0    0 -0.00000000000E+00 -0.00000000000E+00 -0.45593999997E+02  0.45594000000E+02  0.51100000000E-03 0. -1.
    9900012    2    1    2    0    0  0.20255316264E+02 -0.29673060845E+02 -0.24348612369E+02  0.47787270730E+02  0.19999998568E+02 0.  0.
        -12    1    1    2    0    0 -0.20255316264E+02  0.29673060845E+02  0.24348612369E+02  0.43400729270E+02  0.00000000000E+00 0.  1.
         11    1    3    3    0    0  0.19207341958E+02 -0.11172827191E+02 -0.14392726771E+02  0.26474603617E+02  0.51100000000E-03 0. -1.
        -11    1    3    3    0    0 -0.37542194904E+00 -0.95528432010E+01 -0.67470253546E+01  0.11701286522E+02  0.51100000000E-03 0.  1.
         12    1    3    3    0    0  0.14233962549E+01 -0.89473904527E+01 -0.32088602438E+01  0.96113805916E+01  0.00000000000E+00 0. -1.
</event>
<event>
 7    1  0.2714068E-010  0.4778727E+02  0.7816164E-02  0.1312668E+00
        -11   -1    0    0    0    0  0.00000000000E+00  0.00000000000E+00  0.45593999997E+02  0.45594000000E+02  0.51100000000E-03 0.  1.
         11   -1    0    0    0    0 -0.00000000000E+00 -0.00000000000E+00 -0.45593999997E+02  0.45594000000E+02  0.51100000000E-03 0. -1.
    9900012    2    1    2    0    0  0.42457192561E+02 -0.79062245785E+01  0.43013816047E+01  0.47787268774E+02  0.19999989650E+02 0.  0.
        -12    1    1    2    0    0 -0.42457192561E+02  0.79062245785E+01 -0.43013816047E+01  0.43400731226E+02  0.00000000000E+00 0.  1.
         11    1    3    3    0    0  0.13556047322E+02  0.11533770844E+01 -0.63313073763E+01  0.15006070473E+02  0.51100000000E-03 0. -1.
        -11    1    3    3    0    0  0.21265810714E+02 -0.48644036389E+01  0.10136707663E+02  0.24055144369E+02  0.51100000000E-03 0.  1.
        -12    1    3    3    0    0  0.76353345243E+01 -0.41951980240E+01  0.49598131771E+00  0.87260539321E+01  0.00000000000E+00 0.  1.
</event>
<event>
 7    1  0.3076054E-010  0.4778727E+02  0.7816164E-02  0.1312668E+00
        -11   -1    0    0    0    0  0.00000000000E+00  0.00000000000E+00  0.45593999997E+02  0.45594000000E+02  0.51100000000E-03 0. -1.
         11   -1    0    0    0    0 -0.00000000000E+00 -0.00000000000E+00 -0.45593999997E+02  0.45594000000E+02  0.51100000000E-03 0.  1.
    9900012    2    1    2    0    0  0.18018249182E+02  0.18433885090E+02  0.34916438541E+02  0.47787273008E+02  0.20000008952E+02 0.  0.
        -12    1    1    2    0    0 -0.18018249182E+02 -0.18433885090E+02 -0.34916438541E+02  0.43400726992E+02  0.00000000000E+00 0.  1.
         11    1    3    3    0    0  0.64518955282E+01  0.12385304967E+02  0.19479819222E+02  0.23968439503E+02  0.51100000000E-03 0. -1.
        -11    1    3    3    0    0  0.13558328765E+02  0.22470336729E+01  0.12806612373E+02  0.18785280407E+02  0.51100000000E-03 0.  1.
        -12    1    3    3    0    0 -0.19919751113E+01  0.38015464505E+01  0.26300069463E+01  0.50335530986E+01  0.00000000000E+00 0.  1.
</event>
<event>
 7    1  0.2714068E-010  0.4778727E+02  0.7816164E-02  0.1312668E+00
        -11   -1    0    0    0    0  0.00000000000E+00  0.00000000000E+00  0.45593999997E+02  0.45594000000E+02  0.51100000000E-03 0.  1.
         11   -1    0    0    0    0 -0.00000000000E+00 -0.00000000000E+00 -0.45593999997E+02  0.45594000000E+02  0.51100000000E-03 0. -1.
    9900012    2    1    2    0    0  0.16778096986E+02 -0.36259271582E+02 -0.16952396668E+02  0.47787273429E+02  0.20000010872E+02 0.  0.
        -12    1    1    2    0    0 -0.16778096986E+02  0.36259271582E+02  0.16952396668E+02  0.43400726571E+02  0.00000000000E+00 0.  1.
         11    1    3    3    0    0  0.15239805043E+02 -0.14606450872E+02 -0.68774429876E+01  0.22201335255E+02  0.51100000000E-03 0. -1.
        -11    1    3    3    0    0 -0.70971219679E+00 -0.16478723451E+01  0.15227131654E+01  0.23532595082E+01  0.51100000000E-03 0.  1.
         12    1    3    3    0    0  0.22480041396E+01 -0.20004948365E+02 -0.11597666846E+02  0.23232678665E+02  0.00000000000E+00 0. -1.
</event>
<event>
 7    1  0.2714068E-010  0.4778728E+02  0.7816164E-02  0.1312668E+00
        -11   -1    0    0    0    0  0.00000000000E+00  0.00000000000E+00  0.45593999997E+02  0.45594000000E+02  0.51100000000E-03 0.  1.
         11   -1    0    0    0    0 -0.00000000000E+00 -0.00000000000E+00 -0.45593999997E+02  0.45594000000E+02  0.51100000000E-03 0. -1.
    9900012    2    1    2    0    0  0.99849170399E+01 -0.17306800441E+02 -0.38527899151E+02  0.47787275089E+02  0.20000018439E+02 0.  0.
        -12    1    1    2    0    0 -0.99849170399E+01  0.17306800441E+02  0.38527899151E+02  0.43400724911E+02  0.00000000000E+00 0.  1.
         11    1    3    3    0    0  0.99015896583E+01 -0.14071076508E+02 -0.21247198222E+02  0.27340082378E+02  0.51100000000E-03 0. -1.
        -11    1    3    3    0    0 -0.48113170263E+01  0.33094844979E-01 -0.57206040652E+01  0.74749700955E+01  0.51100000000E-03 0.  1.
        -12    1    3    3    0    0  0.48946444078E+01 -0.32688187784E+01 -0.11560096864E+02  0.12972222615E+02  0.00000000000E+00 0.  1.
</event>
<event>
 7    1  0.2714068E-010  0.4778727E+02  0.7816164E-02  0.1312668E+00
        -11   -1    0    0    0    0  0.00000000000E+00  0.00000000000E+00  0.45593999997E+02  0.45594000000E+02  0.51100000000E-03 0.  1.
         11   -1    0    0    0    0 -0.00000000000E+00 -0.00000000000E+00 -0.45593999997E+02  0.45594000000E+02  0.51100000000E-03 0. -1.
    9900012    2    1    2    0    0 -0.91486097102E+01 -0.32901590370E+02 -0.26784541412E+02  0.47787269970E+02  0.19999995101E+02 0.  0.
        -12    1    1    2    0    0  0.91486097102E+01  0.32901590370E+02  0.26784541412E+02  0.43400730030E+02  0.00000000000E+00 0.  1.
         11    1    3    3    0    0 -0.18325985161E+01 -0.11785494312E+02 -0.72315850160E+01  0.13948193991E+02  0.51100000000E-03 0. -1.
        -11    1    3    3    0    0 -0.25377995559E+01 -0.19428759409E+02 -0.20846362023E+02  0.28609228033E+02  0.51100000000E-03 0.  1.
        -12    1    3    3    0    0 -0.47782116382E+01 -0.16873366489E+01  0.12934056273E+01  0.52298479465E+01  0.00000000000E+00 0.  1.
</event>
<event>
 7    1  0.2714068E-010  0.4778726E+02  0.7816164E-02  0.1312668E+00
        -11   -1    0    0    0    0  0.00000000000E+00  0.00000000000E+00  0.45593999997E+02  0.45594000000E+02  0.51100000000E-03 0.  1.
         11   -1    0    0    0    0 -0.00000000000E+00 -0.00000000000E+00 -0.45593999997E+02  0.45594000000E+02  0.51100000000E-03 0. -1.
    9900012    2    1    2    0    0  0.27729825028E+02 -0.18311926229E+02 -0.27916920758E+02  0.47787259189E+02  0.19999945948E+02 0.  0.
        -12    1    1    2    0    0 -0.27729825028E+02  0.18311926229E+02  0.27916920758E+02  0.43400740811E+02  0.00000000000E+00 0.  1.
         11    1    3    3    0    0 -0.13045760689E+01  0.95589026471E+00 -0.30493785025E+01  0.34517176058E+01  0.51100000000E-03 0. -1.
        -11    1    3    3    0    0  0.55688544081E+00  0.14061961151E+01 -0.94055142879E+00  0.17810519812E+01  0.51100000000E-03 0.  1.
         12    1    3    3    0    0  0.28477515656E+02 -0.20674012609E+02 -0.23926990826E+02  0.42554489602E+02  0.00000000000E+00 0. -1.
</event>
<event>
 7    1  0.2714068E-010  0.4778727E+02  0.7816164E-02  0.1312668E+00
        -11   -1    0    0    0    0  0.00000000000E+00  0.00000000000E+00  0.45593999997E+02  0.45594000000E+02  0.51100000000E-03 0.  1.
         11   -1    0    0    0    0 -0.00000000000E+00 -0.00000000000E+00 -0.45593999997E+02  0.45594000000E+02  0.51100000000E-03 0. -1.
    9900012    2    1    2    0    0 -0.56149029886E+01  0.36371856908E+02 -0.23003997966E+02  0.47787273820E+02  0.20000012655E+02 0.  0.
        -12    1    1    2    0    0  0.56149029886E+01 -0.36371856908E+02  0.23003997966E+02  0.43400726180E+02  0.00000000000E+00 0.  1.
         11    1    3    3    0    0 -0.85570745206E+01  0.33870072936E+02 -0.16851151610E+02  0.38786166038E+02  0.51100000000E-03 0. -1.
        -11    1    3    3    0    0  0.24360884759E+01 -0.12733262370E+01 -0.23111297850E+01  0.35912682875E+01  0.51100000000E-03 0.  1.
         12    1    3    3    0    0  0.50608305610E+00  0.37751102088E+01 -0.38417165710E+01  0.54098394949E+01  0.00000000000E+00 0. -1.
</event>
<event>
 7    1  0.2714068E-010  0.4778727E+02  0.7816164E-02  0.1312668E+00
        -11   -1    0    0    0    0  0.00000000000E+00  0.00000000000E+00  0.45593999997E+02  0.45594000000E+02  0.51100000000E-03 0. -1.
         11   -1    0    0    0    0 -0.00000000000E+00 -0.00000000000E+00 -0.45593999997E+02  0.45594000000E+02  0.51100000000E-03 0.  1.
    9900012    2    1    2    0    0 -0.33351727742E+02 -0.22167917508E+02  0.16729293435E+02  0.47787267646E+02  0.19999984507E+02 0.  0.
        -12    1    1    2    0    0  0.33351727742E+02  0.22167917508E+02 -0.16729293435E+02  0.43400732354E+02  0.00000000000E+00 0.  1.
         11    1    3    3    0    0 -0.10999607368E+02 -0.60956295821E+01  0.64304486180E+01  0.14124402003E+02  0.51100000000E-03 0. -1.
        -11    1    3    3    0    0 -0.95685398172E+01 -0.12408554877E+01  0.10257605657E+02  0.14082441218E+02  0.51100000000E-03 0.  1.
        -12    1    3    3    0    0 -0.12783580557E+02 -0.14831432438E+02  0.41239159846E-01  0.19580424426E+02  0.00000000000E+00 0.  1.
</event>
<event>
 7    1  0.2714068E-010  0.4778728E+02  0.7816164E-02  0.1312668E+00
        -11   -1    0    0    0    0  0.00000000000E+00  0.00000000000E+00  0.45593999997E+02  0.45594000000E+02  0.51100000000E-03 0. -1.
         11   -1    0    0    0    0 -0.00000000000E+00 -0.00000000000E+00 -0.45593999997E+02  0.45594000000E+02  0.51100000000E-03 0.  1.
    9900012    2    1    2    0    0 -0.17785381867E+02  0.16046657954E+02  0.36191259257E+02  0.47787282422E+02  0.20000051876E+02 0.  0.
        -12    1    1    2    0    0  0.17785381867E+02 -0.16046657954E+02 -0.36191259257E+02  0.43400717578E+02  0.00000000000E+00 0.  1.
         11    1    3    3    0    0 -0.10802554792E+02  0.20362065699E+00  0.23725788021E+02  0.26070091463E+02  0.51100000000E-03 0. -1.
        -11    1    3    3    0    0 -0.18125061708E+01  0.76698685380E+01  0.73491756795E+01  0.10776012502E+02  0.51100000000E-03 0.  1.
         12    1    3    3    0    0 -0.51703209042E+01  0.81731687588E+01  0.51162955565E+01  0.10941178457E+02  0.00000000000E+00 0. -1.
</event>
<event>
 7    1  0.2714068E-010  0.4778727E+02  0.7816164E-02  0.1312668E+00
        -11   -1    0    0    0    0  0.00000000000E+00  0.00000000000E+00  0.45593999997E+02  0.45594000000E+02  0.51100000000E-03 0. -1.
         11   -1    0    0    0    0 -0.00000000000E+00 -0.00000000000E+00 -0.45593999997E+02  0.45594000000E+02  0.51100000000E-03 0.  1.
    9900012    2    1    2    0    0 -0.96347014238E+01  0.27101293723E+02  0.32501010190E+02  0.47787271247E+02  0.20000000921E+02 0.  0.
        -12    1    1    2    0    0  0.96347014238E+01 -0.27101293723E+02 -0.32501010190E+02  0.43400728753E+02  0.00000000000E+00 0.  1.
         11    1    3    3    0    0 -0.45269460697E+01  0.41301688185E+01 -0.11723617722E+01  0.62390678449E+01  0.51100000000E-03 0. -1.
        -11    1    3    3    0    0 -0.65857323427E+00  0.49091741612E+00  0.56583386805E-02  0.82143222012E+00  0.51100000000E-03 0.  1.
         12    1    3    3    0    0 -0.44491821198E+01  0.22480207488E+02  0.33667713623E+02  0.40726771182E+02  0.00000000000E+00 0. -1.
</event>
<event>
 7    1  0.2714068E-010  0.4778727E+02  0.7816164E-02  0.1312668E+00
        -11   -1    0    0    0    0  0.00000000000E+00  0.00000000000E+00  0.45593999997E+02  0.45594000000E+02  0.51100000000E-03 0.  1.
         11   -1    0    0    0    0 -0.00000000000E+00 -0.00000000000E+00 -0.45593999997E+02  0.45594000000E+02  0.51100000000E-03 0. -1.
    9900012    2    1    2    0    0 -0.10674991888E+02  0.36185590555E+02 -0.21453927935E+02  0.47787269137E+02  0.19999991302E+02 0.  0.
        -12    1    1    2    0    0  0.10674991888E+02 -0.36185590555E+02  0.21453927935E+02  0.43400730863E+02  0.00000000000E+00 0.  1.
         11    1    3    3    0    0 -0.52129604168E+01  0.79347637285E+01 -0.27223960004E+01  0.98765819987E+01  0.51100000000E-03 0. -1.
        -11    1    3    3    0    0 -0.51515585771E+01  0.38301580045E+01 -0.10178401530E+02  0.12033641348E+02  0.51100000000E-03 0.  1.
        -12    1    3    3    0    0 -0.31047289456E+00  0.24420668822E+02 -0.85531304049E+01  0.25877045790E+02  0.00000000000E+00 0.  1.
</event>
<event>
 7    1  0.2714068E-010  0.4778727E+02  0.7816164E-02  0.1312668E+00
        -11   -1    0    0    0    0  0.00000000000E+00  0.00000000000E+00  0.45593999997E+02  0.45594000000E+02  0.51100000000E-03 0. -1.
         11   -1    0    0    0    0 -0.00000000000E+00 -0.00000000000E+00 -0.45593999997E+02  0.45594000000E+02  0.51100000000E-03 0.  1.
    9900012    2    1    2    0    0  0.37470708156E+02 -0.20394423502E+02 -0.79772916906E+01  0.47787266568E+02  0.19999979591E+02 0.  0.
        -12    1    1    2    0    0 -0.37470708156E+02  0.20394423502E+02  0.79772916906E+01  0.43400733432E+02  0.00000000000E+00 0.  1.
         11    1    3    3    0    0  0.36217162536E+02 -0.15274265813E+02 -0.43288812148E+01  0.39543966305E+02  0.51100000000E-03 0. -1.
        -11    1    3    3    0    0  0.27201413095E+00 -0.11215100694E+01 -0.39497965359E+01  0.41149324975E+01  0.51100000000E-03 0.  1.
         12    1    3    3    0    0  0.98153148835E+00 -0.39986476196E+01  0.30138605998E+00  0.41283677653E+01  0.00000000000E+00 0. -1.
</event>
<event>
 7    1  0.2714068E-010  0.4778727E+02  0.7816164E-02  0.1312668E+00
        -11   -1    0    0    0    0  0.00000000000E+00  0.00000000000E+00  0.45593999997E+02  0.45594000000E+02  0.51100000000E-03 0. -1.
         11   -1    0    0    0    0 -0.00000000000E+00 -0.00000000000E+00 -0.45593999997E+02  0.45594000000E+02  0.51100000000E-03 0.  1.
    9900012    2    1    2    0    0  0.15125929736E+02  0.27342151029E+02 -0.30120361454E+02  0.47787272501E+02  0.20000006642E+02 0.  0.
        -12    1    1    2    0    0 -0.15125929736E+02 -0.27342151029E+02  0.30120361454E+02  0.43400727499E+02  0.00000000000E+00 0.  1.
         11    1    3    3    0    0 -0.78866196106E+00  0.36915629460E+01  0.21341486315E+01  0.43363827455E+01  0.51100000000E-03 0. -1.
        -11    1    3    3    0    0  0.55938028473E+01  0.86592448380E+01 -0.16086277949E+02  0.19106058986E+02  0.51100000000E-03 0.  1.
         12    1    3    3    0    0  0.10320788850E+02  0.14991343245E+02 -0.16168232136E+02  0.24344830770E+02  0.00000000000E+00 0. -1.
</event>
<event>
 7    1  0.2714068E-010  0.4778727E+02  0.7816164E-02  0.1312668E+00
        -11   -1    0    0    0    0  0.00000000000E+00  0.00000000000E+00  0.45593999997E+02  0.45594000000E+02  0.51100000000E-03 0.  1.
         11   -1    0    0    0    0 -0.00000000000E+00 -0.00000000000E+00 -0.45593999997E+02  0.45594000000E+02  0.51100000000E-03 0. -1.
    9900012    2    1    2    0    0 -0.15816619196E+02 -0.39445598666E+01 -0.40223106083E+02  0.47787271224E+02  0.20000000818E+02 0.  0.
        -12    1    1    2    0    0  0.15816619196E+02  0.39445598666E+01  0.40223106083E+02  0.43400728776E+02  0.00000000000E+00 0.  1.
         11    1    3    3    0    0  0.28250219097E+01 -0.17944910200E+01 -0.17364345151E+02  0.17683931395E+02  0.51100000000E-03 0. -1.
        -11    1    3    3    0    0 -0.13233698004E+02 -0.32007074073E+01 -0.19010925297E+02  0.23383553444E+02  0.51100000000E-03 0.  1.
         12    1    3    3    0    0 -0.54079431018E+01  0.10506385607E+01 -0.38478356352E+01  0.67197863845E+01  0.00000000000E+00 0. -1.
</event>
<event>
 7    1  0.2714068E-010  0.4778727E+02  0.7816164E-02  0.1312668E+00
        -11   -1    0    0    0    0  0.00000000000E+00  0.00000000000E+00  0.45593999997E+02  0.45594000000E+02  0.51100000000E-03 0. -1.
         11   -1    0    0    0    0 -0.00000000000E+00 -0.00000000000E+00 -0.45593999997E+02  0.45594000000E+02  0.51100000000E-03 0.  1.
    9900012    2    1    2    0    0 -0.41236528470E+02  0.35997513981E+01  0.13046596483E+02  0.47787272239E+02  0.20000005445E+02 0.  0.
        -12    1    1    2    0    0  0.41236528470E+02 -0.35997513981E+01 -0.13046596483E+02  0.43400727761E+02  0.00000000000E+00 0.  1.
         11    1    3    3    0    0 -0.21900999995E+02  0.38209035587E+01  0.88355827632E+01  0.23923223608E+02  0.51100000000E-03 0. -1.
        -11    1    3    3    0    0 -0.13371639148E+01  0.45247731329E+01 -0.24486020741E+00  0.47245672840E+01  0.51100000000E-03 0.  1.
        -12    1    3    3    0    0 -0.17998364561E+02 -0.47459252935E+01  0.44558739273E+01  0.19139481346E+02  0.00000000000E+00 0.  1.
</event>
<event>
 7    1  0.2714068E-010  0.4778727E+02  0.7816164E-02  0.1312668E+00
        -11   -1    0    0    0    0  0.00000000000E+00  0.00000000000E+00  0.45593999997E+02  0.45594000000E+02  0.51100000000E-03 0.  1.
         11   -1    0    0    0    0 -0.00000000000E+00 -0.00000000000E+00 -0.45593999997E+02  0.45594000000E+02  0.51100000000E-03 0. -1.
    9900012    2    1    2    0    0  0.18333553460E+02  0.21530466268E+02 -0.32923293242E+02  0.47787269613E+02  0.19999993473E+02 0.  0.
        -12    1    1    2    0    0 -0.18333553460E+02 -0.21530466268E+02  0.32923293242E+02  0.43400730387E+02  0.00000000000E+00 0.  1.
         11    1    3    3    0    0  0.15591782450E+02  0.18815022576E+02 -0.26600783973E+02  0.36120776054E+02  0.51100000000E-03 0. -1.
        -11    1    3    3    0    0  0.11054223123E+01 -0.30191267892E+01 -0.43006390736E+01  0.53695979142E+01  0.51100000000E-03 0.  1.
        -12    1    3    3    0    0  0.16363486982E+01  0.57345704818E+01 -0.20218701952E+01  0.62968956446E+01  0.00000000000E+00 0.  1.
</event>
<event>
 7    1  0.2714068E-010  0.4778727E+02  0.7816164E-02  0.1312668E+00
        -11   -1    0    0    0    0  0.00000000000E+00  0.00000000000E+00  0.45593999997E+02  0.45594000000E+02  0.51100000000E-03 0. -1.
         11   -1    0    0    0    0 -0.00000000000E+00 -0.00000000000E+00 -0.45593999997E+02  0.45594000000E+02  0.51100000000E-03 0.  1.
    9900012    2    1    2    0    0 -0.31684831533E+02  0.26955814388E+02  0.12372492506E+02  0.47787273630E+02  0.20000011789E+02 0.  0.
        -12    1    1    2    0    0  0.31684831533E+02 -0.26955814388E+02 -0.12372492506E+02  0.43400726370E+02  0.00000000000E+00 0.  1.
         11    1    3    3    0    0 -0.99974473924E+01  0.93193388251E+01 -0.29883587292E+00  0.13670710795E+02  0.51100000000E-03 0. -1.
        -11    1    3    3    0    0  0.22346072321E+01  0.10367939912E+01  0.30534153843E+00  0.24822660973E+01  0.51100000000E-03 0.  1.
        -12    1    3    3    0    0 -0.23921991373E+02  0.16599681572E+02  0.12365986840E+02  0.31634296738E+02  0.00000000000E+00 0.  1.
</event>
<event>
 7    1  0.2714068E-010  0.4778727E+02  0.7816164E-02  0.1312668E+00
        -11   -1    0    0    0    0  0.00000000000E+00  0.00000000000E+00  0.45593999997E+02  0.45594000000E+02  0.51100000000E-03 0.  1.
         11   -1    0    0    0    0 -0.00000000000E+00 -0.00000000000E+00 -0.45593999997E+02  0.45594000000E+02  0.51100000000E-03 0. -1.
    9900012    2    1    2    0    0  0.62695517538E+01 -0.37311603159E+02 -0.21264062208E+02  0.47787270155E+02  0.19999995942E+02 0.  0.
        -12    1    1    2    0    0 -0.62695517538E+01  0.37311603159E+02  0.21264062208E+02  0.43400729845E+02  0.00000000000E+00 0.  1.
         11    1    3    3    0    0 -0.49843347870E+00 -0.27140102848E+02 -0.81204826400E+01  0.28333299439E+02  0.51100000000E-03 0. -1.
        -11    1    3    3    0    0  0.79472653415E+01 -0.10221762623E+02 -0.10925450722E+02  0.16941337942E+02  0.51100000000E-03 0.  1.
         12    1    3    3    0    0 -0.11792801089E+01  0.50262311408E-01 -0.22181288461E+01  0.25126327733E+01  0.00000000000E+00 0. -1.
</event>
<event>
 7    1  0.2714068E-010  0.4778727E+02  0.7816164E-02  0.1312668E+00
        -11   -1    0    0    0    0  0.00000000000E+00  0.00000000000E+00  0.45593999997E+02  0.45594000000E+02  0.51100000000E-03 0.  1.
         11   -1    0    0    0    0 -0.00000000000E+00 -0.00000000000E+00 -0.45593999997E+02  0.45594000000E+02  0.51100000000E-03 0. -1.
    9900012    2    1    2    0    0  0.36338876297E+02 -0.60291355167E+01 -0.22951229122E+02  0.47787270469E+02  0.19999997377E+02 0.  0.
        -12    1    1    2    0    0 -0.36338876297E+02  0.60291355167E+01  0.22951229122E+02  0.43400729531E+02  0.00000000000E+00 0.  1.
         11    1    3    3    0    0  0.14114089714E+02 -0.11250544138E+00 -0.17400944540E+02  0.22405647883E+02  0.51100000000E-03 0. -1.
        -11    1    3    3    0    0  0.11993880506E+02  0.38382314392E+00 -0.58770458805E+01  0.13361892020E+02  0.51100000000E-03 0.  1.
         12    1    3    3    0    0  0.10230906077E+02 -0.63004532192E+01  0.32676129921E+00  0.12019730566E+02  0.00000000000E+00 0. -1.
</event>
<event>
 7    1  0.2714068E-010  0.4778727E+02  0.7816164E-02  0.1312668E+00
        -11   -1    0    0    0    0  0.00000000000E+00  0.00000000000E+00  0.45593999997E+02  0.45594000000E+02  0.51100000000E-03 0.  1.
         11   -1    0    0    0    0 -0.00000000000E+00 -0.00000000000E+00 -0.45593999997E+02  0.45594000000E+02  0.51100000000E-03 0. -1.
    9900012    2    1    2    0    0  0.10980102326E+02  0.39483093150E+02 -0.14287965546E+02  0.47787271305E+02  0.20000001189E+02 0.  0.
        -12    1    1    2    0    0 -0.10980102326E+02 -0.39483093150E+02  0.14287965546E+02  0.43400728695E+02  0.00000000000E+00 0.  1.
         11    1    3    3    0    0  0.73886044639E+01  0.29975652409E+02 -0.99620815442E+01  0.32440318775E+02  0.51100000000E-03 0. -1.
        -11    1    3    3    0    0 -0.37913359555E+01  0.32818290757E+01 -0.86686453165E+00  0.50888195868E+01  0.51100000000E-03 0.  1.
         12    1    3    3    0    0  0.73828338175E+01  0.62256116650E+01 -0.34590194705E+01  0.10258132943E+02  0.00000000000E+00 0. -1.
</event>
<event>
 7    1  0.2714068E-010  0.4778727E+02  0.7816164E-02  0.1312668E+00
        -11   -1    0    0    0    0  0.00000000000E+00  0.00000000000E+00  0.45593999997E+02  0.45594000000E+02  0.51100000000E-03 0.  1.
         11   -1    0    0    0    0 -0.00000000000E+00 -0.00000000000E+00 -0.45593999997E+02  0.45594000000E+02  0.51100000000E-03 0. -1.
    9900012    2    1    2    0    0  0.20939954953E+02  0.27060417363E+02 -0.26699723560E+02  0.47787272593E+02  0.20000007059E+02 0.  0.
        -12    1    1    2    0    0 -0.20939954953E+02 -0.27060417363E+02  0.26699723560E+02  0.43400727407E+02  0.00000000000E+00 0.  1.
         11    1    3    3    0    0  0.23306057032E+01  0.10971748375E+02 -0.76875427497E+01  0.13598135870E+02  0.51100000000E-03 0. -1.
        -11    1    3    3    0    0  0.17248238673E+02  0.15644572908E+02 -0.10477022758E+02  0.25534729389E+02  0.51100000000E-03 0.  1.
        -12    1    3    3    0    0  0.13611105762E+01  0.44409607987E+00 -0.85351580523E+01  0.86544073342E+01  0.00000000000E+00 0.  1.
</event>
<event>
 7    1  0.2714068E-010  0.4778727E+02  0.7816164E-02  0.1312668E+00
        -11   -1    0    0    0    0  0.00000000000E+00  0.00000000000E+00  0.45593999997E+02  0.45594000000E+02  0.51100000000E-03 0.  1.
         11   -1    0    0    0    0 -0.00000000000E+00 -0.00000000000E+00 -0.45593999997E+02  0.45594000000E+02  0.51100000000E-03 0. -1.
    9900012    2    1    2    0    0 -0.29128801292E+02  0.31733636055E+02 -0.53021271400E+01  0.47787271041E+02  0.19999999984E+02 0.  0.
        -12    1    1    2    0    0  0.29128801292E+02 -0.31733636055E+02  0.53021271400E+01  0.43400728959E+02  0.00000000000E+00 0.  1.
         11    1    3    3    0    0  0.11597158425E+01  0.46513775691E+01  0.17862186626E+01  0.51157434941E+01  0.51100000000E-03 0.  1.
        -11    1    3    3    0    0 -0.20492095359E+02  0.12859522193E+02 -0.77057879920E+01  0.25390400786E+02  0.51100000000E-03 0. -1.
         12    1    3    3    0    0 -0.97964217749E+01  0.14222736294E+02  0.61744218937E+00  0.17281126761E+02  0.00000000000E+00 0. -1.
</event>
<event>
 7    1  0.2714068E-010  0.4778727E+02  0.7816164E-02  0.1312668E+00
        -11   -1    0    0    0    0  0.00000000000E+00  0.00000000000E+00  0.45593999997E+02  0.45594000000E+02  0.51100000000E-03 0. -1.
         11   -1    0    0    0    0 -0.00000000000E+00 -0.00000000000E+00 -0.45593999997E+02  0.45594000000E+02  0.51100000000E-03 0.  1.
    9900012    2    1    2    0    0  0.34884276869E+01  0.38321056206E+02  0.20073638971E+02  0.47787268923E+02  0.19999990327E+02 0.  0.
        -12    1    1    2    0    0 -0.34884276869E+01 -0.38321056206E+02 -0.20073638971E+02  0.43400731077E+02  0.00000000000E+00 0.  1.
         11    1    3    3    0    0  0.21070055072E+01  0.64919505835E+01  0.11050416239E+02  0.12988325293E+02  0.51100000000E-03 0. -1.
        -11    1    3    3    0    0  0.49020925351E+01  0.27272564718E+02  0.62408288659E+01  0.28403718819E+02  0.51100000000E-03 0.  1.
        -12    1    3    3    0    0 -0.35206703555E+01  0.45565409049E+01  0.27823938656E+01  0.63952248118E+01  0.00000000000E+00 0.  1.
</event>
<event>
 7    1  0.2714068E-010  0.4778727E+02  0.7816164E-02  0.1312668E+00
        -11   -1    0    0    0    0  0.00000000000E+00  0.00000000000E+00  0.45593999997E+02  0.45594000000E+02  0.51100000000E-03 0.  1.
         11   -1    0    0    0    0 -0.00000000000E+00 -0.00000000000E+00 -0.45593999997E+02  0.45594000000E+02  0.51100000000E-03 0. -1.
    9900012    2    1    2    0    0 -0.41776789924E+02  0.31987070796E+01  0.11317750470E+02  0.47787269833E+02  0.19999994477E+02 0.  0.
        -12    1    1    2    0    0  0.41776789924E+02 -0.31987070796E+01 -0.11317750470E+02  0.43400730167E+02  0.00000000000E+00 0.  1.
         11    1    3    3    0    0 -0.12582699915E+02  0.38307888062E+01  0.11316331270E+02  0.17351041285E+02  0.51100000000E-03 0.  1.
        -11    1    3    3    0    0 -0.20751122738E+02  0.13093920869E+01  0.35152125165E+01  0.21087444649E+02  0.51100000000E-03 0. -1.
         12    1    3    3    0    0 -0.84429672712E+01 -0.19414738136E+01 -0.35137933165E+01  0.93487838985E+01  0.00000000000E+00 0. -1.
</event>
<event>
 7    1  0.2714068E-010  0.4778727E+02  0.7816164E-02  0.1312668E+00
        -11   -1    0    0    0    0  0.00000000000E+00  0.00000000000E+00  0.45593999997E+02  0.45594000000E+02  0.51100000000E-03 0.  1.
         11   -1    0    0    0    0 -0.00000000000E+00 -0.00000000000E+00 -0.45593999997E+02  0.45594000000E+02  0.51100000000E-03 0. -1.
    9900012    2    1    2    0    0 -0.27536777741E+00  0.26545251140E+02 -0.34335072261E+02  0.47787269906E+02  0.19999994811E+02 0.  0.
        -12    1    1    2    0    0  0.27536777741E+00 -0.26545251140E+02  0.34335072261E+02  0.43400730094E+02  0.00000000000E+00 0.  1.
         11    1    3    3    0    0 -0.44040356923E+01  0.19690380366E+02 -0.26445792803E+02  0.33263892836E+02  0.51100000000E-03 0. -1.
        -11    1    3    3    0    0  0.42871949923E+01 -0.92314602271E+00 -0.33272096778E+01  0.55047764698E+01  0.51100000000E-03 0.  1.
         12    1    3    3    0    0 -0.15852707746E+00  0.77780167963E+01 -0.45620697801E+01  0.90186006008E+01  0.00000000000E+00 0. -1.
</event>
<event>
 7    1  0.2714068E-010  0.4778731E+02  0.7816164E-02  0.1312668E+00
        -11   -1    0    0    0    0  0.00000000000E+00  0.00000000000E+00  0.45593999997E+02  0.45594000000E+02  0.51100000000E-03 0.  1.
         11   -1    0    0    0    0 -0.00000000000E+00 -0.00000000000E+00 -0.45593999997E+02  0.45594000000E+02  0.51100000000E-03 0. -1.
    9900012    2    1    2    0    0  0.27888609169E+02 -0.19805657351E+01 -0.33195225358E+02  0.47787307049E+02  0.20000164160E+02 0.  0.
        -12    1    1    2    0    0 -0.27888609169E+02  0.19805657351E+01  0.33195225358E+02  0.43400692951E+02  0.00000000000E+00 0.  1.
         11    1    3    3    0    0  0.18517548148E+02 -0.12080543430E+01 -0.22713597460E+02  0.29330299940E+02  0.51100000000E-03 0. -1.
        -11    1    3    3    0    0 -0.13638365844E+01 -0.84026592950E+00 -0.69856864252E+01  0.71670016153E+01  0.51100000000E-03 0.  1.
        -12    1    3    3    0    0  0.10734897606E+02  0.67754537423E-01 -0.34959414728E+01  0.11290005494E+02  0.00000000000E+00 0.  1.
</event>
<event>
 7    1  0.2714068E-010  0.4778727E+02  0.7816164E-02  0.1312668E+00
        -11   -1    0    0    0    0  0.00000000000E+00  0.00000000000E+00  0.45593999997E+02  0.45594000000E+02  0.51100000000E-03 0.  1.
         11   -1    0    0    0    0 -0.00000000000E+00 -0.00000000000E+00 -0.45593999997E+02  0.45594000000E+02  0.51100000000E-03 0. -1.
    9900012    2    1    2    0    0  0.27007451844E+02  0.32514896296E+02 -0.98489796158E+01  0.47787270333E+02  0.19999996754E+02 0.  0.
        -12    1    1    2    0    0 -0.27007451844E+02 -0.32514896296E+02  0.98489796158E+01  0.43400729667E+02  0.00000000000E+00 0.  1.
         11    1    3    3    0    0  0.27766320232E+01  0.59493839909E+01 -0.41006080069E+01  0.77407907575E+01  0.51100000000E-03 0. -1.
        -11    1    3    3    0    0  0.15166086226E+02  0.20990136546E+02 -0.11052414437E+02  0.28155849638E+02  0.51100000000E-03 0.  1.
        -12    1    3    3    0    0  0.90647335944E+01  0.55753757581E+01  0.53040428286E+01  0.11890629937E+02  0.00000000000E+00 0.  1.
</event>
<event>
 7    1  0.2714068E-010  0.4778728E+02  0.7816164E-02  0.1312668E+00
        -11   -1    0    0    0    0  0.00000000000E+00  0.00000000000E+00  0.45593999997E+02  0.45594000000E+02  0.51100000000E-03 0.  1.
         11   -1    0    0    0    0 -0.00000000000E+00 -0.00000000000E+00 -0.45593999997E+02  0.45594000000E+02  0.51100000000E-03 0. -1.
    9900012    2    1    2    0    0  0.40617688810E+02 -0.99118386295E+01 -0.11643932188E+02  0.47787281733E+02  0.20000048733E+02 0.  0.
        -12    1    1    2    0    0 -0.40617688810E+02  0.99118386295E+01  0.11643932188E+02  0.43400718267E+02  0.00000000000E+00 0.  1.
         11    1    3    3    0    0  0.29136163866E+02  0.15129069506E+01 -0.35356697771E+01  0.29388873631E+02  0.51100000000E-03 0. -1.
        -11    1    3    3    0    0  0.63900819888E+01 -0.59630801592E+01 -0.61250491181E+01  0.10672755022E+02  0.51100000000E-03 0.  1.
         12    1    3    3    0    0  0.50914429549E+01 -0.54616654209E+01 -0.19832132930E+01  0.77256530791E+01  0.00000000000E+00 0. -1.
</event>
<event>
 7    1  0.2714068E-010  0.4778724E+02  0.7816164E-02  0.1312668E+00
        -11   -1    0    0    0    0  0.00000000000E+00  0.00000000000E+00  0.45593999997E+02  0.45594000000E+02  0.51100000000E-03 0. -1.
         11   -1    0    0    0    0 -0.00000000000E+00 -0.00000000000E+00 -0.45593999997E+02  0.45594000000E+02  0.51100000000E-03 0.  1.
    9900012    2    1    2    0    0  0.22698508082E+02 -0.26305977270E+02  0.26007669514E+02  0.47787244444E+02  0.19999878719E+02 0.  0.
        -12    1    1    2    0    0 -0.22698508082E+02  0.26305977270E+02 -0.26007669514E+02  0.43400755556E+02  0.00000000000E+00 0.  1.
         11    1    3    3    0    0  0.14623890704E+02 -0.24653422195E+02  0.23275484384E+02  0.36924213991E+02  0.51100000000E-03 0. -1.
        -11    1    3    3    0    0  0.42045868065E+01 -0.10157268417E+01 -0.19588606581E+01  0.47484088461E+01  0.51100000000E-03 0.  1.
         12    1    3    3    0    0  0.38700305713E+01 -0.63682823311E+00  0.46910457881E+01  0.61146216078E+01  0.00000000000E+00 0. -1.
</event>
<event>
 7    1  0.2714068E-010  0.4778727E+02  0.7816164E-02  0.1312668E+00
        -11   -1    0    0    0    0  0.00000000000E+00  0.00000000000E+00  0.45593999997E+02  0.45594000000E+02  0.51100000000E-03 0. -1.
         11   -1    0    0    0    0 -0.00000000000E+00 -0.00000000000E+00 -0.45593999997E+02  0.45594000000E+02  0.51100000000E-03 0.  1.
    9900012    2    1    2    0    0  0.39171047485E+02  0.13907274899E+02 -0.12483584157E+02  0.47787272707E+02  0.20000007578E+02 0.  0.
        -12    1    1    2    0    0 -0.39171047485E+02 -0.13907274899E+02  0.12483584157E+02  0.43400727293E+02  0.00000000000E+00 0.  1.
         11    1    3    3    0    0  0.24694743026E+02  0.21089256916E+01 -0.92245264414E+01  0.26445600561E+02  0.51100000000E-03 0. -1.
        -11    1    3    3    0    0  0.12497764673E+01  0.66695658118E+01  0.16638381203E-02  0.67856504748E+01  0.51100000000E-03 0.  1.
         12    1    3    3    0    0  0.13226527991E+02  0.51287833960E+01 -0.32607215534E+01  0.14556021671E+02  0.00000000000E+00 0. -1.
</event>
<event>
 7    1  0.2714068E-010  0.4778727E+02  0.7816164E-02  0.1312668E+00
        -11   -1    0    0    0    0  0.00000000000E+00  0.00000000000E+00  0.45593999997E+02  0.45594000000E+02  0.51100000000E-03 0.  1.
         11   -1    0    0    0    0 -0.00000000000E+00 -0.00000000000E+00 -0.45593999997E+02  0.45594000000E+02  0.51100000000E-03 0. -1.
    9900012    2    1    2    0    0  0.40645749288E+02 -0.31912225835E+01 -0.14878248059E+02  0.47787273024E+02  0.20000009026E+02 0.  0.
        -12    1    1    2    0    0 -0.40645749288E+02  0.31912225835E+01  0.14878248059E+02  0.43400726976E+02  0.00000000000E+00 0.  1.
         11    1    3    3    0    0  0.21079891413E+02 -0.17018226481E+01 -0.15034983581E+02  0.25948193653E+02  0.51100000000E-03 0. -1.
        -11    1    3    3    0    0  0.15713473440E+01 -0.31179958520E+01 -0.12686049766E+01  0.37148875429E+01  0.51100000000E-03 0.  1.
         12    1    3    3    0    0  0.17994510530E+02  0.16285959166E+01  0.14253404981E+01  0.18124191828E+02  0.00000000000E+00 0. -1.
</event>
<event>
 7    1  0.2755257E-010  0.4778727E+02  0.7816164E-02  0.1312668E+00
        -11   -1    0    0    0    0  0.00000000000E+00  0.00000000000E+00  0.45593999997E+02  0.45594000000E+02  0.51100000000E-03 0. -1.
         11   -1    0    0    0    0 -0.00000000000E+00 -0.00000000000E+00 -0.45593999997E+02  0.45594000000E+02  0.51100000000E-03 0.  1.
    9900012    2    1    2    0    0  0.48533679587E+01  0.21855652734E+02  0.37180618571E+02  0.47787272653E+02  0.20000007334E+02 0.  0.
        -12    1    1    2    0    0 -0.48533679587E+01 -0.21855652734E+02 -0.37180618571E+02  0.43400727347E+02  0.00000000000E+00 0.  1.
         11    1    3    3    0    0  0.60906068357E+01  0.16939265608E+02  0.27067378405E+02  0.32506571412E+02  0.51100000000E-03 0. -1.
        -11    1    3    3    0    0 -0.36088406303E+01  0.19614360935E+01 -0.37939497416E+00  0.41249124902E+01  0.51100000000E-03 0.  1.
        -12    1    3    3    0    0  0.23716017533E+01  0.29549510319E+01  0.10492635140E+02  0.11155788751E+02  0.00000000000E+00 0.  1.
</event>
<event>
 7    1  0.2714068E-010  0.4778727E+02  0.7816164E-02  0.1312668E+00
        -11   -1    0    0    0    0  0.00000000000E+00  0.00000000000E+00  0.45593999997E+02  0.45594000000E+02  0.51100000000E-03 0.  1.
         11   -1    0    0    0    0 -0.00000000000E+00 -0.00000000000E+00 -0.45593999997E+02  0.45594000000E+02  0.51100000000E-03 0. -1.
    9900012    2    1    2    0    0 -0.10374420050E+02 -0.12201341778E+01 -0.42124884830E+02  0.47787271426E+02  0.20000001740E+02 0.  0.
        -12    1    1    2    0    0  0.10374420050E+02  0.12201341778E+01  0.42124884830E+02  0.43400728574E+02  0.00000000000E+00 0.  1.
         11    1    3    3    0    0  0.30323542260E+00  0.42932752491E+01 -0.73930586053E+00  0.43670055533E+01  0.51100000000E-03 0. -1.
        -11    1    3    3    0    0 -0.11232543153E+02 -0.53821098795E+01 -0.38062162812E+02  0.40048287986E+02  0.51100000000E-03 0.  1.
        -12    1    3    3    0    0  0.55488768026E+00 -0.13129954743E+00 -0.33234161578E+01  0.33719778865E+01  0.00000000000E+00 0.  1.
</event>
<event>
 7    1  0.2714068E-010  0.4778727E+02  0.7816164E-02  0.1312668E+00
        -11   -1    0    0    0    0  0.00000000000E+00  0.00000000000E+00  0.45593999997E+02  0.45594000000E+02  0.51100000000E-03 0. -1.
         11   -1    0    0    0    0 -0.00000000000E+00 -0.00000000000E+00 -0.45593999997E+02  0.45594000000E+02  0.51100000000E-03 0.  1.
    9900012    2    1    2    0    0  0.40651720766E+02  0.15180117591E+02 -0.79071145853E+00  0.47787267334E+02  0.19999983083E+02 0.  0.
        -12    1    1    2    0    0 -0.40651720766E+02 -0.15180117591E+02  0.79071145853E+00  0.43400732666E+02  0.00000000000E+00 0.  1.
         11    1    3    3    0    0  0.31246138470E+02  0.86881478106E+01 -0.49010498391E+01  0.32799777003E+02  0.51100000000E-03 0. -1.
        -11    1    3    3    0    0  0.32166284396E+01 -0.15461020336E+01  0.32149007512E+01  0.48034068241E+01  0.51100000000E-03 0.  1.
         12    1    3    3    0    0  0.61889538564E+01  0.80380718139E+01  0.89543762945E+00  0.10184083507E+02  0.00000000000E+00 0. -1.
</event>
<event>
 7    1  0.2714068E-010  0.4778727E+02  0.7816164E-02  0.1312668E+00
        -11   -1    0    0    0    0  0.00000000000E+00  0.00000000000E+00  0.45593999997E+02  0.45594000000E+02  0.51100000000E-03 0. -1.
         11   -1    0    0    0    0 -0.00000000000E+00 -0.00000000000E+00 -0.45593999997E+02  0.45594000000E+02  0.51100000000E-03 0.  1.
    9900012    2    1    2    0    0 -0.21311977612E+02 -0.23572731579E+02  0.29559248181E+02  0.47787271702E+02  0.20000002997E+02 0.  0.
        -12    1    1    2    0    0  0.21311977612E+02  0.23572731579E+02 -0.29559248181E+02  0.43400728298E+02  0.00000000000E+00 0.  1.
         11    1    3    3    0    0 -0.15019372120E+02 -0.17081363890E+02  0.11270680600E+02  0.25384695639E+02  0.51100000000E-03 0. -1.
        -11    1    3    3    0    0  0.97769478244E+00 -0.41308195270E+01  0.26727669763E+01  0.50162975014E+01  0.51100000000E-03 0.  1.
         12    1    3    3    0    0 -0.72703002740E+01 -0.23605481617E+01  0.15615800604E+02  0.17386278561E+02  0.00000000000E+00 0. -1.
</event>
<event>
 7    1  0.2714068E-010  0.4778726E+02  0.7816164E-02  0.1312668E+00
        -11   -1    0    0    0    0  0.00000000000E+00  0.00000000000E+00  0.45593999997E+02  0.45594000000E+02  0.51100000000E-03 0. -1.
         11   -1    0    0    0    0 -0.00000000000E+00 -0.00000000000E+00 -0.45593999997E+02  0.45594000000E+02  0.51100000000E-03 0.  1.
    9900012    2    1    2    0    0 -0.17565245209E+02  0.28193131334E+02  0.27932660887E+02  0.47787262242E+02  0.19999959868E+02 0.  0.
        -12    1    1    2    0    0  0.17565245209E+02 -0.28193131334E+02 -0.27932660887E+02  0.43400737758E+02  0.00000000000E+00 0.  1.
         11    1    3    3    0    0 -0.33634139579E+01  0.95811095467E+01  0.16025345246E+02  0.18971607842E+02  0.51100000000E-03 0. -1.
        -11    1    3    3    0    0 -0.78767034977E+01  0.11300839910E+02  0.39247076796E+00  0.13780619516E+02  0.51100000000E-03 0.  1.
         12    1    3    3    0    0 -0.63251277536E+01  0.73111818766E+01  0.11514844873E+02  0.15035034885E+02  0.00000000000E+00 0. -1.
</event>
<event>
 7    1  0.2714068E-010  0.4778727E+02  0.7816164E-02  0.1312668E+00
        -11   -1    0    0    0    0  0.00000000000E+00  0.00000000000E+00  0.45593999997E+02  0.45594000000E+02  0.51100000000E-03 0.  1.
         11   -1    0    0    0    0 -0.00000000000E+00 -0.00000000000E+00 -0.45593999997E+02  0.45594000000E+02  0.51100000000E-03 0. -1.
    9900012    2    1    2    0    0 -0.20722541534E+02 -0.31856265098E+02 -0.20961346625E+02  0.47787269523E+02  0.19999993065E+02 0.  0.
        -12    1    1    2    0    0  0.20722541534E+02  0.31856265098E+02  0.20961346625E+02  0.43400730477E+02  0.00000000000E+00 0.  1.
         11    1    3    3    0    0 -0.49297703300E+01 -0.77459193342E+01 -0.63800634357E+01  0.11180657921E+02  0.51100000000E-03 0. -1.
        -11    1    3    3    0    0 -0.65681291851E+01 -0.16316438062E+02  0.10968336903E+00  0.17589158670E+02  0.51100000000E-03 0.  1.
        -12    1    3    3    0    0 -0.92246420184E+01 -0.77939077016E+01 -0.14690966558E+02  0.19017452932E+02  0.00000000000E+00 0.  1.
</event>
<event>
 7    1  0.2714068E-010  0.4778726E+02  0.7816164E-02  0.1312668E+00
        -11   -1    0    0    0    0  0.00000000000E+00  0.00000000000E+00  0.45593999997E+02  0.45594000000E+02  0.51100000000E-03 0. -1.
         11   -1    0    0    0    0 -0.00000000000E+00 -0.00000000000E+00 -0.45593999997E+02  0.45594000000E+02  0.51100000000E-03 0.  1.
    9900012    2    1    2    0    0  0.14936673763E+01 -0.86123504398E+01  0.42511419107E+02  0.47787258338E+02  0.19999942064E+02 0.  0.
        -12    1    1    2    0    0 -0.14936673763E+01  0.86123504398E+01 -0.42511419107E+02  0.43400741662E+02  0.00000000000E+00 0.  1.
         11    1    3    3    0    0  0.84578911364E+01 -0.26696371747E+01  0.25296279442E+02  0.26806056013E+02  0.51100000000E-03 0. -1.
        -11    1    3    3    0    0 -0.45927111615E+01 -0.10245757771E+01  0.13704647012E+02  0.14490000045E+02  0.51100000000E-03 0.  1.
         12    1    3    3    0    0 -0.23715125986E+01 -0.49181374880E+01  0.35104926538E+01  0.64912022791E+01  0.00000000000E+00 0. -1.
</event>
<event>
 7    1  0.2714068E-010  0.4778727E+02  0.7816164E-02  0.1312668E+00
        -11   -1    0    0    0    0  0.00000000000E+00  0.00000000000E+00  0.45593999997E+02  0.45594000000E+02  0.51100000000E-03 0. -1.
         11   -1    0    0    0    0 -0.00000000000E+00 -0.00000000000E+00 -0.45593999997E+02  0.45594000000E+02  0.51100000000E-03 0.  1.
    9900012    2    1    2    0    0 -0.37453168426E+02 -0.19753753438E+02 -0.95222196998E+01  0.47787271111E+02  0.20000000304E+02 0.  0.
        -12    1    1    2    0    0  0.37453168426E+02  0.19753753438E+02  0.95222196998E+01  0.43400728889E+02  0.00000000000E+00 0.  1.
         11    1    3    3    0    0 -0.35884165518E+02 -0.15600783669E+02 -0.47302444364E+01  0.39413614383E+02  0.51100000000E-03 0. -1.
        -11    1    3    3    0    0 -0.19692748131E+00 -0.39807889644E+01 -0.69010006899E+00  0.40449597746E+01  0.51100000000E-03 0.  1.
         12    1    3    3    0    0 -0.13720754272E+01 -0.17218080486E+00 -0.41018751944E+01  0.43286969538E+01  0.00000000000E+00 0. -1.
</event>
<event>
 7    1  0.2984707E-010  0.4778727E+02  0.7816164E-02  0.1312668E+00
        -11   -1    0    0    0    0  0.00000000000E+00  0.00000000000E+00  0.45593999997E+02  0.45594000000E+02  0.51100000000E-03 0. -1.
         11   -1    0    0    0    0 -0.00000000000E+00 -0.00000000000E+00 -0.45593999997E+02  0.45594000000E+02  0.51100000000E-03 0.  1.
    9900012    2    1    2    0    0 -0.34916206157E+02 -0.54333060481E+01  0.25198439118E+02  0.47787267276E+02  0.19999982818E+02 0.  0.
        -12    1    1    2    0    0  0.34916206157E+02  0.54333060481E+01 -0.25198439118E+02  0.43400732724E+02  0.00000000000E+00 0.  1.
         11    1    3    3    0    0 -0.20231502920E+02 -0.37678873610E+01  0.21001142479E+02  0.29403378569E+02  0.51100000000E-03 0. -1.
        -11    1    3    3    0    0 -0.21613890313E+00 -0.30385853138E+01 -0.54816217782E+00  0.30951896176E+01  0.51100000000E-03 0.  1.
         12    1    3    3    0    0 -0.14468564334E+02  0.13731666267E+01  0.47454588163E+01  0.15288699089E+02  0.00000000000E+00 0. -1.
</event>
<event>
 7    1  0.2714068E-010  0.4778728E+02  0.7816164E-02  0.1312668E+00
        -11   -1    0    0    0    0  0.00000000000E+00  0.00000000000E+00  0.45593999997E+02  0.45594000000E+02  0.51100000000E-03 0.  1.
         11   -1    0    0    0    0 -0.00000000000E+00 -0.00000000000E+00 -0.45593999997E+02  0.45594000000E+02  0.51100000000E-03 0. -1.
    9900012    2    1    2    0    0  0.73551730713E+01  0.21027591499E+02 -0.37247344741E+02  0.47787275750E+02  0.20000021454E+02 0.  0.
        -12    1    1    2    0    0 -0.73551730713E+01 -0.21027591499E+02  0.37247344741E+02  0.43400724250E+02  0.00000000000E+00 0.  1.
         11    1    3    3    0    0  0.35462799962E+00 -0.50692962267E+00 -0.16144737454E+02  0.16156586471E+02  0.51100000000E-03 0. -1.
        -11    1    3    3    0    0  0.10010386965E+01  0.13324361834E+02 -0.12792371124E+02  0.18498255485E+02  0.51100000000E-03 0.  1.
         12    1    3    3    0    0  0.59995063751E+01  0.82101592877E+01 -0.83102361633E+01  0.13132433794E+02  0.00000000000E+00 0. -1.
</event>
<event>
 7    1  0.2714068E-010  0.4778727E+02  0.7816164E-02  0.1312668E+00
        -11   -1    0    0    0    0  0.00000000000E+00  0.00000000000E+00  0.45593999997E+02  0.45594000000E+02  0.51100000000E-03 0.  1.
         11   -1    0    0    0    0 -0.00000000000E+00 -0.00000000000E+00 -0.45593999997E+02  0.45594000000E+02  0.51100000000E-03 0. -1.
    9900012    2    1    2    0    0 -0.26865373313E+02 -0.88923377171E+00 -0.34074686493E+02  0.47787270979E+02  0.19999999701E+02 0.  0.
        -12    1    1    2    0    0  0.26865373313E+02  0.88923377171E+00  0.34074686493E+02  0.43400729021E+02  0.00000000000E+00 0.  1.
         11    1    3    3    0    0 -0.79701713357E+01 -0.23703252265E+01 -0.25452745464E+02  0.26776562974E+02  0.51100000000E-03 0. -1.
        -11    1    3    3    0    0 -0.14424432662E+02  0.64656895924E+00 -0.53090232039E+01  0.15384018873E+02  0.51100000000E-03 0.  1.
         12    1    3    3    0    0 -0.44707693150E+01  0.83452249552E+00 -0.33129178257E+01  0.56266891315E+01  0.00000000000E+00 0. -1.
</event>
<event>
 7    1  0.2714068E-010  0.4778726E+02  0.7816164E-02  0.1312668E+00
        -11   -1    0    0    0    0  0.00000000000E+00  0.00000000000E+00  0.45593999997E+02  0.45594000000E+02  0.51100000000E-03 0. -1.
         11   -1    0    0    0    0 -0.00000000000E+00 -0.00000000000E+00 -0.45593999997E+02  0.45594000000E+02  0.51100000000E-03 0.  1.
    9900012    2    1    2    0    0  0.69721825421E+01  0.41513106692E+02 -0.10567621403E+02  0.47787262924E+02  0.19999962974E+02 0.  0.
        -12    1    1    2    0    0 -0.69721825421E+01 -0.41513106692E+02  0.10567621403E+02  0.43400737076E+02  0.00000000000E+00 0.  1.
         11    1    3    3    0    0  0.38409765312E+00  0.10127207801E+02 -0.40892955893E+01  0.10928412855E+02  0.51100000000E-03 0. -1.
        -11    1    3    3    0    0  0.58578319140E+01  0.27981561586E+02  0.10043455581E+01  0.28605780776E+02  0.51100000000E-03 0.  1.
        -12    1    3    3    0    0  0.73025297503E+00  0.34043373060E+01 -0.74826713720E+01  0.82530692934E+01  0.00000000000E+00 0.  1.
</event>
<event>
 7    1  0.2714068E-010  0.4778727E+02  0.7816164E-02  0.1312668E+00
        -11   -1    0    0    0    0  0.00000000000E+00  0.00000000000E+00  0.45593999997E+02  0.45594000000E+02  0.51100000000E-03 0.  1.
         11   -1    0    0    0    0 -0.00000000000E+00 -0.00000000000E+00 -0.45593999997E+02  0.45594000000E+02  0.51100000000E-03 0. -1.
    9900012    2    1    2    0    0  0.42274650841E+02  0.71544368430E+01 -0.67298746795E+01  0.47787270934E+02  0.19999999497E+02 0.  0.
        -12    1    1    2    0    0 -0.42274650841E+02 -0.71544368430E+01  0.67298746795E+01  0.43400729066E+02  0.00000000000E+00 0.  1.
         11    1    3    3    0    0  0.15690010530E+02 -0.23876641585E+01  0.37769950810E+01  0.16313891708E+02  0.51100000000E-03 0. -1.
        -11    1    3    3    0    0  0.34604412039E+01  0.50247479927E+01 -0.19179970125E+01  0.63954248113E+01  0.51100000000E-03 0.  1.
         12    1    3    3    0    0  0.23124199107E+02  0.45173530087E+01 -0.85888727480E+01  0.25077954415E+02  0.00000000000E+00 0. -1.
</event>
<event>
 7    1  0.2714068E-010  0.4778727E+02  0.7816164E-02  0.1312668E+00
        -11   -1    0    0    0    0  0.00000000000E+00  0.00000000000E+00  0.45593999997E+02  0.45594000000E+02  0.51100000000E-03 0.  1.
         11   -1    0    0    0    0 -0.00000000000E+00 -0.00000000000E+00 -0.45593999997E+02  0.45594000000E+02  0.51100000000E-03 0. -1.
    9900012    2    1    2    0    0  0.27227239951E+02 -0.44273312767E+01 -0.33506704334E+02  0.47787273130E+02  0.20000009508E+02 0.  0.
        -12    1    1    2    0    0 -0.27227239951E+02  0.44273312767E+01  0.33506704334E+02  0.43400726870E+02  0.00000000000E+00 0.  1.
         11    1    3    3    0    0  0.19657853060E+02 -0.78273052686E+01 -0.20455713060E+02  0.29430156162E+02  0.51100000000E-03 0. -1.
        -11    1    3    3    0    0  0.27622107198E+00  0.53366605350E+01 -0.59144703292E+01  0.79710227250E+01  0.51100000000E-03 0.  1.
        -12    1    3    3    0    0  0.72931658190E+01 -0.19366865431E+01 -0.71365209448E+01  0.10386094243E+02  0.00000000000E+00 0.  1.
</event>
<event>
 7    1  0.2714068E-010  0.4778728E+02  0.7816164E-02  0.1312668E+00
        -11   -1    0    0    0    0  0.00000000000E+00  0.00000000000E+00  0.45593999997E+02  0.45594000000E+02  0.51100000000E-03 0. -1.
         11   -1    0    0    0    0 -0.00000000000E+00 -0.00000000000E+00 -0.45593999997E+02  0.45594000000E+02  0.51100000000E-03 0.  1.
    9900012    2    1    2    0    0 -0.10467698345E+02  0.37880150723E+02  0.18415872219E+02  0.47787275616E+02  0.20000020843E+02 0.  0.
        -12    1    1    2    0    0  0.10467698345E+02 -0.37880150723E+02 -0.18415872219E+02  0.43400724384E+02  0.00000000000E+00 0.  1.
         11    1    3    3    0    0 -0.90895164456E+01  0.24301448561E+02  0.11297197980E+02  0.28298522821E+02  0.51100000000E-03 0. -1.
        -11    1    3    3    0    0 -0.25027557078E+01  0.12512316959E+02  0.58476397852E+00  0.12773559057E+02  0.51100000000E-03 0.  1.
         12    1    3    3    0    0  0.11245738082E+01  0.10663852038E+01  0.65339102604E+01  0.67151937384E+01  0.00000000000E+00 0. -1.
</event>
<event>
 7    1  0.2714068E-010  0.4778727E+02  0.7816164E-02  0.1312668E+00
        -11   -1    0    0    0    0  0.00000000000E+00  0.00000000000E+00  0.45593999997E+02  0.45594000000E+02  0.51100000000E-03 0.  1.
         11   -1    0    0    0    0 -0.00000000000E+00 -0.00000000000E+00 -0.45593999997E+02  0.45594000000E+02  0.51100000000E-03 0. -1.
    9900012    2    1    2    0    0  0.20240522113E+02  0.14704431271E+02 -0.35464408183E+02  0.47787270949E+02  0.19999999565E+02 0.  0.
        -12    1    1    2    0    0 -0.20240522113E+02 -0.14704431271E+02  0.35464408183E+02  0.43400729051E+02  0.00000000000E+00 0.  1.
         11    1    3    3    0    0 -0.21100446065E+01  0.66517515107E+01 -0.47655938518E+01  0.84503829158E+01  0.51100000000E-03 0. -1.
        -11    1    3    3    0    0  0.13087404775E+02  0.49208689549E+01 -0.12874104340E+02  0.19006253651E+02  0.51100000000E-03 0.  1.
         12    1    3    3    0    0  0.92631619436E+01  0.31318108056E+01 -0.17824709992E+02  0.20330634383E+02  0.00000000000E+00 0. -1.
</event>
<event>
 7    1  0.2714068E-010  0.4778727E+02  0.7816164E-02  0.1312668E+00
        -11   -1    0    0    0    0  0.00000000000E+00  0.00000000000E+00  0.45593999997E+02  0.45594000000E+02  0.51100000000E-03 0.  1.
         11   -1    0    0    0    0 -0.00000000000E+00 -0.00000000000E+00 -0.45593999997E+02  0.45594000000E+02  0.51100000000E-03 0. -1.
    9900012    2    1    2    0    0 -0.18496292791E+02  0.36669480269E+02 -0.14030673610E+02  0.47787269220E+02  0.19999991684E+02 0.  0.
        -12    1    1    2    0    0  0.18496292791E+02 -0.36669480269E+02  0.14030673610E+02  0.43400730780E+02  0.00000000000E+00 0.  1.
         11    1    3    3    0    0 -0.96311148223E+00  0.17894921581E+02 -0.41420721754E+01  0.18393274975E+02  0.51100000000E-03 0. -1.
        -11    1    3    3    0    0 -0.17486241146E+02  0.19934699620E+02 -0.95514550177E+01  0.28184945832E+02  0.51100000000E-03 0.  1.
        -12    1    3    3    0    0 -0.46940162930E-01 -0.11601409316E+01 -0.33714641731E+00  0.12090484137E+01  0.00000000000E+00 0.  1.
</event>
<event>
 7    1  0.2714068E-010  0.4778727E+02  0.7816164E-02  0.1312668E+00
        -11   -1    0    0    0    0  0.00000000000E+00  0.00000000000E+00  0.45593999997E+02  0.45594000000E+02  0.51100000000E-03 0.  1.
         11   -1    0    0    0    0 -0.00000000000E+00 -0.00000000000E+00 -0.45593999997E+02  0.45594000000E+02  0.51100000000E-03 0. -1.
    9900012    2    1    2    0    0 -0.39877082189E+02  0.10214266189E+02 -0.13751750055E+02  0.47787267894E+02  0.19999985638E+02 0.  0.
        -12    1    1    2    0    0  0.39877082189E+02 -0.10214266189E+02  0.13751750055E+02  0.43400732106E+02  0.00000000000E+00 0.  1.
         11    1    3    3    0    0 -0.51334883755E+01  0.19778123400E+01  0.12882567438E+01  0.56501371888E+01  0.51100000000E-03 0. -1.
        -11    1    3    3    0    0  0.11062639850E+01  0.28489431297E+01 -0.59913452200E+00  0.31143634016E+01  0.51100000000E-03 0.  1.
        -12    1    3    3    0    0 -0.35849857799E+02  0.53875107196E+01 -0.14440872277E+02  0.39022767304E+02  0.00000000000E+00 0.  1.
</event>
<event>
 7    1  0.2714068E-010  0.4778727E+02  0.7816164E-02  0.1312668E+00
        -11   -1    0    0    0    0  0.00000000000E+00  0.00000000000E+00  0.45593999997E+02  0.45594000000E+02  0.51100000000E-03 0. -1.
         11   -1    0    0    0    0 -0.00000000000E+00 -0.00000000000E+00 -0.45593999997E+02  0.45594000000E+02  0.51100000000E-03 0.  1.
    9900012    2    1    2    0    0 -0.34051817175E+02  0.22635271250E+02  0.14551344301E+02  0.47787269839E+02  0.19999994506E+02 0.  0.
        -12    1    1    2    0    0  0.34051817175E+02 -0.22635271250E+02 -0.14551344301E+02  0.43400730161E+02  0.00000000000E+00 0.  1.
         11    1    3    3    0    0 -0.19515936960E+02  0.63475343627E+01  0.10214853434E+02  0.22923922415E+02  0.51100000000E-03 0.  1.
        -11    1    3    3    0    0 -0.41211989702E+01  0.11314904478E+02 -0.11265707068E+01  0.12094647829E+02  0.51100000000E-03 0. -1.
         12    1    3    3    0    0 -0.10414681245E+02  0.49728324094E+01  0.54630615734E+01  0.12768699595E+02  0.00000000000E+00 0. -1.
</event>
<event>
 7    1  0.2714068E-010  0.4778727E+02  0.7816164E-02  0.1312668E+00
        -11   -1    0    0    0    0  0.00000000000E+00  0.00000000000E+00  0.45593999997E+02  0.45594000000E+02  0.51100000000E-03 0.  1.
         11   -1    0    0    0    0 -0.00000000000E+00 -0.00000000000E+00 -0.45593999997E+02  0.45594000000E+02  0.51100000000E-03 0. -1.
    9900012    2    1    2    0    0 -0.28009150231E+02 -0.25289020659E+02 -0.21437730365E+02  0.47787270217E+02  0.19999996226E+02 0.  0.
        -12    1    1    2    0    0  0.28009150231E+02  0.25289020659E+02  0.21437730365E+02  0.43400729783E+02  0.00000000000E+00 0.  1.
         11    1    3    3    0    0 -0.12182117789E+02 -0.18321067231E+02 -0.59415481178E+01  0.22789635640E+02  0.51100000000E-03 0. -1.
        -11    1    3    3    0    0 -0.47007335924E+01  0.21510906765E+01 -0.32584863280E+01  0.61107954324E+01  0.51100000000E-03 0.  1.
        -12    1    3    3    0    0 -0.11126298849E+02 -0.91190441041E+01 -0.12237695919E+02  0.18886839144E+02  0.00000000000E+00 0.  1.
</event>
<event>
 7    1  0.2714068E-010  0.4778727E+02  0.7816164E-02  0.1312668E+00
        -11   -1    0    0    0    0  0.00000000000E+00  0.00000000000E+00  0.45593999997E+02  0.45594000000E+02  0.51100000000E-03 0.  1.
         11   -1    0    0    0    0 -0.00000000000E+00 -0.00000000000E+00 -0.45593999997E+02  0.45594000000E+02  0.51100000000E-03 0. -1.
    9900012    2    1    2    0    0  0.38802884726E+02 -0.63482519123E+01 -0.18375494152E+02  0.47787274767E+02  0.20000016975E+02 0.  0.
        -12    1    1    2    0    0 -0.38802884726E+02  0.63482519123E+01  0.18375494152E+02  0.43400725233E+02  0.00000000000E+00 0.  1.
         11    1    3    3    0    0  0.14946330295E+02 -0.10557687258E+02 -0.71737574579E+01  0.19655033601E+02  0.51100000000E-03 0. -1.
        -11    1    3    3    0    0  0.58336750722E+01  0.49797859624E+01 -0.44715424555E+01  0.88783289684E+01  0.51100000000E-03 0.  1.
         12    1    3    3    0    0  0.18022879359E+02 -0.77035061677E+00 -0.67301942381E+01  0.19253912198E+02  0.00000000000E+00 0. -1.
</event>
<event>
 7    1  0.2714068E-010  0.4778727E+02  0.7816164E-02  0.1312668E+00
        -11   -1    0    0    0    0  0.00000000000E+00  0.00000000000E+00  0.45593999997E+02  0.45594000000E+02  0.51100000000E-03 0.  1.
         11   -1    0    0    0    0 -0.00000000000E+00 -0.00000000000E+00 -0.45593999997E+02  0.45594000000E+02  0.51100000000E-03 0. -1.
    9900012    2    1    2    0    0 -0.28232892541E+02  0.31768856816E+02 -0.87901423652E+01  0.47787273193E+02  0.20000009795E+02 0.  0.
        -12    1    1    2    0    0  0.28232892541E+02 -0.31768856816E+02  0.87901423652E+01  0.43400726807E+02  0.00000000000E+00 0.  1.
         11    1    3    3    0    0 -0.49352001910E+01  0.99197039216E+01 -0.10574979402E+02  0.15316230490E+02  0.51100000000E-03 0. -1.
        -11    1    3    3    0    0 -0.10625692249E+02  0.13189412435E+02  0.24225320720E+01  0.17109488538E+02  0.51100000000E-03 0.  1.
        -12    1    3    3    0    0 -0.12672000101E+02  0.86597404597E+01 -0.63769503505E+00  0.15361554164E+02  0.00000000000E+00 0.  1.
</event>
<event>
 7    1  0.2714068E-010  0.4778727E+02  0.7816164E-02  0.1312668E+00
        -11   -1    0    0    0    0  0.00000000000E+00  0.00000000000E+00  0.45593999997E+02  0.45594000000E+02  0.51100000000E-03 0. -1.
         11   -1    0    0    0    0 -0.00000000000E+00 -0.00000000000E+00 -0.45593999997E+02  0.45594000000E+02  0.51100000000E-03 0.  1.
    9900012    2    1    2    0    0  0.19492241177E+02  0.28875002516E+02  0.25882620108E+02  0.47787271204E+02  0.20000000726E+02 0.  0.
        -12    1    1    2    0    0 -0.19492241177E+02 -0.28875002516E+02 -0.25882620108E+02  0.43400728796E+02  0.00000000000E+00 0.  1.
         11    1    3    3    0    0  0.11823601271E+02  0.90507425532E+01  0.13215900037E+02  0.19909131117E+02  0.51100000000E-03 0. -1.
        -11    1    3    3    0    0 -0.64723143598E+00  0.14999116365E+02  0.94514021801E+01  0.17740389051E+02  0.51100000000E-03 0.  1.
        -12    1    3    3    0    0  0.83158713421E+01  0.48251435979E+01  0.32153178907E+01  0.10137751035E+02  0.00000000000E+00 0.  1.
</event>
<event>
 7    1  0.2714068E-010  0.4778727E+02  0.7816164E-02  0.1312668E+00
        -11   -1    0    0    0    0  0.00000000000E+00  0.00000000000E+00  0.45593999997E+02  0.45594000000E+02  0.51100000000E-03 0. -1.
         11   -1    0    0    0    0 -0.00000000000E+00 -0.00000000000E+00 -0.45593999997E+02  0.45594000000E+02  0.51100000000E-03 0.  1.
    9900012    2    1    2    0    0  0.10368732491E+02  0.37958598216E+02  0.18310046166E+02  0.47787267488E+02  0.19999983783E+02 0.  0.
        -12    1    1    2    0    0 -0.10368732491E+02 -0.37958598216E+02 -0.18310046166E+02  0.43400732512E+02  0.00000000000E+00 0.  1.
         11    1    3    3    0    0  0.12348714245E+01  0.17395689643E+02  0.65793415498E+01  0.18639277376E+02  0.51100000000E-03 0. -1.
        -11    1    3    3    0    0  0.59244444396E+01  0.40374699867E+01 -0.19789538578E+01  0.74375039122E+01  0.51100000000E-03 0.  1.
        -12    1    3    3    0    0  0.32094166265E+01  0.16525438586E+02  0.13709658474E+02  0.21710486200E+02  0.00000000000E+00 0.  1.
</event>
<event>
 7    1  0.2714068E-010  0.4778727E+02  0.7816164E-02  0.1312668E+00
        -11   -1    0    0    0    0  0.00000000000E+00  0.00000000000E+00  0.45593999997E+02  0.45594000000E+02  0.51100000000E-03 0.  1.
         11   -1    0    0    0    0 -0.00000000000E+00 -0.00000000000E+00 -0.45593999997E+02  0.45594000000E+02  0.51100000000E-03 0. -1.
    9900012    2    1    2    0    0 -0.30810498247E+02  0.78047577355E+01 -0.29553715980E+02  0.47787272197E+02  0.20000005257E+02 0.  0.
        -12    1    1    2    0    0  0.30810498247E+02 -0.78047577355E+01  0.29553715980E+02  0.43400727803E+02  0.00000000000E+00 0.  1.
         11    1    3    3    0    0  0.25700773275E+01  0.10713731311E+01 -0.27487779220E+01  0.39126612658E+01  0.51100000000E-03 0. -1.
        -11    1    3    3    0    0 -0.16567823194E+02  0.55874546616E+01 -0.10333089973E+02  0.20309730762E+02  0.51100000000E-03 0.  1.
         12    1    3    3    0    0 -0.16812752381E+02  0.11459299428E+01 -0.16471848085E+02  0.23564880170E+02  0.00000000000E+00 0. -1.
</event>
<event>
 7    1  0.2714068E-010  0.4778726E+02  0.7816164E-02  0.1312668E+00
        -11   -1    0    0    0    0  0.00000000000E+00  0.00000000000E+00  0.45593999997E+02  0.45594000000E+02  0.51100000000E-03 0.  1.
         11   -1    0    0    0    0 -0.00000000000E+00 -0.00000000000E+00 -0.45593999997E+02  0.45594000000E+02  0.51100000000E-03 0. -1.
    9900012    2    1    2    0    0  0.27840924415E+01 -0.83501373134E+00 -0.43303296985E+02  0.47787263273E+02  0.19999964568E+02 0.  0.
        -12    1    1    2    0    0 -0.27840924415E+01  0.83501373134E+00  0.43303296985E+02  0.43400736727E+02  0.00000000000E+00 0.  1.
         11    1    3    3    0    0  0.20482682383E+01 -0.57601360784E+01 -0.32423221708E+02  0.32994543134E+02  0.51100000000E-03 0. -1.
        -11    1    3    3    0    0 -0.28936760968E+01  0.55710608449E+01 -0.76067441490E+01  0.98626891414E+01  0.51100000000E-03 0.  1.
        -12    1    3    3    0    0  0.36295003000E+01 -0.64593849783E+00 -0.32733311281E+01  0.49300309984E+01  0.00000000000E+00 0.  1.
</event>
<event>
 7    1  0.2714068E-010  0.4778727E+02  0.7816164E-02  0.1312668E+00
        -11   -1    0    0    0    0  0.00000000000E+00  0.00000000000E+00  0.45593999997E+02  0.45594000000E+02  0.51100000000E-03 0.  1.
         11   -1    0    0    0    0 -0.00000000000E+00 -0.00000000000E+00 -0.45593999997E+02  0.45594000000E+02  0.51100000000E-03 0. -1.
    9900012    2    1    2    0    0  0.47382596759E+01  0.43139198888E+02  0.42595311174E+00  0.47787273952E+02  0.20000013258E+02 0.  0.
        -12    1    1    2    0    0 -0.47382596759E+01 -0.43139198888E+02 -0.42595311174E+00  0.43400726048E+02  0.00000000000E+00 0.  1.
         11    1    3    3    0    0  0.19235215243E+01  0.25388250822E+02  0.84547614343E+01  0.26828086141E+02  0.51100000000E-03 0. -1.
        -11    1    3    3    0    0  0.22941201746E+01  0.81723905135E+01 -0.75408484288E+01  0.11354089544E+02  0.51100000000E-03 0.  1.
         12    1    3    3    0    0  0.52061797706E+00  0.95785575525E+01 -0.48795989377E+00  0.96050982672E+01  0.00000000000E+00 0. -1.
</event>
<event>
 7    1  0.2714068E-010  0.4778727E+02  0.7816164E-02  0.1312668E+00
        -11   -1    0    0    0    0  0.00000000000E+00  0.00000000000E+00  0.45593999997E+02  0.45594000000E+02  0.51100000000E-03 0.  1.
         11   -1    0    0    0    0 -0.00000000000E+00 -0.00000000000E+00 -0.45593999997E+02  0.45594000000E+02  0.51100000000E-03 0. -1.
    9900012    2    1    2    0    0 -0.25202704336E+02  0.91836479648E+01 -0.34119017635E+02  0.47787273507E+02  0.20000011226E+02 0.  0.
        -12    1    1    2    0    0  0.25202704336E+02 -0.91836479648E+01  0.34119017635E+02  0.43400726493E+02  0.00000000000E+00 0.  1.
         11    1    3    3    0    0 -0.14087069468E+02 -0.85718261937E-01 -0.18707290253E+02  0.23418274545E+02  0.51100000000E-03 0. -1.
        -11    1    3    3    0    0 -0.59816083722E+01 -0.21466054748E+01 -0.49477817340E+01  0.80540733875E+01  0.51100000000E-03 0.  1.
         12    1    3    3    0    0 -0.51340264960E+01  0.11415971702E+02 -0.10463945648E+02  0.16314925574E+02  0.00000000000E+00 0. -1.
</event>
<event>
 7    1  0.2714068E-010  0.4778727E+02  0.7816164E-02  0.1312668E+00
        -11   -1    0    0    0    0  0.00000000000E+00  0.00000000000E+00  0.45593999997E+02  0.45594000000E+02  0.51100000000E-03 0.  1.
         11   -1    0    0    0    0 -0.00000000000E+00 -0.00000000000E+00 -0.45593999997E+02  0.45594000000E+02  0.51100000000E-03 0. -1.
    9900012    2    1    2    0    0  0.16903471834E+02  0.27199057819E+02 -0.29293474544E+02  0.47787265477E+02  0.19999974617E+02 0.  0.
        -12    1    1    2    0    0 -0.16903471834E+02 -0.27199057819E+02  0.29293474544E+02  0.43400734523E+02  0.00000000000E+00 0.  1.
         11    1    3    3    0    0  0.17461409718E+02  0.15140797678E+02 -0.12519530860E+02  0.26284657823E+02  0.51100000000E-03 0.  1.
        -11    1    3    3    0    0 -0.23695859645E+01  0.10000133560E+02 -0.15178184871E+02  0.18330163804E+02  0.51100000000E-03 0. -1.
         12    1    3    3    0    0  0.18116480808E+01  0.20581265811E+01 -0.15957588129E+01  0.31724438499E+01  0.00000000000E+00 0. -1.
</event>
<event>
 7    1  0.2714068E-010  0.4778727E+02  0.7816164E-02  0.1312668E+00
        -11   -1    0    0    0    0  0.00000000000E+00  0.00000000000E+00  0.45593999997E+02  0.45594000000E+02  0.51100000000E-03 0.  1.
         11   -1    0    0    0    0 -0.00000000000E+00 -0.00000000000E+00 -0.45593999997E+02  0.45594000000E+02  0.51100000000E-03 0. -1.
    9900012    2    1    2    0    0  0.18447974675E+02  0.34042705840E+02 -0.19605859492E+02  0.47787270548E+02  0.19999997738E+02 0.  0.
        -12    1    1    2    0    0 -0.18447974675E+02 -0.34042705840E+02  0.19605859492E+02  0.43400729452E+02  0.00000000000E+00 0.  1.
         11    1    3    3    0    0  0.19143103789E+02  0.21546012275E+02 -0.15760326103E+02  0.32849306641E+02  0.51100000000E-03 0. -1.
        -11    1    3    3    0    0 -0.33251292259E+01  0.79625866541E+01 -0.43657959977E+01  0.96705452559E+01  0.51100000000E-03 0.  1.
         12    1    3    3    0    0  0.26300001123E+01  0.45341069110E+01  0.52026260892E+00  0.52674186518E+01  0.00000000000E+00 0. -1.
</event>
<event>
 7    1  0.2714068E-010  0.4778725E+02  0.7816164E-02  0.1312668E+00
        -11   -1    0    0    0    0  0.00000000000E+00  0.00000000000E+00  0.45593999997E+02  0.45594000000E+02  0.51100000000E-03 0.  1.
         11   -1    0    0    0    0 -0.00000000000E+00 -0.00000000000E+00 -0.45593999997E+02  0.45594000000E+02  0.51100000000E-03 0. -1.
    9900012    2    1    2    0    0  0.29641706550E+02  0.51722585852E+01 -0.31276855210E+02  0.47787254639E+02  0.19999925201E+02 0.  0.
        -12    1    1    2    0    0 -0.29641706550E+02 -0.51722585852E+01  0.31276855210E+02  0.43400745361E+02  0.00000000000E+00 0.  1.
         11    1    3    3    0    0  0.73770476857E+01 -0.14275228612E+01  0.41083408666E+00  0.75251205296E+01  0.51100000000E-03 0.  1.
        -11    1    3    3    0    0  0.19250705602E+02  0.21009396547E+01 -0.25858579440E+02  0.32305877864E+02  0.51100000000E-03 0. -1.
         12    1    3    3    0    0  0.30139532621E+01  0.44988417917E+01 -0.58291098564E+01  0.79562562459E+01  0.00000000000E+00 0. -1.
</event>
<event>
 7    1  0.2714068E-010  0.4778727E+02  0.7816164E-02  0.1312668E+00
        -11   -1    0    0    0    0  0.00000000000E+00  0.00000000000E+00  0.45593999997E+02  0.45594000000E+02  0.51100000000E-03 0. -1.
         11   -1    0    0    0    0 -0.00000000000E+00 -0.00000000000E+00 -0.45593999997E+02  0.45594000000E+02  0.51100000000E-03 0.  1.
    9900012    2    1    2    0    0 -0.25466008144E+02  0.22126806237E+02 -0.27304033568E+02  0.47787269890E+02  0.19999994734E+02 0.  0.
        -12    1    1    2    0    0  0.25466008144E+02 -0.22126806237E+02  0.27304033568E+02  0.43400730110E+02  0.00000000000E+00 0.  1.
         11    1    3    3    0    0 -0.12145030087E+02  0.17226696960E+02 -0.77684549302E+01  0.22463520121E+02  0.51100000000E-03 0. -1.
        -11    1    3    3    0    0 -0.88388241651E+00 -0.77632936346E+00  0.31778767698E+00  0.12185748543E+01  0.51100000000E-03 0.  1.
         12    1    3    3    0    0 -0.12437095640E+02  0.56764386401E+01 -0.19853366315E+02  0.24105174914E+02  0.00000000000E+00 0. -1.
</event>
<event>
 7    1  0.2714068E-010  0.4778728E+02  0.7816164E-02  0.1312668E+00
        -11   -1    0    0    0    0  0.00000000000E+00  0.00000000000E+00  0.45593999997E+02  0.45594000000E+02  0.51100000000E-03 0.  1.
         11   -1    0    0    0    0 -0.00000000000E+00 -0.00000000000E+00 -0.45593999997E+02  0.45594000000E+02  0.51100000000E-03 0. -1.
    9900012    2    1    2    0    0  0.20640193037E+02 -0.35265458217E+02 -0.14627125787E+02  0.47787275114E+02  0.20000018553E+02 0.  0.
        -12    1    1    2    0    0 -0.20640193037E+02  0.35265458217E+02  0.14627125787E+02  0.43400724886E+02  0.00000000000E+00 0.  1.
         11    1    3    3    0    0  0.18380631522E+02 -0.27751241381E+02 -0.54283133247E+01  0.33726037406E+02  0.51100000000E-03 0. -1.
        -11    1    3    3    0    0  0.88633845524E+00  0.33292813746E+00  0.82604939572E+00  0.12565010415E+01  0.51100000000E-03 0.  1.
         12    1    3    3    0    0  0.13732230597E+01 -0.78471449741E+01 -0.10024861858E+02  0.12804736666E+02  0.00000000000E+00 0. -1.
</event>
<event>
 7    1  0.2714068E-010  0.4778727E+02  0.7816164E-02  0.1312668E+00
        -11   -1    0    0    0    0  0.00000000000E+00  0.00000000000E+00  0.45593999997E+02  0.45594000000E+02  0.51100000000E-03 0. -1.
         11   -1    0    0    0    0 -0.00000000000E+00 -0.00000000000E+00 -0.45593999997E+02  0.45594000000E+02  0.51100000000E-03 0.  1.
    9900012    2    1    2    0    0  0.19639389342E+02 -0.14557502816E+02  0.35860798440E+02  0.47787269975E+02  0.19999995124E+02 0.  0.
        -12    1    1    2    0    0 -0.19639389342E+02  0.14557502816E+02 -0.35860798440E+02  0.43400730025E+02  0.00000000000E+00 0.  1.
         11    1    3    3    0    0  0.13977550930E+02 -0.12039235791E+02  0.20657083448E+02  0.27695310528E+02  0.51100000000E-03 0. -1.
        -11    1    3    3    0    0  0.53727947794E+00  0.41235654558E+01  0.24497594443E+01  0.48263633205E+01  0.51100000000E-03 0.  1.
        -12    1    3    3    0    0  0.51245589342E+01 -0.66418324806E+01  0.12753955548E+02  0.15265596126E+02  0.00000000000E+00 0.  1.
</event>
<event>
 7    1  0.2714068E-010  0.4778727E+02  0.7816164E-02  0.1312668E+00
        -11   -1    0    0    0    0  0.00000000000E+00  0.00000000000E+00  0.45593999997E+02  0.45594000000E+02  0.51100000000E-03 0. -1.
         11   -1    0    0    0    0 -0.00000000000E+00 -0.00000000000E+00 -0.45593999997E+02  0.45594000000E+02  0.51100000000E-03 0.  1.
    9900012    2    1    2    0    0  0.61467322223E+01 -0.92567574831E+01  0.41954179189E+02  0.47787273882E+02  0.20000012939E+02 0.  0.
        -12    1    1    2    0    0 -0.61467322223E+01  0.92567574831E+01 -0.41954179189E+02  0.43400726118E+02  0.00000000000E+00 0.  1.
         11    1    3    3    0    0  0.23293875779E+00 -0.64583917016E+01  0.34529805834E+02  0.35129369124E+02  0.51100000000E-03 0. -1.
        -11    1    3    3    0    0  0.27117729825E+00 -0.10603660582E+01 -0.15609049099E+01  0.19063939003E+01  0.51100000000E-03 0.  1.
         12    1    3    3    0    0  0.56426161663E+01 -0.17379997232E+01  0.89852782644E+01  0.10751510858E+02  0.00000000000E+00 0. -1.
</event>
<event>
 7    1  0.2714068E-010  0.4778726E+02  0.7816164E-02  0.1312668E+00
        -11   -1    0    0    0    0  0.00000000000E+00  0.00000000000E+00  0.45593999997E+02  0.45594000000E+02  0.51100000000E-03 0.  1.
         11   -1    0    0    0    0 -0.00000000000E+00 -0.00000000000E+00 -0.45593999997E+02  0.45594000000E+02  0.51100000000E-03 0. -1.
    9900012    2    1    2    0    0  0.19775090052E+02 -0.25141978808E+02 -0.29333441818E+02  0.47787261598E+02  0.19999956931E+02 0.  0.
        -12    1    1    2    0    0 -0.19775090052E+02  0.25141978808E+02  0.29333441818E+02  0.43400738402E+02  0.00000000000E+00 0.  1.
         11    1    3    3    0    0  0.16433074984E+02 -0.20860762271E+02 -0.14499845037E+02  0.30256616836E+02  0.51100000000E-03 0. -1.
        -11    1    3    3    0    0 -0.22208664061E+01 -0.11484819659E+01 -0.20186799561E+01  0.32134603539E+01  0.51100000000E-03 0.  1.
         12    1    3    3    0    0  0.55628814736E+01 -0.31327345713E+01 -0.12814916824E+02  0.14317184409E+02  0.00000000000E+00 0. -1.
</event>
<event>
 7    1  0.2714068E-010  0.4778727E+02  0.7816164E-02  0.1312668E+00
        -11   -1    0    0    0    0  0.00000000000E+00  0.00000000000E+00  0.45593999997E+02  0.45594000000E+02  0.51100000000E-03 0.  1.
         11   -1    0    0    0    0 -0.00000000000E+00 -0.00000000000E+00 -0.45593999997E+02  0.45594000000E+02  0.51100000000E-03 0. -1.
    9900012    2    1    2    0    0 -0.75778772969E+01 -0.18031815982E+02 -0.38743421551E+02  0.47787270451E+02  0.19999997293E+02 0.  0.
        -12    1    1    2    0    0  0.75778772969E+01  0.18031815982E+02  0.38743421551E+02  0.43400729549E+02  0.00000000000E+00 0.  1.
         11    1    3    3    0    0 -0.12607983443E+02 -0.85987830427E+01 -0.21926121467E+02  0.26714324232E+02  0.51100000000E-03 0. -1.
        -11    1    3    3    0    0  0.11560896916E+01 -0.68656762572E+01 -0.56134957383E+01  0.89434550655E+01  0.51100000000E-03 0.  1.
         12    1    3    3    0    0  0.38740164548E+01 -0.25673566817E+01 -0.11203804346E+02  0.12129491153E+02  0.00000000000E+00 0. -1.
</event>
<event>
 7    1  0.2714068E-010  0.4778727E+02  0.7816164E-02  0.1312668E+00
        -11   -1    0    0    0    0  0.00000000000E+00  0.00000000000E+00  0.45593999997E+02  0.45594000000E+02  0.51100000000E-03 0. -1.
         11   -1    0    0    0    0 -0.00000000000E+00 -0.00000000000E+00 -0.45593999997E+02  0.45594000000E+02  0.51100000000E-03 0.  1.
    9900012    2    1    2    0    0 -0.16901367184E+02 -0.16087995543E+02  0.36594306508E+02  0.47787273254E+02  0.20000010073E+02 0.  0.
        -12    1    1    2    0    0  0.16901367184E+02  0.16087995543E+02 -0.36594306508E+02  0.43400726746E+02  0.00000000000E+00 0.  1.
         11    1    3    3    0    0 -0.93478014909E+00 -0.35327995204E+00  0.50228659179E+01  0.51213087138E+01  0.51100000000E-03 0. -1.
        -11    1    3    3    0    0 -0.64349386886E+01 -0.20562521722E+01  0.22896224864E+02  0.23872028029E+02  0.51100000000E-03 0.  1.
        -12    1    3    3    0    0 -0.95316483459E+01 -0.13678463419E+02  0.86752157266E+01  0.18793936511E+02  0.00000000000E+00 0.  1.
</event>
<event>
 7    1  0.2714068E-010  0.4778727E+02  0.7816164E-02  0.1312668E+00
        -11   -1    0    0    0    0  0.00000000000E+00  0.00000000000E+00  0.45593999997E+02  0.45594000000E+02  0.51100000000E-03 0.  1.
         11   -1    0    0    0    0 -0.00000000000E+00 -0.00000000000E+00 -0.45593999997E+02  0.45594000000E+02  0.51100000000E-03 0. -1.
    9900012    2    1    2    0    0 -0.39543027880E+02 -0.95686409763E+00 -0.17862158129E+02  0.47787270331E+02  0.19999996745E+02 0.  0.
        -12    1    1    2    0    0  0.39543027880E+02  0.95686409763E+00  0.17862158129E+02  0.43400729669E+02  0.00000000000E+00 0.  1.
         11    1    3    3    0    0 -0.60747598929E+01 -0.51176771788E+01  0.21035468418E+01  0.82169481585E+01  0.51100000000E-03 0. -1.
        -11    1    3    3    0    0 -0.13210614072E+02  0.40700821016E+01 -0.94591742508E+01  0.16749981201E+02  0.51100000000E-03 0.  1.
         12    1    3    3    0    0 -0.20257653915E+02  0.90730979569E-01 -0.10506530720E+02  0.22820340971E+02  0.00000000000E+00 0. -1.
</event>
<event>
 7    1  0.2714068E-010  0.4778727E+02  0.7816164E-02  0.1312668E+00
        -11   -1    0    0    0    0  0.00000000000E+00  0.00000000000E+00  0.45593999997E+02  0.45594000000E+02  0.51100000000E-03 0.  1.
         11   -1    0    0    0    0 -0.00000000000E+00 -0.00000000000E+00 -0.45593999997E+02  0.45594000000E+02  0.51100000000E-03 0. -1.
    9900012    2    1    2    0    0  0.15253466106E+02 -0.17931267869E+02 -0.36461272700E+02  0.47787274171E+02  0.20000014253E+02 0.  0.
        -12    1    1    2    0    0 -0.15253466106E+02  0.17931267869E+02  0.36461272700E+02  0.43400725829E+02  0.00000000000E+00 0.  1.
         11    1    3    3    0    0  0.74316105699E+01 -0.42508286321E+01 -0.19107458176E+02  0.20937844634E+02  0.51100000000E-03 0. -1.
        -11    1    3    3    0    0  0.61897138024E+01 -0.18749702216E+00 -0.89036833536E+01  0.10845427129E+02  0.51100000000E-03 0.  1.
        -12    1    3    3    0    0  0.16321417336E+01 -0.13492942215E+02 -0.84501311701E+01  0.16004002407E+02  0.00000000000E+00 0.  1.
</event>
<event>
 7    1  0.2714068E-010  0.4778728E+02  0.7816164E-02  0.1312668E+00
        -11   -1    0    0    0    0  0.00000000000E+00  0.00000000000E+00  0.45593999997E+02  0.45594000000E+02  0.51100000000E-03 0. -1.
         11   -1    0    0    0    0 -0.00000000000E+00 -0.00000000000E+00 -0.45593999997E+02  0.45594000000E+02  0.51100000000E-03 0.  1.
    9900012    2    1    2    0    0 -0.31938491881E+02 -0.20896053639E+02  0.20661808607E+02  0.47787278160E+02  0.20000032444E+02 0.  0.
        -12    1    1    2    0    0  0.31938491881E+02  0.20896053639E+02 -0.20661808607E+02  0.43400721840E+02  0.00000000000E+00 0.  1.
         11    1    3    3    0    0 -0.11064374183E+02 -0.13864218663E+02  0.96599984232E+01  0.20197834166E+02  0.51100000000E-03 0. -1.
        -11    1    3    3    0    0 -0.82433635800E+01  0.75945453116E+00  0.96098618768E+01  0.12683818820E+02  0.51100000000E-03 0.  1.
        -12    1    3    3    0    0 -0.12630754118E+02 -0.77912895073E+01  0.13919483069E+01  0.14905625175E+02  0.00000000000E+00 0.  1.
</event>
<event>
 7    1  0.2714068E-010  0.4778727E+02  0.7816164E-02  0.1312668E+00
        -11   -1    0    0    0    0  0.00000000000E+00  0.00000000000E+00  0.45593999997E+02  0.45594000000E+02  0.51100000000E-03 0.  1.
         11   -1    0    0    0    0 -0.00000000000E+00 -0.00000000000E+00 -0.45593999997E+02  0.45594000000E+02  0.51100000000E-03 0. -1.
    9900012    2    1    2    0    0  0.27057051614E+02 -0.15797095477E+02 -0.30033164752E+02  0.47787271290E+02  0.20000001119E+02 0.  0.
        -12    1    1    2    0    0 -0.27057051614E+02  0.15797095477E+02  0.30033164752E+02  0.43400728710E+02  0.00000000000E+00 0.  1.
         11    1    3    3    0    0  0.44237270376E+01 -0.87345538825E+01 -0.11127445399E+02  0.14821667713E+02  0.51100000000E-03 0. -1.
        -11    1    3    3    0    0  0.22990965359E+02 -0.75820883136E+01 -0.13890553888E+02  0.27910930456E+02  0.51100000000E-03 0.  1.
        -12    1    3    3    0    0 -0.35764078257E+00  0.51954671881E+00 -0.50151654644E+01  0.50546731208E+01  0.00000000000E+00 0.  1.
</event>
<event>
 7    1  0.2714068E-010  0.4778728E+02  0.7816164E-02  0.1312668E+00
        -11   -1    0    0    0    0  0.00000000000E+00  0.00000000000E+00  0.45593999997E+02  0.45594000000E+02  0.51100000000E-03 0.  1.
         11   -1    0    0    0    0 -0.00000000000E+00 -0.00000000000E+00 -0.45593999997E+02  0.45594000000E+02  0.51100000000E-03 0. -1.
    9900012    2    1    2    0    0  0.69971456352E+00  0.92481907150E+01 -0.42398162119E+02  0.47787276699E+02  0.20000025780E+02 0.  0.
        -12    1    1    2    0    0 -0.69971456352E+00 -0.92481907150E+01  0.42398162119E+02  0.43400723301E+02  0.00000000000E+00 0.  1.
         11    1    3    3    0    0  0.61503260675E+01  0.28606112885E+01 -0.19865624833E+02  0.20991728322E+02  0.51100000000E-03 0. -1.
        -11    1    3    3    0    0 -0.52535340290E+01  0.11211194948E+01 -0.22234361408E+01  0.58137937054E+01  0.51100000000E-03 0.  1.
         12    1    3    3    0    0 -0.19707747495E+00  0.52664599316E+01 -0.20309101146E+02  0.20981754671E+02  0.00000000000E+00 0. -1.
</event>
<event>
 7    1  0.2714068E-010  0.4778727E+02  0.7816164E-02  0.1312668E+00
        -11   -1    0    0    0    0  0.00000000000E+00  0.00000000000E+00  0.45593999997E+02  0.45594000000E+02  0.51100000000E-03 0. -1.
         11   -1    0    0    0    0 -0.00000000000E+00 -0.00000000000E+00 -0.45593999997E+02  0.45594000000E+02  0.51100000000E-03 0.  1.
    9900012    2    1    2    0    0 -0.29155790275E+02  0.61273106115E+01  0.31559773924E+02  0.47787269914E+02  0.19999994845E+02 0.  0.
        -12    1    1    2    0    0  0.29155790275E+02 -0.61273106115E+01 -0.31559773924E+02  0.43400730086E+02  0.00000000000E+00 0.  1.
         11    1    3    3    0    0 -0.17714273408E+02  0.82682337652E+01  0.14873174404E+02  0.24563600898E+02  0.51100000000E-03 0. -1.
        -11    1    3    3    0    0 -0.31018899417E+00 -0.39302080138E+01  0.13051968180E+01  0.41528654251E+01  0.51100000000E-03 0.  1.
        -12    1    3    3    0    0 -0.11131327873E+02  0.17892848601E+01  0.15381402702E+02  0.19070803591E+02  0.00000000000E+00 0.  1.
</event>
<event>
 7    1  0.2714068E-010  0.4778727E+02  0.7816164E-02  0.1312668E+00
        -11   -1    0    0    0    0  0.00000000000E+00  0.00000000000E+00  0.45593999997E+02  0.45594000000E+02  0.51100000000E-03 0.  1.
         11   -1    0    0    0    0 -0.00000000000E+00 -0.00000000000E+00 -0.45593999997E+02  0.45594000000E+02  0.51100000000E-03 0. -1.
    9900012    2    1    2    0    0 -0.34648511488E+02 -0.73496430385E+01 -0.25081596395E+02  0.47787273292E+02  0.20000010246E+02 0.  0.
        -12    1    1    2    0    0  0.34648511488E+02  0.73496430385E+01  0.25081596395E+02  0.43400726708E+02  0.00000000000E+00 0.  1.
         11    1    3    3    0    0 -0.95779076678E+01 -0.63158453909E+00 -0.86201378518E+01  0.12901239908E+02  0.51100000000E-03 0. -1.
        -11    1    3    3    0    0 -0.21154129477E+02 -0.11134803456E+02 -0.16386041506E+02  0.28982467087E+02  0.51100000000E-03 0.  1.
        -12    1    3    3    0    0 -0.39164743429E+01  0.44167449567E+01 -0.75417037082E-01  0.59035662968E+01  0.00000000000E+00 0.  1.
</event>
<event>
 7    1  0.2714068E-010  0.4778727E+02  0.7816164E-02  0.1312668E+00
        -11   -1    0    0    0    0  0.00000000000E+00  0.00000000000E+00  0.45593999997E+02  0.45594000000E+02  0.51100000000E-03 0.  1.
         11   -1    0    0    0    0 -0.00000000000E+00 -0.00000000000E+00 -0.45593999997E+02  0.45594000000E+02  0.51100000000E-03 0. -1.
    9900012    2    1    2    0    0 -0.29365160528E+02 -0.81783904242E+00 -0.31947482822E+02  0.47787272216E+02  0.20000005341E+02 0.  0.
        -12    1    1    2    0    0  0.29365160528E+02  0.81783904242E+00  0.31947482822E+02  0.43400727784E+02  0.00000000000E+00 0.  1.
         11    1    3    3    0    0 -0.37573418520E+01 -0.13743126618E+01 -0.97263235105E+01  0.10517020604E+02  0.51100000000E-03 0. -1.
        -11    1    3    3    0    0 -0.29269310122E+01 -0.56876415003E+01 -0.47026518150E+01  0.79392144033E+01  0.51100000000E-03 0.  1.
        -12    1    3    3    0    0 -0.22680887664E+02  0.62441151197E+01 -0.17518507496E+02  0.29331037209E+02  0.00000000000E+00 0.  1.
</event>
<event>
 7    1  0.2714068E-010  0.4778726E+02  0.7816164E-02  0.1312668E+00
        -11   -1    0    0    0    0  0.00000000000E+00  0.00000000000E+00  0.45593999997E+02  0.45594000000E+02  0.51100000000E-03 0.  1.
         11   -1    0    0    0    0 -0.00000000000E+00 -0.00000000000E+00 -0.45593999997E+02  0.45594000000E+02  0.51100000000E-03 0. -1.
    9900012    2    1    2    0    0 -0.30215130923E+02 -0.19847009687E+02 -0.24015953950E+02  0.47787262974E+02  0.19999963204E+02 0.  0.
        -12    1    1    2    0    0  0.30215130923E+02  0.19847009687E+02  0.24015953950E+02  0.43400737026E+02  0.00000000000E+00 0.  1.
         11    1    3    3    0    0 -0.13501219457E+02 -0.67552916625E+01  0.13291195679E+00  0.15097501718E+02  0.51100000000E-03 0. -1.
        -11    1    3    3    0    0 -0.13156294209E+02 -0.12787200229E+02 -0.18888586893E+02  0.26332096045E+02  0.51100000000E-03 0.  1.
         12    1    3    3    0    0 -0.35576172572E+01 -0.30451779521E+00 -0.52602790141E+01  0.63576652116E+01  0.00000000000E+00 0. -1.
</event>
<event>
 7    1  0.2714068E-010  0.4778727E+02  0.7816164E-02  0.1312668E+00
        -11   -1    0    0    0    0  0.00000000000E+00  0.00000000000E+00  0.45593999997E+02  0.45594000000E+02  0.51100000000E-03 0.  1.
         11   -1    0    0    0    0 -0.00000000000E+00 -0.00000000000E+00 -0.45593999997E+02  0.45594000000E+02  0.51100000000E-03 0. -1.
    9900012    2    1    2    0    0  0.13079201523E+02 -0.13963077656E+02 -0.38956261294E+02  0.47787270236E+02  0.19999996314E+02 0.  0.
        -12    1    1    2    0    0 -0.13079201523E+02  0.13963077656E+02  0.38956261294E+02  0.43400729764E+02  0.00000000000E+00 0.  1.
         11    1    3    3    0    0  0.10913083698E+02 -0.65338348104E+01 -0.14474944791E+02  0.19269416704E+02  0.51100000000E-03 0. -1.
        -11    1    3    3    0    0 -0.31070712781E+01 -0.69622973288E+01 -0.73608747521E+01  0.10597639048E+02  0.51100000000E-03 0.  1.
        -12    1    3    3    0    0  0.52731891027E+01 -0.46694551651E+00 -0.17120441750E+02  0.17920214484E+02  0.00000000000E+00 0.  1.
</event>
<event>
 7    1  0.2714068E-010  0.4778727E+02  0.7816164E-02  0.1312668E+00
        -11   -1    0    0    0    0  0.00000000000E+00  0.00000000000E+00  0.45593999997E+02  0.45594000000E+02  0.51100000000E-03 0.  1.
         11   -1    0    0    0    0 -0.00000000000E+00 -0.00000000000E+00 -0.45593999997E+02  0.45594000000E+02  0.51100000000E-03 0. -1.
    9900012    2    1    2    0    0  0.98468805361E+01  0.41855198940E+02  0.58995416978E+01  0.47787270434E+02  0.19999997217E+02 0.  0.
        -12    1    1    2    0    0 -0.98468805361E+01 -0.41855198940E+02 -0.58995416978E+01  0.43400729566E+02  0.00000000000E+00 0.  1.
         11    1    3    3    0    0  0.47352650428E+01  0.36055856143E+02  0.81715145219E+01  0.37272257069E+02  0.51100000000E-03 0. -1.
        -11    1    3    3    0    0  0.23810056628E+01 -0.67567537513E+00  0.11144741012E+01  0.27143651122E+01  0.51100000000E-03 0.  1.
         12    1    3    3    0    0  0.27306098305E+01  0.64750181725E+01 -0.33864469252E+01  0.78006482524E+01  0.00000000000E+00 0. -1.
</event>
<event>
 7    1  0.2714068E-010  0.4778728E+02  0.7816164E-02  0.1312668E+00
        -11   -1    0    0    0    0  0.00000000000E+00  0.00000000000E+00  0.45593999997E+02  0.45594000000E+02  0.51100000000E-03 0.  1.
         11   -1    0    0    0    0 -0.00000000000E+00 -0.00000000000E+00 -0.45593999997E+02  0.45594000000E+02  0.51100000000E-03 0. -1.
    9900012    2    1    2    0    0 -0.12868327352E+02  0.14560356601E+02 -0.38807537145E+02  0.47787276821E+02  0.20000026338E+02 0.  0.
        -12    1    1    2    0    0  0.12868327352E+02 -0.14560356601E+02  0.38807537145E+02  0.43400723179E+02  0.00000000000E+00 0.  1.
         11    1    3    3    0    0 -0.30418913353E+01  0.90846446181E+01 -0.29009420621E+02  0.30550455901E+02  0.51100000000E-03 0. -1.
        -11    1    3    3    0    0 -0.10570197336E+02  0.35791958832E+01 -0.54164450462E+01  0.12404740710E+02  0.51100000000E-03 0.  1.
        -12    1    3    3    0    0  0.74376131883E+00  0.18965160996E+01 -0.43816714779E+01  0.48320802100E+01  0.00000000000E+00 0.  1.
</event>
<event>
 7    1  0.2714068E-010  0.4778728E+02  0.7816164E-02  0.1312668E+00
        -11   -1    0    0    0    0  0.00000000000E+00  0.00000000000E+00  0.45593999997E+02  0.45594000000E+02  0.51100000000E-03 0.  1.
         11   -1    0    0    0    0 -0.00000000000E+00 -0.00000000000E+00 -0.45593999997E+02  0.45594000000E+02  0.51100000000E-03 0. -1.
    9900012    2    1    2    0    0 -0.20744663967E+02  0.36720376736E+02 -0.10241849037E+02  0.47787278550E+02  0.20000034220E+02 0.  0.
        -12    1    1    2    0    0  0.20744663967E+02 -0.36720376736E+02  0.10241849037E+02  0.43400721450E+02  0.00000000000E+00 0.  1.
         11    1    3    3    0    0 -0.16746847034E+01  0.13510334694E+02 -0.95724436703E+01  0.16642277203E+02  0.51100000000E-03 0. -1.
        -11    1    3    3    0    0 -0.80799380295E+01  0.77227758161E+01 -0.39871591722E+01  0.11866933192E+02  0.51100000000E-03 0.  1.
         12    1    3    3    0    0 -0.10990041234E+02  0.15487266226E+02  0.33177538060E+01  0.19278068155E+02  0.00000000000E+00 0. -1.
</event>
<event>
 7    1  0.2714068E-010  0.4778730E+02  0.7816164E-02  0.1312668E+00
        -11   -1    0    0    0    0  0.00000000000E+00  0.00000000000E+00  0.45593999997E+02  0.45594000000E+02  0.51100000000E-03 0. -1.
         11   -1    0    0    0    0 -0.00000000000E+00 -0.00000000000E+00 -0.45593999997E+02  0.45594000000E+02  0.51100000000E-03 0.  1.
    9900012    2    1    2    0    0 -0.29511988314E+02 -0.27102910371E+02  0.16676200817E+02  0.47787298640E+02  0.20000125820E+02 0.  0.
        -12    1    1    2    0    0  0.29511988314E+02  0.27102910371E+02 -0.16676200817E+02  0.43400701360E+02  0.00000000000E+00 0.  1.
         11    1    3    3    0    0 -0.12933832892E+02 -0.18355010310E+02  0.21249024728E+01  0.22554503930E+02  0.51100000000E-03 0. -1.
        -11    1    3    3    0    0 -0.15002967751E+00 -0.28763040612E+01  0.71883033711E+00  0.29685604713E+01  0.51100000000E-03 0.  1.
         12    1    3    3    0    0 -0.16428125744E+02 -0.58715959999E+01  0.13832468007E+02  0.22264234239E+02  0.00000000000E+00 0. -1.
</event>
<event>
 7    1  0.2714068E-010  0.4778727E+02  0.7816164E-02  0.1312668E+00
        -11   -1    0    0    0    0  0.00000000000E+00  0.00000000000E+00  0.45593999997E+02  0.45594000000E+02  0.51100000000E-03 0. -1.
         11   -1    0    0    0    0 -0.00000000000E+00 -0.00000000000E+00 -0.45593999997E+02  0.45594000000E+02  0.51100000000E-03 0.  1.
    9900012    2    1    2    0    0 -0.40207477987E+02  0.11154344055E+01  0.16301462840E+02  0.47787272233E+02  0.20000005419E+02 0.  0.
        -12    1    1    2    0    0  0.40207477987E+02 -0.11154344055E+01 -0.16301462840E+02  0.43400727767E+02  0.00000000000E+00 0.  1.
         11    1    3    3    0    0 -0.18816858968E+02  0.52755709961E+01  0.10019982780E+02  0.21961463656E+02  0.51100000000E-03 0. -1.
        -11    1    3    3    0    0 -0.11756220374E+02 -0.73461606756E+01 -0.54192721764E-01  0.13862818302E+02  0.51100000000E-03 0.  1.
        -12    1    3    3    0    0 -0.96343986448E+01  0.31860240850E+01  0.63356727818E+01  0.11962990275E+02  0.00000000000E+00 0.  1.
</event>
<event>
 7    1  0.2714068E-010  0.4778728E+02  0.7816164E-02  0.1312668E+00
        -11   -1    0    0    0    0  0.00000000000E+00  0.00000000000E+00  0.45593999997E+02  0.45594000000E+02  0.51100000000E-03 0.  1.
         11   -1    0    0    0    0 -0.00000000000E+00 -0.00000000000E+00 -0.45593999997E+02  0.45594000000E+02  0.51100000000E-03 0. -1.
    9900012    2    1    2    0    0 -0.13210072451E+02 -0.17801910053E+02 -0.37312315367E+02  0.47787275424E+02  0.20000019966E+02 0.  0.
        -12    1    1    2    0    0  0.13210072451E+02  0.17801910053E+02  0.37312315367E+02  0.43400724576E+02  0.00000000000E+00 0.  1.
         11    1    3    3    0    0 -0.81098909003E+01 -0.10157073696E+02 -0.21109048332E+02  0.24789683302E+02  0.51100000000E-03 0. -1.
        -11    1    3    3    0    0 -0.13204696293E+01  0.21938307005E+01  0.10599339065E+01  0.27712800890E+01  0.51100000000E-03 0.  1.
        -12    1    3    3    0    0 -0.37797119209E+01 -0.98386670576E+01 -0.17263200942E+02  0.20226312032E+02  0.00000000000E+00 0.  1.
</event>
<event>
 7    1  0.2714068E-010  0.4778727E+02  0.7816164E-02  0.1312668E+00
        -11   -1    0    0    0    0  0.00000000000E+00  0.00000000000E+00  0.45593999997E+02  0.45594000000E+02  0.51100000000E-03 0.  1.
         11   -1    0    0    0    0 -0.00000000000E+00 -0.00000000000E+00 -0.45593999997E+02  0.45594000000E+02  0.51100000000E-03 0. -1.
    9900012    2    1    2    0    0  0.21164606181E+02 -0.36679379778E+02 -0.95029384273E+01  0.47787270807E+02  0.19999998918E+02 0.  0.
        -12    1    1    2    0    0 -0.21164606181E+02  0.36679379778E+02  0.95029384273E+01  0.43400729193E+02  0.00000000000E+00 0.  1.
         11    1    3    3    0    0  0.12060296371E+02 -0.17093217596E+02 -0.10941738942E+02  0.23608271595E+02  0.51100000000E-03 0. -1.
        -11    1    3    3    0    0  0.76839945453E+01 -0.16357377337E+02  0.54126700155E+01  0.18865433005E+02  0.51100000000E-03 0.  1.
        -12    1    3    3    0    0  0.14203152648E+01 -0.32287848450E+01 -0.39738695009E+01  0.53135662070E+01  0.00000000000E+00 0.  1.
</event>
<event>
 7    1  0.2714068E-010  0.4778727E+02  0.7816164E-02  0.1312668E+00
        -11   -1    0    0    0    0  0.00000000000E+00  0.00000000000E+00  0.45593999997E+02  0.45594000000E+02  0.51100000000E-03 0. -1.
         11   -1    0    0    0    0 -0.00000000000E+00 -0.00000000000E+00 -0.45593999997E+02  0.45594000000E+02  0.51100000000E-03 0.  1.
    9900012    2    1    2    0    0 -0.37793355637E+02 -0.15383015379E+02  0.14786775668E+02  0.47787266976E+02  0.19999981448E+02 0.  0.
        -12    1    1    2    0    0  0.37793355637E+02  0.15383015379E+02 -0.14786775668E+02  0.43400733024E+02  0.00000000000E+00 0.  1.
         11    1    3    3    0    0 -0.19225776666E+02 -0.10024853364E+02  0.61456459521E+01  0.22536573338E+02  0.51100000000E-03 0. -1.
        -11    1    3    3    0    0  0.19611704932E+01  0.33347833214E+00  0.22633496391E+01  0.30133286166E+01  0.51100000000E-03 0.  1.
        -12    1    3    3    0    0 -0.20528749464E+02 -0.56916403467E+01  0.63777800765E+01  0.22237365021E+02  0.00000000000E+00 0.  1.
</event>
<event>
 7    1  0.2714068E-010  0.4778727E+02  0.7816164E-02  0.1312668E+00
        -11   -1    0    0    0    0  0.00000000000E+00  0.00000000000E+00  0.45593999997E+02  0.45594000000E+02  0.51100000000E-03 0.  1.
         11   -1    0    0    0    0 -0.00000000000E+00 -0.00000000000E+00 -0.45593999997E+02  0.45594000000E+02  0.51100000000E-03 0. -1.
    9900012    2    1    2    0    0  0.28334731767E+02  0.10451988983E+02 -0.31169249351E+02  0.47787271859E+02  0.20000003715E+02 0.  0.
        -12    1    1    2    0    0 -0.28334731767E+02 -0.10451988983E+02  0.31169249351E+02  0.43400728141E+02  0.00000000000E+00 0.  1.
         11    1    3    3    0    0  0.15599186186E+02 -0.11883184221E+01 -0.16121205517E+02  0.22464193240E+02  0.51100000000E-03 0. -1.
        -11    1    3    3    0    0  0.26306564465E+00  0.49265777031E+01 -0.82475705281E+01  0.96105562417E+01  0.51100000000E-03 0.  1.
        -12    1    3    3    0    0  0.12472479937E+02  0.67137297025E+01 -0.68004733061E+01  0.15712522378E+02  0.00000000000E+00 0.  1.
</event>
<event>
 7    1  0.2714068E-010  0.4778728E+02  0.7816164E-02  0.1312668E+00
        -11   -1    0    0    0    0  0.00000000000E+00  0.00000000000E+00  0.45593999997E+02  0.45594000000E+02  0.51100000000E-03 0.  1.
         11   -1    0    0    0    0 -0.00000000000E+00 -0.00000000000E+00 -0.45593999997E+02  0.45594000000E+02  0.51100000000E-03 0. -1.
    9900012    2    1    2    0    0 -0.36308381238E+02  0.59809488442E+01 -0.23012002945E+02  0.47787279076E+02  0.20000036618E+02 0.  0.
        -12    1    1    2    0    0  0.36308381238E+02 -0.59809488442E+01  0.23012002945E+02  0.43400720924E+02  0.00000000000E+00 0.  1.
         11    1    3    3    0    0 -0.20783730927E+02 -0.24112469206E+00 -0.55375021984E+01  0.21510126527E+02  0.51100000000E-03 0.  1.
        -11    1    3    3    0    0 -0.11076944956E+01 -0.10078273049E+01  0.96340956150E+00  0.17806912187E+01  0.51100000000E-03 0. -1.
         12    1    3    3    0    0 -0.14416955815E+02  0.72299008412E+01 -0.18437910308E+02  0.24496461330E+02  0.00000000000E+00 0. -1.
</event>
<event>
 7    1  0.2714068E-010  0.4778725E+02  0.7816164E-02  0.1312668E+00
        -11   -1    0    0    0    0  0.00000000000E+00  0.00000000000E+00  0.45593999997E+02  0.45594000000E+02  0.51100000000E-03 0.  1.
         11   -1    0    0    0    0 -0.00000000000E+00 -0.00000000000E+00 -0.45593999997E+02  0.45594000000E+02  0.51100000000E-03 0. -1.
    9900012    2    1    2    0    0 -0.14595374833E+02  0.35642738040E+02 -0.20004874069E+02  0.47787254292E+02  0.19999923617E+02 0.  0.
        -12    1    1    2    0    0  0.14595374833E+02 -0.35642738040E+02  0.20004874069E+02  0.43400745708E+02  0.00000000000E+00 0.  1.
         11    1    3    3    0    0 -0.38338297596E+01  0.28485196796E+02 -0.11125562469E+02  0.30820169169E+02  0.51100000000E-03 0. -1.
        -11    1    3    3    0    0 -0.60121824246E+01  0.25769850475E+01 -0.79634166406E+01  0.10305493404E+02  0.51100000000E-03 0.  1.
         12    1    3    3    0    0 -0.47493626493E+01  0.45805561969E+01 -0.91589495918E+00  0.66615917185E+01  0.00000000000E+00 0. -1.
</event>
<event>
 7    1  0.2714068E-010  0.4778727E+02  0.7816164E-02  0.1312668E+00
        -11   -1    0    0    0    0  0.00000000000E+00  0.00000000000E+00  0.45593999997E+02  0.45594000000E+02  0.51100000000E-03 0. -1.
         11   -1    0    0    0    0 -0.00000000000E+00 -0.00000000000E+00 -0.45593999997E+02  0.45594000000E+02  0.51100000000E-03 0.  1.
    9900012    2    1    2    0    0 -0.31616611891E+02  0.47815083137E+01  0.29345366456E+02  0.47787268420E+02  0.19999988036E+02 0.  0.
        -12    1    1    2    0    0  0.31616611891E+02 -0.47815083137E+01 -0.29345366456E+02  0.43400731580E+02  0.00000000000E+00 0.  1.
         11    1    3    3    0    0 -0.16221886967E+02 -0.41894789517E+01  0.14758642125E+02  0.22327536100E+02  0.51100000000E-03 0.  1.
        -11    1    3    3    0    0 -0.29195714914E+01  0.74535462410E+01  0.78019646471E+01  0.11178099207E+02  0.51100000000E-03 0. -1.
         12    1    3    3    0    0 -0.12475153433E+02  0.15174410244E+01  0.67847596842E+01  0.14281633114E+02  0.00000000000E+00 0. -1.
</event>
<event>
 7    1  0.2714068E-010  0.4778727E+02  0.7816164E-02  0.1312668E+00
        -11   -1    0    0    0    0  0.00000000000E+00  0.00000000000E+00  0.45593999997E+02  0.45594000000E+02  0.51100000000E-03 0. -1.
         11   -1    0    0    0    0 -0.00000000000E+00 -0.00000000000E+00 -0.45593999997E+02  0.45594000000E+02  0.51100000000E-03 0.  1.
    9900012    2    1    2    0    0 -0.34867923946E+02 -0.15418563045E+02  0.20739316705E+02  0.47787268853E+02  0.19999990010E+02 0.  0.
        -12    1    1    2    0    0  0.34867923946E+02  0.15418563045E+02 -0.20739316705E+02  0.43400731147E+02  0.00000000000E+00 0.  1.
         11    1    3    3    0    0 -0.57571497320E+01 -0.14985922454E+01  0.37770306652E+01  0.70467377319E+01  0.51100000000E-03 0. -1.
        -11    1    3    3    0    0 -0.45475882347E+01  0.44243221521E+01  0.36308758675E+01  0.73101604007E+01  0.51100000000E-03 0.  1.
        -12    1    3    3    0    0 -0.24563185979E+02 -0.18344292952E+02  0.13331410172E+02  0.33430370721E+02  0.00000000000E+00 0.  1.
</event>
<event>
 7    1  0.2714068E-010  0.4778727E+02  0.7816164E-02  0.1312668E+00
        -11   -1    0    0    0    0  0.00000000000E+00  0.00000000000E+00  0.45593999997E+02  0.45594000000E+02  0.51100000000E-03 0.  1.
         11   -1    0    0    0    0 -0.00000000000E+00 -0.00000000000E+00 -0.45593999997E+02  0.45594000000E+02  0.51100000000E-03 0. -1.
    9900012    2    1    2    0    0 -0.14790268180E+02 -0.96179953817E+01 -0.39653061587E+02  0.47787272342E+02  0.20000005915E+02 0.  0.
        -12    1    1    2    0    0  0.14790268180E+02  0.96179953817E+01  0.39653061587E+02  0.43400727658E+02  0.00000000000E+00 0.  1.
         11    1    3    3    0    0 -0.42274314926E+01 -0.67764263198E+01 -0.33317466328E+01  0.86539971446E+01  0.51100000000E-03 0. -1.
        -11    1    3    3    0    0 -0.69057557315E+01  0.28587216895E+01 -0.14944476060E+02  0.16709252433E+02  0.51100000000E-03 0.  1.
         12    1    3    3    0    0 -0.36570809563E+01 -0.57002907514E+01 -0.21376838895E+02  0.22424022764E+02  0.00000000000E+00 0. -1.
</event>
<event>
 7    1  0.2714068E-010  0.4778727E+02  0.7816164E-02  0.1312668E+00
        -11   -1    0    0    0    0  0.00000000000E+00  0.00000000000E+00  0.45593999997E+02  0.45594000000E+02  0.51100000000E-03 0.  1.
         11   -1    0    0    0    0 -0.00000000000E+00 -0.00000000000E+00 -0.45593999997E+02  0.45594000000E+02  0.51100000000E-03 0. -1.
    9900012    2    1    2    0    0 -0.31616635766E+02  0.29061972698E+02  0.62780097115E+01  0.47787270511E+02  0.19999997567E+02 0.  0.
        -12    1    1    2    0    0  0.31616635766E+02 -0.29061972698E+02 -0.62780097115E+01  0.43400729489E+02  0.00000000000E+00 0.  1.
         11    1    3    3    0    0 -0.33064747625E+02  0.30175421992E+02  0.55077140094E+01  0.45101757636E+02  0.51100000000E-03 0. -1.
        -11    1    3    3    0    0  0.66673242234E+00 -0.14825422510E+01  0.81850287754E+00  0.18200029864E+01  0.51100000000E-03 0.  1.
         12    1    3    3    0    0  0.78137943728E+00  0.36909295688E+00 -0.48207175421E-01  0.86550988879E+00  0.00000000000E+00 0. -1.
</event>
<event>
 7    1  0.2714068E-010  0.4778727E+02  0.7816164E-02  0.1312668E+00
        -11   -1    0    0    0    0  0.00000000000E+00  0.00000000000E+00  0.45593999997E+02  0.45594000000E+02  0.51100000000E-03 0. -1.
         11   -1    0    0    0    0 -0.00000000000E+00 -0.00000000000E+00 -0.45593999997E+02  0.45594000000E+02  0.51100000000E-03 0.  1.
    9900012    2    1    2    0    0 -0.37752648929E+02 -0.21352123967E+01 -0.21302625504E+02  0.47787268595E+02  0.19999988832E+02 0.  0.
        -12    1    1    2    0    0  0.37752648929E+02  0.21352123967E+01  0.21302625504E+02  0.43400731405E+02  0.00000000000E+00 0.  1.
         11    1    3    3    0    0 -0.14902102812E+01  0.20836440512E+01 -0.20814357237E+01  0.33007081282E+01  0.51100000000E-03 0.  1.
        -11    1    3    3    0    0  0.17809287866E+01  0.20738640907E+00 -0.12088096037E+01  0.21623915891E+01  0.51100000000E-03 0. -1.
         12    1    3    3    0    0 -0.38043367434E+02 -0.44262428570E+01 -0.18012380177E+02  0.42324168878E+02  0.00000000000E+00 0. -1.
</event>
<event>
 7    1  0.2714068E-010  0.4778728E+02  0.7816164E-02  0.1312668E+00
        -11   -1    0    0    0    0  0.00000000000E+00  0.00000000000E+00  0.45593999997E+02  0.45594000000E+02  0.51100000000E-03 0.  1.
         11   -1    0    0    0    0 -0.00000000000E+00 -0.00000000000E+00 -0.45593999997E+02  0.45594000000E+02  0.51100000000E-03 0. -1.
    9900012    2    1    2    0    0  0.25175424459E+01  0.39463689339E+02 -0.17885806135E+02  0.47787275843E+02  0.20000021879E+02 0.  0.
        -12    1    1    2    0    0 -0.25175424459E+01 -0.39463689339E+02  0.17885806135E+02  0.43400724157E+02  0.00000000000E+00 0.  1.
         11    1    3    3    0    0  0.11067086926E+01  0.31505384968E+02 -0.81275095028E+01  0.32555652307E+02  0.51100000000E-03 0. -1.
        -11    1    3    3    0    0  0.41917547505E+01  0.15689988675E+01 -0.53954479322E+01  0.70102370848E+01  0.51100000000E-03 0.  1.
         12    1    3    3    0    0 -0.27809209972E+01  0.63893055037E+01 -0.43628486998E+01  0.82213864518E+01  0.00000000000E+00 0. -1.
</event>
<event>
 7    1  0.2714068E-010  0.4778727E+02  0.7816164E-02  0.1312668E+00
        -11   -1    0    0    0    0  0.00000000000E+00  0.00000000000E+00  0.45593999997E+02  0.45594000000E+02  0.51100000000E-03 0. -1.
         11   -1    0    0    0    0 -0.00000000000E+00 -0.00000000000E+00 -0.45593999997E+02  0.45594000000E+02  0.51100000000E-03 0.  1.
    9900012    2    1    2    0    0  0.14642729706E+02 -0.16066779658E+02  0.37564242608E+02  0.47787271152E+02  0.20000000492E+02 0.  0.
        -12    1    1    2    0    0 -0.14642729706E+02  0.16066779658E+02 -0.37564242608E+02  0.43400728848E+02  0.00000000000E+00 0.  1.
         11    1    3    3    0    0  0.16585254526E+00 -0.36527976358E+01  0.54610963945E+01  0.65722151308E+01  0.51100000000E-03 0. -1.
        -11    1    3    3    0    0  0.34505955675E+01 -0.10272520003E+02  0.51155886179E+01  0.11983343613E+02  0.51100000000E-03 0.  1.
        -12    1    3    3    0    0  0.11026281593E+02 -0.21414620184E+01  0.26987557595E+02  0.29231712408E+02  0.00000000000E+00 0.  1.
</event>
<event>
 7    1  0.2714068E-010  0.4778725E+02  0.7816164E-02  0.1312668E+00
        -11   -1    0    0    0    0  0.00000000000E+00  0.00000000000E+00  0.45593999997E+02  0.45594000000E+02  0.51100000000E-03 0.  1.
         11   -1    0    0    0    0 -0.00000000000E+00 -0.00000000000E+00 -0.45593999997E+02  0.45594000000E+02  0.51100000000E-03 0. -1.
    9900012    2    1    2    0    0  0.14590581666E+02  0.29160939093E+02 -0.28642269299E+02  0.47787250781E+02  0.19999907612E+02 0.  0.
        -12    1    1    2    0    0 -0.14590581666E+02 -0.29160939093E+02  0.28642269299E+02  0.43400749219E+02  0.00000000000E+00 0.  1.
         11    1    3    3    0    0  0.16179081753E+02  0.13668251257E+02 -0.18526829517E+02  0.28139424141E+02  0.51100000000E-03 0. -1.
        -11    1    3    3    0    0 -0.18262867885E+01  0.10888176005E+02 -0.34953434299E+01  0.11580376768E+02  0.51100000000E-03 0.  1.
        -12    1    3    3    0    0  0.23778670169E+00  0.46045118317E+01 -0.66200963525E+01  0.80674498722E+01  0.00000000000E+00 0.  1.
</event>
<event>
 7    1  0.2714068E-010  0.4778727E+02  0.7816164E-02  0.1312668E+00
        -11   -1    0    0    0    0  0.00000000000E+00  0.00000000000E+00  0.45593999997E+02  0.45594000000E+02  0.51100000000E-03 0. -1.
         11   -1    0    0    0    0 -0.00000000000E+00 -0.00000000000E+00 -0.45593999997E+02  0.45594000000E+02  0.51100000000E-03 0.  1.
    9900012    2    1    2    0    0  0.23251634418E+02 -0.19515925726E+02  0.31017952200E+02  0.47787271680E+02  0.20000002896E+02 0.  0.
        -12    1    1    2    0    0 -0.23251634418E+02  0.19515925726E+02 -0.31017952200E+02  0.43400728320E+02  0.00000000000E+00 0.  1.
         11    1    3    3    0    0  0.80578186521E+01 -0.38566776887E+01  0.18988976925E+02  0.20985319849E+02  0.51100000000E-03 0. -1.
        -11    1    3    3    0    0  0.79319685234E+01 -0.14457138212E+02  0.71657353907E+01  0.17979786815E+02  0.51100000000E-03 0.  1.
        -12    1    3    3    0    0  0.72618472426E+01 -0.12021098246E+01  0.48632398843E+01  0.88221650165E+01  0.00000000000E+00 0.  1.
</event>
<event>
 7    1  0.2714068E-010  0.4778728E+02  0.7816164E-02  0.1312668E+00
        -11   -1    0    0    0    0  0.00000000000E+00  0.00000000000E+00  0.45593999997E+02  0.45594000000E+02  0.51100000000E-03 0. -1.
         11   -1    0    0    0    0 -0.00000000000E+00 -0.00000000000E+00 -0.45593999997E+02  0.45594000000E+02  0.51100000000E-03 0.  1.
    9900012    2    1    2    0    0 -0.65492931473E+01 -0.21777715764E+02  0.36965668132E+02  0.47787276906E+02  0.20000026725E+02 0.  0.
        -12    1    1    2    0    0  0.65492931473E+01  0.21777715764E+02 -0.36965668132E+02  0.43400723094E+02  0.00000000000E+00 0.  1.
         11    1    3    3    0    0 -0.73033433436E+01 -0.14800681997E+02  0.14712077159E+02  0.22109821938E+02  0.51100000000E-03 0. -1.
        -11    1    3    3    0    0  0.36332685177E+01  0.72307312666E+00  0.30866247112E+01  0.48219007909E+01  0.51100000000E-03 0.  1.
        -12    1    3    3    0    0 -0.28792183215E+01 -0.77001068945E+01  0.19166966262E+02  0.20855554177E+02  0.00000000000E+00 0.  1.
</event>
<event>
 7    1  0.2714068E-010  0.4778727E+02  0.7816164E-02  0.1312668E+00
        -11   -1    0    0    0    0  0.00000000000E+00  0.00000000000E+00  0.45593999997E+02  0.45594000000E+02  0.51100000000E-03 0.  1.
         11   -1    0    0    0    0 -0.00000000000E+00 -0.00000000000E+00 -0.45593999997E+02  0.45594000000E+02  0.51100000000E-03 0. -1.
    9900012    2    1    2    0    0 -0.23775762206E+02  0.16916288636E+02 -0.32127487470E+02  0.47787272578E+02  0.20000006990E+02 0.  0.
        -12    1    1    2    0    0  0.23775762206E+02 -0.16916288636E+02  0.32127487470E+02  0.43400727422E+02  0.00000000000E+00 0.  1.
         11    1    3    3    0    0 -0.26138279364E+01 -0.15544511733E+01 -0.73110850896E+01  0.79183571768E+01  0.51100000000E-03 0. -1.
        -11    1    3    3    0    0 -0.14871101702E+02  0.19471083133E+02 -0.21906332052E+02  0.32865789637E+02  0.51100000000E-03 0.  1.
        -12    1    3    3    0    0 -0.62908325673E+01 -0.10003433238E+01 -0.29100703280E+01  0.70031257642E+01  0.00000000000E+00 0.  1.
</event>
<event>
 7    1  0.2714068E-010  0.4778728E+02  0.7816164E-02  0.1312668E+00
        -11   -1    0    0    0    0  0.00000000000E+00  0.00000000000E+00  0.45593999997E+02  0.45594000000E+02  0.51100000000E-03 0. -1.
         11   -1    0    0    0    0 -0.00000000000E+00 -0.00000000000E+00 -0.45593999997E+02  0.45594000000E+02  0.51100000000E-03 0.  1.
    9900012    2    1    2    0    0 -0.11834244590E+02 -0.38306648310E+02 -0.16618483502E+02  0.47787278304E+02  0.20000033100E+02 0.  0.
        -12    1    1    2    0    0  0.11834244590E+02  0.38306648310E+02  0.16618483502E+02  0.43400721696E+02  0.00000000000E+00 0.  1.
         11    1    3    3    0    0 -0.20924003996E+01 -0.33015225204E+00  0.12630972198E+01  0.24662835988E+01  0.51100000000E-03 0. -1.
        -11    1    3    3    0    0 -0.32799049885E+01 -0.33079292217E+02 -0.12152733405E+02  0.35393308405E+02  0.51100000000E-03 0.  1.
        -12    1    3    3    0    0 -0.64619392019E+01 -0.48972038410E+01 -0.57288473167E+01  0.99276863008E+01  0.00000000000E+00 0.  1.
</event>
<event>
 7    1  0.2714068E-010  0.4778727E+02  0.7816164E-02  0.1312668E+00
        -11   -1    0    0    0    0  0.00000000000E+00  0.00000000000E+00  0.45593999997E+02  0.45594000000E+02  0.51100000000E-03 0. -1.
         11   -1    0    0    0    0 -0.00000000000E+00 -0.00000000000E+00 -0.45593999997E+02  0.45594000000E+02  0.51100000000E-03 0.  1.
    9900012    2    1    2    0    0  0.23418537370E+02  0.96057680083E+01  0.35255131193E+02  0.47787274810E+02  0.20000017168E+02 0.  0.
        -12    1    1    2    0    0 -0.23418537370E+02 -0.96057680083E+01 -0.35255131193E+02  0.43400725190E+02  0.00000000000E+00 0.  1.
         11    1    3    3    0    0  0.56874686802E+00  0.26198113027E+01  0.11609656060E+02  0.11915158344E+02  0.51100000000E-03 0. -1.
        -11    1    3    3    0    0  0.10013938254E+02 -0.28696627933E+01  0.64162578196E+01  0.12234471324E+02  0.51100000000E-03 0.  1.
        -12    1    3    3    0    0  0.12835852249E+02  0.98556194990E+01  0.17229217314E+02  0.23637645143E+02  0.00000000000E+00 0.  1.
</event>
<event>
 7    1  0.2714068E-010  0.4778727E+02  0.7816164E-02  0.1312668E+00
        -11   -1    0    0    0    0  0.00000000000E+00  0.00000000000E+00  0.45593999997E+02  0.45594000000E+02  0.51100000000E-03 0.  1.
         11   -1    0    0    0    0 -0.00000000000E+00 -0.00000000000E+00 -0.45593999997E+02  0.45594000000E+02  0.51100000000E-03 0. -1.
    9900012    2    1    2    0    0  0.66808256492E+01 -0.32024890027E+02 -0.28520101727E+02  0.47787271721E+02  0.20000003084E+02 0.  0.
        -12    1    1    2    0    0 -0.66808256492E+01  0.32024890027E+02  0.28520101727E+02  0.43400728279E+02  0.00000000000E+00 0.  1.
         11    1    3    3    0    0  0.49051078178E+01 -0.98516698452E+01 -0.17053139896E+02  0.20295937082E+02  0.51100000000E-03 0. -1.
        -11    1    3    3    0    0 -0.32119060135E+01 -0.19523438655E+01 -0.90448689384E-01  0.37598095744E+01  0.51100000000E-03 0.  1.
        -12    1    3    3    0    0  0.49876238449E+01 -0.20220876317E+02 -0.11376513142E+02  0.23731525065E+02  0.00000000000E+00 0.  1.
</event>
<event>
 7    1  0.2714068E-010  0.4778726E+02  0.7816164E-02  0.1312668E+00
        -11   -1    0    0    0    0  0.00000000000E+00  0.00000000000E+00  0.45593999997E+02  0.45594000000E+02  0.51100000000E-03 0. -1.
         11   -1    0    0    0    0 -0.00000000000E+00 -0.00000000000E+00 -0.45593999997E+02  0.45594000000E+02  0.51100000000E-03 0.  1.
    9900012    2    1    2    0    0 -0.38313722813E+02 -0.18940161202E+02  0.75467174936E+01  0.47787262598E+02  0.19999961487E+02 0.  0.
        -12    1    1    2    0    0  0.38313722813E+02  0.18940161202E+02 -0.75467174936E+01  0.43400737402E+02  0.00000000000E+00 0.  1.
         11    1    3    3    0    0 -0.10956487596E+02  0.26833783613E+00  0.51113229742E+01  0.12093066131E+02  0.51100000000E-03 0. -1.
        -11    1    3    3    0    0 -0.27547219033E+02 -0.15207084024E+02  0.11493905372E+01  0.31486914422E+02  0.51100000000E-03 0.  1.
        -12    1    3    3    0    0  0.18998381583E+00 -0.40014150133E+01  0.12860039823E+01  0.42072820444E+01  0.00000000000E+00 0.  1.
</event>
<event>
 7    1  0.2714068E-010  0.4778727E+02  0.7816164E-02  0.1312668E+00
        -11   -1    0    0    0    0  0.00000000000E+00  0.00000000000E+00  0.45593999997E+02  0.45594000000E+02  0.51100000000E-03 0.  1.
         11   -1    0    0    0    0 -0.00000000000E+00 -0.00000000000E+00 -0.45593999997E+02  0.45594000000E+02  0.51100000000E-03 0. -1.
    9900012    2    1    2    0    0 -0.42509925838E+02  0.67512491325E+01 -0.55633280128E+01  0.47787265234E+02  0.19999973509E+02 0.  0.
        -12    1    1    2    0    0  0.42509925838E+02 -0.67512491325E+01  0.55633280128E+01  0.43400734766E+02  0.00000000000E+00 0.  1.
         11    1    3    3    0    0 -0.14344224004E+02 -0.38283464801E+01 -0.20120035876E+01  0.14982027825E+02  0.51100000000E-03 0. -1.
        -11    1    3    3    0    0 -0.20630874464E+02  0.91836949939E+01 -0.79841317789E+01  0.23952444456E+02  0.51100000000E-03 0.  1.
        -12    1    3    3    0    0 -0.75348273701E+01  0.13959006187E+01  0.44328073537E+01  0.88527929531E+01  0.00000000000E+00 0.  1.
</event>
<event>
 7    1  0.2714068E-010  0.4778727E+02  0.7816164E-02  0.1312668E+00
        -11   -1    0    0    0    0  0.00000000000E+00  0.00000000000E+00  0.45593999997E+02  0.45594000000E+02  0.51100000000E-03 0.  1.
         11   -1    0    0    0    0 -0.00000000000E+00 -0.00000000000E+00 -0.45593999997E+02  0.45594000000E+02  0.51100000000E-03 0. -1.
    9900012    2    1    2    0    0  0.90931877614E+01 -0.20169451890E+02 -0.37338057741E+02  0.47787269487E+02  0.19999992898E+02 0.  0.
        -12    1    1    2    0    0 -0.90931877614E+01  0.20169451890E+02  0.37338057741E+02  0.43400730513E+02  0.00000000000E+00 0.  1.
         11    1    3    3    0    0  0.19847010903E+01 -0.14781700467E+02 -0.11194074994E+02  0.18647922736E+02  0.51100000000E-03 0. -1.
        -11    1    3    3    0    0  0.25764037917E+01 -0.18116274723E+01 -0.94613222646E+00  0.32886193223E+01  0.51100000000E-03 0.  1.
         12    1    3    3    0    0  0.45320828794E+01 -0.35761239504E+01 -0.25197850521E+02  0.25850727429E+02  0.00000000000E+00 0. -1.
</event>
<event>
 7    1  0.2714068E-010  0.4778727E+02  0.7816164E-02  0.1312668E+00
        -11   -1    0    0    0    0  0.00000000000E+00  0.00000000000E+00  0.45593999997E+02  0.45594000000E+02  0.51100000000E-03 0.  1.
         11   -1    0    0    0    0 -0.00000000000E+00 -0.00000000000E+00 -0.45593999997E+02  0.45594000000E+02  0.51100000000E-03 0. -1.
    9900012    2    1    2    0    0 -0.54869852617E+01 -0.41244361230E+02 -0.12345819199E+02  0.47787267377E+02  0.19999983279E+02 0.  0.
        -12    1    1    2    0    0  0.54869852617E+01  0.41244361230E+02  0.12345819199E+02  0.43400732623E+02  0.00000000000E+00 0.  1.
         11    1    3    3    0    0 -0.13288035186E+01 -0.77086421555E+01 -0.17165621608E+01  0.80084623109E+01  0.51100000000E-03 0. -1.
        -11    1    3    3    0    0 -0.12164045912E+01 -0.27160444622E+02 -0.17823812327E+00  0.27188254105E+02  0.51100000000E-03 0.  1.
        -12    1    3    3    0    0 -0.29417771519E+01 -0.63752744525E+01 -0.10451018915E+02  0.12590550961E+02  0.00000000000E+00 0.  1.
</event>
<event>
 7    1  0.2714068E-010  0.4778727E+02  0.7816164E-02  0.1312668E+00
        -11   -1    0    0    0    0  0.00000000000E+00  0.00000000000E+00  0.45593999997E+02  0.45594000000E+02  0.51100000000E-03 0.  1.
         11   -1    0    0    0    0 -0.00000000000E+00 -0.00000000000E+00 -0.45593999997E+02  0.45594000000E+02  0.51100000000E-03 0. -1.
    9900012    2    1    2    0    0 -0.11309033584E+01  0.14671480615E+02 -0.40830039251E+02  0.47787269695E+02  0.19999993846E+02 0.  0.
        -12    1    1    2    0    0  0.11309033584E+01 -0.14671480615E+02  0.40830039251E+02  0.43400730305E+02  0.00000000000E+00 0.  1.
         11    1    3    3    0    0  0.36172493159E+01  0.57541742447E+01 -0.10519949295E+02  0.12524549784E+02  0.51100000000E-03 0. -1.
        -11    1    3    3    0    0 -0.10168754858E+02  0.56138735746E+01 -0.20918782841E+02  0.23927277900E+02  0.51100000000E-03 0.  1.
        -12    1    3    3    0    0  0.54206021840E+01  0.33034327953E+01 -0.93913071145E+01  0.11335442011E+02  0.00000000000E+00 0.  1.
</event>
<event>
 7    1  0.2714068E-010  0.4778727E+02  0.7816164E-02  0.1312668E+00
        -11   -1    0    0    0    0  0.00000000000E+00  0.00000000000E+00  0.45593999997E+02  0.45594000000E+02  0.51100000000E-03 0.  1.
         11   -1    0    0    0    0 -0.00000000000E+00 -0.00000000000E+00 -0.45593999997E+02  0.45594000000E+02  0.51100000000E-03 0. -1.
    9900012    2    1    2    0    0 -0.11357096002E+02  0.41397231176E+02  0.63959956948E+01  0.47787272592E+02  0.20000007056E+02 0.  0.
        -12    1    1    2    0    0  0.11357096002E+02 -0.41397231176E+02 -0.63959956948E+01  0.43400727408E+02  0.00000000000E+00 0.  1.
         11    1    3    3    0    0 -0.39005596593E+01  0.14253676480E+02 -0.26593035762E+00  0.14780134576E+02  0.51100000000E-03 0. -1.
        -11    1    3    3    0    0 -0.56448978172E+01  0.11277923226E+02 -0.46457662582E+01  0.13440222024E+02  0.51100000000E-03 0.  1.
        -12    1    3    3    0    0 -0.18116385251E+01  0.15865631469E+02  0.11307692311E+02  0.19566915992E+02  0.00000000000E+00 0.  1.
</event>
<event>
 7    1  0.2714068E-010  0.4778727E+02  0.7816164E-02  0.1312668E+00
        -11   -1    0    0    0    0  0.00000000000E+00  0.00000000000E+00  0.45593999997E+02  0.45594000000E+02  0.51100000000E-03 0.  1.
         11   -1    0    0    0    0 -0.00000000000E+00 -0.00000000000E+00 -0.45593999997E+02  0.45594000000E+02  0.51100000000E-03 0. -1.
    9900012    2    1    2    0    0 -0.40405030764E+02 -0.48977271227E+01 -0.15068810403E+02  0.47787270870E+02  0.19999999206E+02 0.  0.
        -12    1    1    2    0    0  0.40405030764E+02  0.48977271227E+01  0.15068810403E+02  0.43400729130E+02  0.00000000000E+00 0.  1.
         11    1    3    3    0    0 -0.18696610934E+02 -0.69894727957E+01 -0.16043499357E+02  0.25608784865E+02  0.51100000000E-03 0. -1.
        -11    1    3    3    0    0 -0.15579625856E+02  0.88654855125E+00  0.23552469126E+01  0.15781568313E+02  0.51100000000E-03 0.  1.
        -12    1    3    3    0    0 -0.61287939743E+01  0.12051971218E+01 -0.13805579578E+01  0.63969176919E+01  0.00000000000E+00 0.  1.
</event>
<event>
 7    1  0.2714068E-010  0.4778727E+02  0.7816164E-02  0.1312668E+00
        -11   -1    0    0    0    0  0.00000000000E+00  0.00000000000E+00  0.45593999997E+02  0.45594000000E+02  0.51100000000E-03 0.  1.
         11   -1    0    0    0    0 -0.00000000000E+00 -0.00000000000E+00 -0.45593999997E+02  0.45594000000E+02  0.51100000000E-03 0. -1.
    9900012    2    1    2    0    0 -0.98904864609E+01  0.28979940203E+02  0.30756536843E+02  0.47787271720E+02  0.20000003081E+02 0.  0.
        -12    1    1    2    0    0  0.98904864609E+01 -0.28979940203E+02 -0.30756536843E+02  0.43400728280E+02  0.00000000000E+00 0.  1.
         11    1    3    3    0    0  0.53917289311E+00  0.21443952189E+02  0.21396122758E+02  0.30297324341E+02  0.51100000000E-03 0. -1.
        -11    1    3    3    0    0 -0.41149129162E+01 -0.17005750803E+00  0.53466423528E+01  0.67489267720E+01  0.51100000000E-03 0.  1.
         12    1    3    3    0    0 -0.63147464378E+01  0.77060455219E+01  0.40137717329E+01  0.10741020607E+02  0.00000000000E+00 0. -1.
</event>
<event>
 7    1  0.2714068E-010  0.4778727E+02  0.7816164E-02  0.1312668E+00
        -11   -1    0    0    0    0  0.00000000000E+00  0.00000000000E+00  0.45593999997E+02  0.45594000000E+02  0.51100000000E-03 0.  1.
         11   -1    0    0    0    0 -0.00000000000E+00 -0.00000000000E+00 -0.45593999997E+02  0.45594000000E+02  0.51100000000E-03 0. -1.
    9900012    2    1    2    0    0  0.29157228570E+01  0.98989032865E+01 -0.42156065561E+02  0.47787267407E+02  0.19999983416E+02 0.  0.
        -12    1    1    2    0    0 -0.29157228570E+01 -0.98989032865E+01  0.42156065561E+02  0.43400732593E+02  0.00000000000E+00 0.  1.
         11    1    3    3    0    0 -0.98200921789E+00  0.20534312857E+01 -0.35855788105E+01  0.42470340023E+01  0.51100000000E-03 0. -1.
        -11    1    3    3    0    0 -0.61323882369E+01  0.10990255418E+01 -0.22997216530E+02  0.23826162322E+02  0.51100000000E-03 0.  1.
        -12    1    3    3    0    0  0.10030120312E+02  0.67464464590E+01 -0.15573270221E+02  0.19714071083E+02  0.00000000000E+00 0.  1.
</event>
<event>
 7    1  0.2714068E-010  0.4778727E+02  0.7816164E-02  0.1312668E+00
        -11   -1    0    0    0    0  0.00000000000E+00  0.00000000000E+00  0.45593999997E+02  0.45594000000E+02  0.51100000000E-03 0.  1.
         11   -1    0    0    0    0 -0.00000000000E+00 -0.00000000000E+00 -0.45593999997E+02  0.45594000000E+02  0.51100000000E-03 0. -1.
    9900012    2    1    2    0    0 -0.27345356881E+01 -0.27516165337E+02 -0.33451548067E+02  0.47787272951E+02  0.20000008694E+02 0.  0.
        -12    1    1    2    0    0  0.27345356881E+01  0.27516165337E+02  0.33451548067E+02  0.43400727049E+02  0.00000000000E+00 0.  1.
         11    1    3    3    0    0  0.17694024818E+01 -0.12658177420E+02 -0.24079479194E+02  0.27261356519E+02  0.51100000000E-03 0. -1.
        -11    1    3    3    0    0 -0.29614258273E+00 -0.79971569897E+00  0.18600140298E+01  0.20461911154E+01  0.51100000000E-03 0.  1.
         12    1    3    3    0    0 -0.42077955873E+01 -0.14058272218E+02 -0.11232082903E+02  0.18479725317E+02  0.00000000000E+00 0. -1.
</event>
<event>
 7    1  0.2714068E-010  0.4778727E+02  0.7816164E-02  0.1312668E+00
        -11   -1    0    0    0    0  0.00000000000E+00  0.00000000000E+00  0.45593999997E+02  0.45594000000E+02  0.51100000000E-03 0. -1.
         11   -1    0    0    0    0 -0.00000000000E+00 -0.00000000000E+00 -0.45593999997E+02  0.45594000000E+02  0.51100000000E-03 0.  1.
    9900012    2    1    2    0    0 -0.38324882499E+02  0.16717676906E+02 -0.11633821864E+02  0.47787272462E+02  0.20000006462E+02 0.  0.
        -12    1    1    2    0    0  0.38324882499E+02 -0.16717676906E+02  0.11633821864E+02  0.43400727538E+02  0.00000000000E+00 0.  1.
         11    1    3    3    0    0 -0.46684278141E+01  0.89112987941E+01 -0.17227019370E+00  0.10061567558E+02  0.51100000000E-03 0. -1.
        -11    1    3    3    0    0 -0.26021012935E+02  0.29678451171E+01 -0.51247872531E+01  0.26686413462E+02  0.51100000000E-03 0.  1.
         12    1    3    3    0    0 -0.76354417503E+01  0.48385329943E+01 -0.63367644168E+01  0.11039291442E+02  0.00000000000E+00 0. -1.
</event>
<event>
 7    1  0.2714068E-010  0.4778727E+02  0.7816164E-02  0.1312668E+00
        -11   -1    0    0    0    0  0.00000000000E+00  0.00000000000E+00  0.45593999997E+02  0.45594000000E+02  0.51100000000E-03 0.  1.
         11   -1    0    0    0    0 -0.00000000000E+00 -0.00000000000E+00 -0.45593999997E+02  0.45594000000E+02  0.51100000000E-03 0. -1.
    9900012    2    1    2    0    0 -0.14349375848E+01 -0.41565268025E+02 -0.12405369198E+02  0.47787265711E+02  0.19999975683E+02 0.  0.
        -12    1    1    2    0    0  0.14349375848E+01  0.41565268025E+02  0.12405369198E+02  0.43400734289E+02  0.00000000000E+00 0.  1.
         11    1    3    3    0    0 -0.30545788668E+01 -0.39455973837E+02 -0.11121329247E+02  0.41107034531E+02  0.51100000000E-03 0. -1.
        -11    1    3    3    0    0  0.38901791444E+01 -0.14973297120E+01 -0.48446134041E+00  0.41964500585E+01  0.51100000000E-03 0.  1.
        -12    1    3    3    0    0 -0.22705378624E+01 -0.61196447661E+00 -0.79957861060E+00  0.24837811215E+01  0.00000000000E+00 0.  1.
</event>
<event>
 7    1  0.2714068E-010  0.4778727E+02  0.7816164E-02  0.1312668E+00
        -11   -1    0    0    0    0  0.00000000000E+00  0.00000000000E+00  0.45593999997E+02  0.45594000000E+02  0.51100000000E-03 0. -1.
         11   -1    0    0    0    0 -0.00000000000E+00 -0.00000000000E+00 -0.45593999997E+02  0.45594000000E+02  0.51100000000E-03 0.  1.
    9900012    2    1    2    0    0  0.33983216616E+02 -0.20018978224E+02  0.18110905987E+02  0.47787269403E+02  0.19999992517E+02 0.  0.
        -12    1    1    2    0    0 -0.33983216616E+02  0.20018978224E+02 -0.18110905987E+02  0.43400730597E+02  0.00000000000E+00 0.  1.
         11    1    3    3    0    0  0.14976473394E+02 -0.59586993132E+01  0.36282816798E+01  0.16521660964E+02  0.51100000000E-03 0. -1.
        -11    1    3    3    0    0  0.72339557558E+01 -0.12581672700E+02  0.12664522762E+02  0.19261846767E+02  0.51100000000E-03 0.  1.
        -12    1    3    3    0    0  0.11772787466E+02 -0.14786062106E+01  0.18181015447E+01  0.12003761672E+02  0.00000000000E+00 0.  1.
</event>
<event>
 7    1  0.2714068E-010  0.4778721E+02  0.7816164E-02  0.1312668E+00
        -11   -1    0    0    0    0  0.00000000000E+00  0.00000000000E+00  0.45593999997E+02  0.45594000000E+02  0.51100000000E-03 0.  1.
         11   -1    0    0    0    0 -0.00000000000E+00 -0.00000000000E+00 -0.45593999997E+02  0.45594000000E+02  0.51100000000E-03 0. -1.
    9900012    2    1    2    0    0  0.35899936937E+02 -0.72794149979E+01 -0.23277318190E+02  0.47787206264E+02  0.19999704637E+02 0.  0.
        -12    1    1    2    0    0 -0.35899936937E+02  0.72794149979E+01  0.23277318190E+02  0.43400793736E+02  0.00000000000E+00 0.  1.
         11    1    3    3    0    0  0.12223228641E+02  0.91188429272E+00 -0.32502879001E+01  0.12680821073E+02  0.51100000000E-03 0. -1.
        -11    1    3    3    0    0  0.69231562421E+01 -0.67770887061E+00 -0.14250875808E+02  0.15858021416E+02  0.51100000000E-03 0.  1.
        -12    1    3    3    0    0  0.16753552054E+02 -0.75135904200E+01 -0.57761544816E+01  0.19248363775E+02  0.00000000000E+00 0.  1.
</event>
<event>
 7    1  0.2714068E-010  0.4778727E+02  0.7816164E-02  0.1312668E+00
        -11   -1    0    0    0    0  0.00000000000E+00  0.00000000000E+00  0.45593999997E+02  0.45594000000E+02  0.51100000000E-03 0.  1.
         11   -1    0    0    0    0 -0.00000000000E+00 -0.00000000000E+00 -0.45593999997E+02  0.45594000000E+02  0.51100000000E-03 0. -1.
    9900012    2    1    2    0    0 -0.30061553108E+02  0.37613751741E+01 -0.31076971421E+02  0.47787273380E+02  0.20000010649E+02 0.  0.
        -12    1    1    2    0    0  0.30061553108E+02 -0.37613751741E+01  0.31076971421E+02  0.43400726620E+02  0.00000000000E+00 0.  1.
         11    1    3    3    0    0 -0.69092440084E+01  0.78972849508E+01 -0.64397301615E+01  0.12311575333E+02  0.51100000000E-03 0. -1.
        -11    1    3    3    0    0 -0.16968191563E+02 -0.66001623214E+01 -0.21325844018E+02  0.28040565096E+02  0.51100000000E-03 0.  1.
        -12    1    3    3    0    0 -0.61841175366E+01  0.24642525448E+01 -0.33113972416E+01  0.74351329512E+01  0.00000000000E+00 0.  1.
</event>
<event>
 7    1  0.2714068E-010  0.4778726E+02  0.7816164E-02  0.1312668E+00
        -11   -1    0    0    0    0  0.00000000000E+00  0.00000000000E+00  0.45593999997E+02  0.45594000000E+02  0.51100000000E-03 0.  1.
         11   -1    0    0    0    0 -0.00000000000E+00 -0.00000000000E+00 -0.45593999997E+02  0.45594000000E+02  0.51100000000E-03 0. -1.
    9900012    2    1    2    0    0 -0.98350173866E+01  0.33801177202E+02 -0.25384583390E+02  0.47787260132E+02  0.19999950245E+02 0.  0.
        -12    1    1    2    0    0  0.98350173866E+01 -0.33801177202E+02  0.25384583390E+02  0.43400739868E+02  0.00000000000E+00 0.  1.
         11    1    3    3    0    0 -0.20117225977E+01  0.73099224670E+01 -0.23959924415E+00  0.75854731126E+01  0.51100000000E-03 0. -1.
        -11    1    3    3    0    0 -0.21965692916E+00  0.22999023631E+02 -0.18401225449E+02  0.29455193692E+02  0.51100000000E-03 0.  1.
        -12    1    3    3    0    0 -0.76036378597E+01  0.34922311039E+01 -0.67437586967E+01  0.10746593327E+02  0.00000000000E+00 0.  1.
</event>
<event>
 7    1  0.2714068E-010  0.4778727E+02  0.7816164E-02  0.1312668E+00
        -11   -1    0    0    0    0  0.00000000000E+00  0.00000000000E+00  0.45593999997E+02  0.45594000000E+02  0.51100000000E-03 0.  1.
         11   -1    0    0    0    0 -0.00000000000E+00 -0.00000000000E+00 -0.45593999997E+02  0.45594000000E+02  0.51100000000E-03 0. -1.
    9900012    2    1    2    0    0 -0.18607963401E+02 -0.23022081641E+02 -0.31738792716E+02  0.47787268346E+02  0.19999987698E+02 0.  0.
        -12    1    1    2    0    0  0.18607963401E+02  0.23022081641E+02  0.31738792716E+02  0.43400731654E+02  0.00000000000E+00 0.  1.
         11    1    3    3    0    0 -0.74839963654E+01 -0.12063735825E+02 -0.31524816807E+01  0.14542422929E+02  0.51100000000E-03 0. -1.
        -11    1    3    3    0    0 -0.72457278070E+01 -0.36390262979E+01 -0.18460003967E+02  0.20162212938E+02  0.51100000000E-03 0.  1.
         12    1    3    3    0    0 -0.38782392288E+01 -0.73193195180E+01 -0.10126307068E+02  0.13082632478E+02  0.00000000000E+00 0. -1.
</event>
<event>
 7    1  0.2714068E-010  0.4778727E+02  0.7816164E-02  0.1312668E+00
        -11   -1    0    0    0    0  0.00000000000E+00  0.00000000000E+00  0.45593999997E+02  0.45594000000E+02  0.51100000000E-03 0.  1.
         11   -1    0    0    0    0 -0.00000000000E+00 -0.00000000000E+00 -0.45593999997E+02  0.45594000000E+02  0.51100000000E-03 0. -1.
    9900012    2    1    2    0    0 -0.28507315165E+02  0.12885474586E+02 -0.30081901858E+02  0.47787270828E+02  0.19999999015E+02 0.  0.
        -12    1    1    2    0    0  0.28507315165E+02 -0.12885474586E+02  0.30081901858E+02  0.43400729172E+02  0.00000000000E+00 0.  1.
         11    1    3    3    0    0 -0.21578606155E+02  0.37548087350E+01 -0.12060980585E+02  0.25004041376E+02  0.51100000000E-03 0. -1.
        -11    1    3    3    0    0 -0.84991666599E+00  0.38869010087E+01 -0.12294201067E+02  0.12921986609E+02  0.51100000000E-03 0.  1.
        -12    1    3    3    0    0 -0.60787923447E+01  0.52437648422E+01 -0.57267202061E+01  0.98612428430E+01  0.00000000000E+00 0.  1.
</event>
<event>
 7    1  0.2714068E-010  0.4778727E+02  0.7816164E-02  0.1312668E+00
        -11   -1    0    0    0    0  0.00000000000E+00  0.00000000000E+00  0.45593999997E+02  0.45594000000E+02  0.51100000000E-03 0.  1.
         11   -1    0    0    0    0 -0.00000000000E+00 -0.00000000000E+00 -0.45593999997E+02  0.45594000000E+02  0.51100000000E-03 0. -1.
    9900012    2    1    2    0    0  0.12773447901E+02 -0.35267124562E+02 -0.21833279444E+02  0.47787272617E+02  0.20000007168E+02 0.  0.
        -12    1    1    2    0    0 -0.12773447901E+02  0.35267124562E+02  0.21833279444E+02  0.43400727383E+02  0.00000000000E+00 0.  1.
         11    1    3    3    0    0  0.16221532907E+01 -0.14292873634E+02 -0.32056081613E+01  0.14737487641E+02  0.51100000000E-03 0. -1.
        -11    1    3    3    0    0  0.20178434943E+01 -0.83241528057E+00 -0.84081449141E+01  0.86868583921E+01  0.51100000000E-03 0.  1.
        -12    1    3    3    0    0  0.91334511159E+01 -0.20141835647E+02 -0.10219526369E+02  0.24362926584E+02  0.00000000000E+00 0.  1.
</event>
<event>
 7    1  0.2714068E-010  0.4778728E+02  0.7816164E-02  0.1312668E+00
        -11   -1    0    0    0    0  0.00000000000E+00  0.00000000000E+00  0.45593999997E+02  0.45594000000E+02  0.51100000000E-03 0. -1.
         11   -1    0    0    0    0 -0.00000000000E+00 -0.00000000000E+00 -0.45593999997E+02  0.45594000000E+02  0.51100000000E-03 0.  1.
    9900012    2    1    2    0    0  0.20050928149E+02 -0.19351183293E+02  0.33273335905E+02  0.47787275390E+02  0.20000019811E+02 0.  0.
        -12    1    1    2    0    0 -0.20050928149E+02  0.19351183293E+02 -0.33273335905E+02  0.43400724610E+02  0.00000000000E+00 0.  1.
         11    1    3    3    0    0  0.14506291914E+02 -0.20193393940E+02  0.19901522957E+02  0.31847704472E+02  0.51100000000E-03 0. -1.
        -11    1    3    3    0    0  0.68487305530E+01  0.15396825826E+01  0.12101179088E+02  0.13989791572E+02  0.51100000000E-03 0.  1.
         12    1    3    3    0    0 -0.13040943175E+01 -0.69747193571E+00  0.12706338599E+01  0.19497793455E+01  0.00000000000E+00 0. -1.
</event>
<event>
 7    1  0.2714068E-010  0.4778727E+02  0.7816164E-02  0.1312668E+00
        -11   -1    0    0    0    0  0.00000000000E+00  0.00000000000E+00  0.45593999997E+02  0.45594000000E+02  0.51100000000E-03 0.  1.
         11   -1    0    0    0    0 -0.00000000000E+00 -0.00000000000E+00 -0.45593999997E+02  0.45594000000E+02  0.51100000000E-03 0. -1.
    9900012    2    1    2    0    0  0.33279396195E+02  0.25474102871E+02  0.11277213458E+02  0.47787266463E+02  0.19999979111E+02 0.  0.
        -12    1    1    2    0    0 -0.33279396195E+02 -0.25474102871E+02 -0.11277213458E+02  0.43400733537E+02  0.00000000000E+00 0.  1.
         11    1    3    3    0    0  0.20768650494E+02  0.11173668383E+02  0.92668813492E+00  0.23601831701E+02  0.51100000000E-03 0. -1.
        -11    1    3    3    0    0  0.53558650791E+01  0.96231111643E+01  0.11059811536E+02  0.15607978431E+02  0.51100000000E-03 0.  1.
        -12    1    3    3    0    0  0.71548806219E+01  0.46773233237E+01 -0.70928621288E+00  0.85774563315E+01  0.00000000000E+00 0.  1.
</event>
<event>
 7    1  0.2714068E-010  0.4778727E+02  0.7816164E-02  0.1312668E+00
        -11   -1    0    0    0    0  0.00000000000E+00  0.00000000000E+00  0.45593999997E+02  0.45594000000E+02  0.51100000000E-03 0. -1.
         11   -1    0    0    0    0 -0.00000000000E+00 -0.00000000000E+00 -0.45593999997E+02  0.45594000000E+02  0.51100000000E-03 0.  1.
    9900012    2    1    2    0    0 -0.12483876886E+02 -0.40612357072E+02  0.88550931573E+01  0.47787269547E+02  0.19999993172E+02 0.  0.
        -12    1    1    2    0    0  0.12483876886E+02  0.40612357072E+02 -0.88550931573E+01  0.43400730453E+02  0.00000000000E+00 0.  1.
         11    1    3    3    0    0 -0.32977019896E+00 -0.24855050554E+02 -0.13640591957E+01  0.24894636856E+02  0.51100000000E-03 0. -1.
        -11    1    3    3    0    0 -0.92656925053E+01 -0.81809657064E+01  0.57210784078E+01  0.13620278848E+02  0.51100000000E-03 0.  1.
        -12    1    3    3    0    0 -0.28884141813E+01 -0.75763408114E+01  0.44980739453E+01  0.92723538431E+01  0.00000000000E+00 0.  1.
</event>
<event>
 7    1  0.2714068E-010  0.4778727E+02  0.7816164E-02  0.1312668E+00
        -11   -1    0    0    0    0  0.00000000000E+00  0.00000000000E+00  0.45593999997E+02  0.45594000000E+02  0.51100000000E-03 0.  1.
         11   -1    0    0    0    0 -0.00000000000E+00 -0.00000000000E+00 -0.45593999997E+02  0.45594000000E+02  0.51100000000E-03 0. -1.
    9900012    2    1    2    0    0 -0.87711330945E+01 -0.35514027302E+02 -0.23354761052E+02  0.47787265274E+02  0.19999973689E+02 0.  0.
        -12    1    1    2    0    0  0.87711330945E+01  0.35514027302E+02  0.23354761052E+02  0.43400734726E+02  0.00000000000E+00 0.  1.
         11    1    3    3    0    0 -0.94027428059E+01 -0.24685157620E+02 -0.23594527087E+02  0.35418502054E+02  0.51100000000E-03 0. -1.
        -11    1    3    3    0    0 -0.15810173716E+01 -0.95880599638E+01 -0.48756510940E+00  0.97297600071E+01  0.51100000000E-03 0.  1.
         12    1    3    3    0    0  0.22126270830E+01 -0.12408097183E+01  0.72733114392E+00  0.26390032130E+01  0.00000000000E+00 0. -1.
</event>
<event>
 7    1  0.2714068E-010  0.4778728E+02  0.7816164E-02  0.1312668E+00
        -11   -1    0    0    0    0  0.00000000000E+00  0.00000000000E+00  0.45593999997E+02  0.45594000000E+02  0.51100000000E-03 0.  1.
         11   -1    0    0    0    0 -0.00000000000E+00 -0.00000000000E+00 -0.45593999997E+02  0.45594000000E+02  0.51100000000E-03 0. -1.
    9900012    2    1    2    0    0 -0.40899779689E+01 -0.38222125762E+02 -0.20148548174E+02  0.47787276376E+02  0.20000024310E+02 0.  0.
        -12    1    1    2    0    0  0.40899779689E+01  0.38222125762E+02  0.20148548174E+02  0.43400723624E+02  0.00000000000E+00 0.  1.
         11    1    3    3    0    0 -0.49452300545E+01 -0.35778005350E+02 -0.19622685642E+02  0.41104388564E+02  0.51100000000E-03 0. -1.
        -11    1    3    3    0    0  0.33312209729E+01 -0.23566962154E+01  0.24584844742E+00  0.40879691709E+01  0.51100000000E-03 0.  1.
        -12    1    3    3    0    0 -0.24759688873E+01 -0.87424196088E-01 -0.77171097900E+00  0.25949186415E+01  0.00000000000E+00 0.  1.
</event>
<event>
 7    1  0.2714068E-010  0.4778726E+02  0.7816164E-02  0.1312668E+00
        -11   -1    0    0    0    0  0.00000000000E+00  0.00000000000E+00  0.45593999997E+02  0.45594000000E+02  0.51100000000E-03 0.  1.
         11   -1    0    0    0    0 -0.00000000000E+00 -0.00000000000E+00 -0.45593999997E+02  0.45594000000E+02  0.51100000000E-03 0. -1.
    9900012    2    1    2    0    0  0.25382494700E+02 -0.30394054219E+00 -0.35203132431E+02  0.47787263255E+02  0.19999964486E+02 0.  0.
        -12    1    1    2    0    0 -0.25382494700E+02  0.30394054219E+00  0.35203132431E+02  0.43400736745E+02  0.00000000000E+00 0.  1.
         11    1    3    3    0    0  0.15114156392E+02 -0.30916119995E+01 -0.83775904996E+01  0.17555050870E+02  0.51100000000E-03 0. -1.
        -11    1    3    3    0    0  0.18899447229E+01  0.22603983459E+01 -0.17241134001E+02  0.17491083261E+02  0.51100000000E-03 0.  1.
         12    1    3    3    0    0  0.83783935846E+01  0.52727311146E+00 -0.95844079308E+01  0.12741129125E+02  0.00000000000E+00 0. -1.
</event>
<event>
 7    1  0.2714068E-010  0.4778727E+02  0.7816164E-02  0.1312668E+00
        -11   -1    0    0    0    0  0.00000000000E+00  0.00000000000E+00  0.45593999997E+02  0.45594000000E+02  0.51100000000E-03 0.  1.
         11   -1    0    0    0    0 -0.00000000000E+00 -0.00000000000E+00 -0.45593999997E+02  0.45594000000E+02  0.51100000000E-03 0. -1.
    9900012    2    1    2    0    0 -0.25258309849E+02 -0.23053913248E+02 -0.26723736828E+02  0.47787271406E+02  0.20000001648E+02 0.  0.
        -12    1    1    2    0    0  0.25258309849E+02  0.23053913248E+02  0.26723736828E+02  0.43400728594E+02  0.00000000000E+00 0.  1.
         11    1    3    3    0    0 -0.22330376479E+02 -0.17060107385E+02 -0.21706176552E+02  0.35508464884E+02  0.51100000000E-03 0. -1.
        -11    1    3    3    0    0 -0.40155946490E+00 -0.79575824137E+01 -0.40372019094E+01  0.89321535697E+01  0.51100000000E-03 0.  1.
         12    1    3    3    0    0 -0.25263739054E+01  0.19637765511E+01 -0.98035836636E+00  0.33466529517E+01  0.00000000000E+00 0. -1.
</event>
<event>
 7    1  0.2714068E-010  0.4778727E+02  0.7816164E-02  0.1312668E+00
        -11   -1    0    0    0    0  0.00000000000E+00  0.00000000000E+00  0.45593999997E+02  0.45594000000E+02  0.51100000000E-03 0. -1.
         11   -1    0    0    0    0 -0.00000000000E+00 -0.00000000000E+00 -0.45593999997E+02  0.45594000000E+02  0.51100000000E-03 0.  1.
    9900012    2    1    2    0    0  0.13875444746E+02 -0.39727087566E+02 -0.10623260644E+02  0.47787272816E+02  0.20000008078E+02 0.  0.
        -12    1    1    2    0    0 -0.13875444746E+02  0.39727087566E+02  0.10623260644E+02  0.43400727184E+02  0.00000000000E+00 0.  1.
         11    1    3    3    0    0  0.65690256899E+01 -0.19468971011E+01 -0.78701256920E+00  0.68965133134E+01  0.51100000000E-03 0. -1.
        -11    1    3    3    0    0  0.25574391073E+01 -0.19711037466E+02 -0.99056622187E+01  0.22207828283E+02  0.51100000000E-03 0.  1.
         12    1    3    3    0    0  0.47489799485E+01 -0.18069152999E+02  0.69414143907E-01  0.18682931220E+02  0.00000000000E+00 0. -1.
</event>
<event>
 7    1  0.2714068E-010  0.4778727E+02  0.7816164E-02  0.1312668E+00
        -11   -1    0    0    0    0  0.00000000000E+00  0.00000000000E+00  0.45593999997E+02  0.45594000000E+02  0.51100000000E-03 0.  1.
         11   -1    0    0    0    0 -0.00000000000E+00 -0.00000000000E+00 -0.45593999997E+02  0.45594000000E+02  0.51100000000E-03 0. -1.
    9900012    2    1    2    0    0 -0.38970521401E+02  0.14306935054E+02  0.12658335608E+02  0.47787269715E+02  0.19999993936E+02 0.  0.
        -12    1    1    2    0    0  0.38970521401E+02 -0.14306935054E+02 -0.12658335608E+02  0.43400730285E+02  0.00000000000E+00 0.  1.
         11    1    3    3    0    0 -0.22650149682E+02  0.10401334824E+02  0.58868485109E+01  0.25609998680E+02  0.51100000000E-03 0. -1.
        -11    1    3    3    0    0 -0.44178279882E+01 -0.43425771224E+01  0.85616863183E-02  0.61947763286E+01  0.51100000000E-03 0.  1.
        -12    1    3    3    0    0 -0.11902543732E+02  0.82481773528E+01  0.67629254108E+01  0.15982494706E+02  0.00000000000E+00 0.  1.
</event>
<event>
 7    1  0.2714068E-010  0.4778727E+02  0.7816164E-02  0.1312668E+00
        -11   -1    0    0    0    0  0.00000000000E+00  0.00000000000E+00  0.45593999997E+02  0.45594000000E+02  0.51100000000E-03 0.  1.
         11   -1    0    0    0    0 -0.00000000000E+00 -0.00000000000E+00 -0.45593999997E+02  0.45594000000E+02  0.51100000000E-03 0. -1.
    9900012    2    1    2    0    0 -0.42834628556E+02 -0.55140443613E+01 -0.42910512959E+01  0.47787271781E+02  0.20000003359E+02 0.  0.
        -12    1    1    2    0    0  0.42834628556E+02  0.55140443613E+01  0.42910512959E+01  0.43400728219E+02  0.00000000000E+00 0.  1.
         11    1    3    3    0    0 -0.58754613995E+01 -0.70386369631E+01  0.21126778944E+01  0.94088716168E+01  0.51100000000E-03 0. -1.
        -11    1    3    3    0    0 -0.33313169344E+02 -0.10776898396E+01 -0.61384268180E+01  0.33891133814E+02  0.51100000000E-03 0.  1.
        -12    1    3    3    0    0 -0.36459978116E+01  0.26022824413E+01 -0.26530237228E+00  0.44872663500E+01  0.00000000000E+00 0.  1.
</event>
<event>
 7    1  0.2714068E-010  0.4778727E+02  0.7816164E-02  0.1312668E+00
        -11   -1    0    0    0    0  0.00000000000E+00  0.00000000000E+00  0.45593999997E+02  0.45594000000E+02  0.51100000000E-03 0.  1.
         11   -1    0    0    0    0 -0.00000000000E+00 -0.00000000000E+00 -0.45593999997E+02  0.45594000000E+02  0.51100000000E-03 0. -1.
    9900012    2    1    2    0    0  0.21344894018E+02  0.52830123115E+00 -0.37785446947E+02  0.47787267244E+02  0.19999982671E+02 0.  0.
        -12    1    1    2    0    0 -0.21344894018E+02 -0.52830123115E+00  0.37785446947E+02  0.43400732756E+02  0.00000000000E+00 0.  1.
         11    1    3    3    0    0  0.18015319120E+01 -0.42691394104E+01 -0.13623735981E+02  0.14390178973E+02  0.51100000000E-03 0. -1.
        -11    1    3    3    0    0  0.11108263464E+02  0.82328821900E+01 -0.12864286731E+02  0.18885543140E+02  0.51100000000E-03 0.  1.
         12    1    3    3    0    0  0.84350986425E+01 -0.34354415485E+01 -0.11297424234E+02  0.14511545130E+02  0.00000000000E+00 0. -1.
</event>
<event>
 7    1  0.2714068E-010  0.4778727E+02  0.7816164E-02  0.1312668E+00
        -11   -1    0    0    0    0  0.00000000000E+00  0.00000000000E+00  0.45593999997E+02  0.45594000000E+02  0.51100000000E-03 0.  1.
         11   -1    0    0    0    0 -0.00000000000E+00 -0.00000000000E+00 -0.45593999997E+02  0.45594000000E+02  0.51100000000E-03 0. -1.
    9900012    2    1    2    0    0 -0.92295595366E-02 -0.38336770961E+02 -0.20344905491E+02  0.47787271062E+02  0.20000000081E+02 0.  0.
        -12    1    1    2    0    0  0.92295595366E-02  0.38336770961E+02  0.20344905491E+02  0.43400728938E+02  0.00000000000E+00 0.  1.
         11    1    3    3    0    0 -0.14577527460E+01 -0.75752369452E+01 -0.20839513162E+01  0.79907516038E+01  0.51100000000E-03 0. -1.
        -11    1    3    3    0    0 -0.67517540590E+01 -0.10299098319E+02 -0.21712775631E+01  0.12504881270E+02  0.51100000000E-03 0.  1.
        -12    1    3    3    0    0  0.82002772454E+01 -0.20462435697E+02 -0.16089676612E+02  0.27291638189E+02  0.00000000000E+00 0.  1.
</event>
<event>
 7    1  0.2714068E-010  0.4778727E+02  0.7816164E-02  0.1312668E+00
        -11   -1    0    0    0    0  0.00000000000E+00  0.00000000000E+00  0.45593999997E+02  0.45594000000E+02  0.51100000000E-03 0. -1.
         11   -1    0    0    0    0 -0.00000000000E+00 -0.00000000000E+00 -0.45593999997E+02  0.45594000000E+02  0.51100000000E-03 0.  1.
    9900012    2    1    2    0    0  0.25370833616E+02  0.26599106871E+02  0.23074479956E+02  0.47787270629E+02  0.19999998105E+02 0.  0.
        -12    1    1    2    0    0 -0.25370833616E+02 -0.26599106871E+02 -0.23074479956E+02  0.43400729371E+02  0.00000000000E+00 0.  1.
         11    1    3    3    0    0  0.19198426742E+02  0.11052243400E+02  0.14816036139E+02  0.26650452167E+02  0.51100000000E-03 0. -1.
        -11    1    3    3    0    0 -0.51242728159E+00  0.82713407440E+01  0.75838160289E+01  0.11233517937E+02  0.51100000000E-03 0.  1.
         12    1    3    3    0    0  0.66848341550E+01  0.72755227270E+01  0.67462778767E+00  0.99033005247E+01  0.00000000000E+00 0. -1.
</event>
<event>
 7    1  0.2714068E-010  0.4778728E+02  0.7816164E-02  0.1312668E+00
        -11   -1    0    0    0    0  0.00000000000E+00  0.00000000000E+00  0.45593999997E+02  0.45594000000E+02  0.51100000000E-03 0.  1.
         11   -1    0    0    0    0 -0.00000000000E+00 -0.00000000000E+00 -0.45593999997E+02  0.45594000000E+02  0.51100000000E-03 0. -1.
    9900012    2    1    2    0    0  0.41777738258E+02 -0.11227225658E+02  0.34917885253E+01  0.47787278842E+02  0.20000035553E+02 0.  0.
        -12    1    1    2    0    0 -0.41777738258E+02  0.11227225658E+02 -0.34917885253E+01  0.43400721158E+02  0.00000000000E+00 0.  1.
         11    1    3    3    0    0  0.12728958672E+02 -0.12441647143E+01 -0.47661608880E+01  0.13648832352E+02  0.51100000000E-03 0. -1.
        -11    1    3    3    0    0  0.10848524078E+02  0.50114394206E+00  0.73525632224E+01  0.13114945906E+02  0.51100000000E-03 0.  1.
        -12    1    3    3    0    0  0.18200255508E+02 -0.10484204886E+02  0.90538619092E+00  0.21023500584E+02  0.00000000000E+00 0.  1.
</event>
<event>
 7    1  0.2714068E-010  0.4778727E+02  0.7816164E-02  0.1312668E+00
        -11   -1    0    0    0    0  0.00000000000E+00  0.00000000000E+00  0.45593999997E+02  0.45594000000E+02  0.51100000000E-03 0. -1.
         11   -1    0    0    0    0 -0.00000000000E+00 -0.00000000000E+00 -0.45593999997E+02  0.45594000000E+02  0.51100000000E-03 0.  1.
    9900012    2    1    2    0    0 -0.24589393738E+02  0.15389352394E+02  0.32282388938E+02  0.47787273197E+02  0.20000009813E+02 0.  0.
        -12    1    1    2    0    0  0.24589393738E+02 -0.15389352394E+02 -0.32282388938E+02  0.43400726803E+02  0.00000000000E+00 0.  1.
         11    1    3    3    0    0 -0.79415700631E+01 -0.12473409238E+01  0.11212079487E+02  0.13796199518E+02  0.51100000000E-03 0.  1.
        -11    1    3    3    0    0 -0.14887378054E+02  0.16101983598E+02  0.12534211484E+02  0.25258946116E+02  0.51100000000E-03 0. -1.
         12    1    3    3    0    0 -0.17604456208E+01  0.53470971978E+00  0.85360979669E+01  0.87321275625E+01  0.00000000000E+00 0. -1.
</event>
<event>
 7    1  0.2714068E-010  0.4778727E+02  0.7816164E-02  0.1312668E+00
        -11   -1    0    0    0    0  0.00000000000E+00  0.00000000000E+00  0.45593999997E+02  0.45594000000E+02  0.51100000000E-03 0.  1.
         11   -1    0    0    0    0 -0.00000000000E+00 -0.00000000000E+00 -0.45593999997E+02  0.45594000000E+02  0.51100000000E-03 0. -1.
    9900012    2    1    2    0    0 -0.19633165076E+02 -0.11724716196E+02 -0.36887575320E+02  0.47787270124E+02  0.19999995805E+02 0.  0.
        -12    1    1    2    0    0  0.19633165076E+02  0.11724716196E+02  0.36887575320E+02  0.43400729876E+02  0.00000000000E+00 0.  1.
         11    1    3    3    0    0 -0.19766719747E+02 -0.14077034188E+02 -0.31955650282E+02  0.40125424438E+02  0.51100000000E-03 0. -1.
        -11    1    3    3    0    0 -0.30433151999E-01  0.50205425274E+00  0.11752904439E+01  0.12783945158E+01  0.51100000000E-03 0.  1.
         12    1    3    3    0    0  0.16398782336E+00  0.18502637397E+01 -0.61072154815E+01  0.63834511708E+01  0.00000000000E+00 0. -1.
</event>
<event>
 7    1  0.2714068E-010  0.4778727E+02  0.7816164E-02  0.1312668E+00
        -11   -1    0    0    0    0  0.00000000000E+00  0.00000000000E+00  0.45593999997E+02  0.45594000000E+02  0.51100000000E-03 0.  1.
         11   -1    0    0    0    0 -0.00000000000E+00 -0.00000000000E+00 -0.45593999997E+02  0.45594000000E+02  0.51100000000E-03 0. -1.
    9900012    2    1    2    0    0  0.36896357913E+02 -0.16722878003E+02 -0.15576492300E+02  0.47787274334E+02  0.20000014998E+02 0.  0.
        -12    1    1    2    0    0 -0.36896357913E+02  0.16722878003E+02  0.15576492300E+02  0.43400725666E+02  0.00000000000E+00 0.  1.
         11    1    3    3    0    0  0.19870143410E+02  0.10989992549E+01 -0.37198573528E+01  0.20245190477E+02  0.51100000000E-03 0. -1.
        -11    1    3    3    0    0  0.15060341339E+02 -0.15208445728E+02 -0.11369136366E+02  0.24235675453E+02  0.51100000000E-03 0.  1.
         12    1    3    3    0    0  0.19658731646E+01 -0.26134315300E+01 -0.48749858168E+00  0.33064084032E+01  0.00000000000E+00 0. -1.
</event>
<event>
 7    1  0.2714068E-010  0.4778727E+02  0.7816164E-02  0.1312668E+00
        -11   -1    0    0    0    0  0.00000000000E+00  0.00000000000E+00  0.45593999997E+02  0.45594000000E+02  0.51100000000E-03 0.  1.
         11   -1    0    0    0    0 -0.00000000000E+00 -0.00000000000E+00 -0.45593999997E+02  0.45594000000E+02  0.51100000000E-03 0. -1.
    9900012    2    1    2    0    0 -0.35813696003E+02 -0.23363239440E+02 -0.74271010316E+01  0.47787267193E+02  0.19999982439E+02 0.  0.
        -12    1    1    2    0    0  0.35813696003E+02  0.23363239440E+02  0.74271010316E+01  0.43400732807E+02  0.00000000000E+00 0.  1.
         11    1    3    3    0    0 -0.30423654508E+01 -0.47459535960E+01 -0.53434139466E+00  0.56626481490E+01  0.51100000000E-03 0. -1.
        -11    1    3    3    0    0 -0.72643093044E+01 -0.13244122436E+02  0.21161792082E+00  0.15107010001E+02  0.51100000000E-03 0.  1.
        -12    1    3    3    0    0 -0.25507021247E+02 -0.53731634080E+01 -0.71043775578E+01  0.27017609043E+02  0.00000000000E+00 0.  1.
</event>
<event>
 7    1  0.2714068E-010  0.4778727E+02  0.7816164E-02  0.1312668E+00
        -11   -1    0    0    0    0  0.00000000000E+00  0.00000000000E+00  0.45593999997E+02  0.45594000000E+02  0.51100000000E-03 0.  1.
         11   -1    0    0    0    0 -0.00000000000E+00 -0.00000000000E+00 -0.45593999997E+02  0.45594000000E+02  0.51100000000E-03 0. -1.
    9900012    2    1    2    0    0  0.36877939270E+02  0.22859498847E+02  0.10412845651E+01  0.47787269984E+02  0.19999995166E+02 0.  0.
        -12    1    1    2    0    0 -0.36877939270E+02 -0.22859498847E+02 -0.10412845651E+01  0.43400730016E+02  0.00000000000E+00 0.  1.
         11    1    3    3    0    0  0.27536003057E+01  0.48392420116E+00 -0.42394042886E+01  0.50782916675E+01  0.51100000000E-03 0. -1.
        -11    1    3    3    0    0  0.21929531758E+02  0.14842499915E+02  0.88809974595E+01  0.27929845739E+02  0.51100000000E-03 0.  1.
         12    1    3    3    0    0  0.12194807207E+02  0.75330747302E+01 -0.36003086058E+01  0.14779132578E+02  0.00000000000E+00 0. -1.
</event>
<event>
 7    1  0.2714068E-010  0.4778728E+02  0.7816164E-02  0.1312668E+00
        -11   -1    0    0    0    0  0.00000000000E+00  0.00000000000E+00  0.45593999997E+02  0.45594000000E+02  0.51100000000E-03 0.  1.
         11   -1    0    0    0    0 -0.00000000000E+00 -0.00000000000E+00 -0.45593999997E+02  0.45594000000E+02  0.51100000000E-03 0. -1.
    9900012    2    1    2    0    0 -0.31752460574E+02  0.24944271657E+02 -0.15911865519E+02  0.47787275291E+02  0.20000019361E+02 0.  0.
        -12    1    1    2    0    0  0.31752460574E+02 -0.24944271657E+02  0.15911865519E+02  0.43400724709E+02  0.00000000000E+00 0.  1.
         11    1    3    3    0    0 -0.22193524734E+02  0.10871574279E+02 -0.14145418700E+02  0.28475191622E+02  0.51100000000E-03 0. -1.
        -11    1    3    3    0    0 -0.39577180582E-01  0.25788654382E+01  0.27001227477E+01  0.37340027337E+01  0.51100000000E-03 0.  1.
        -12    1    3    3    0    0 -0.95193586589E+01  0.11493831940E+02 -0.44665695667E+01  0.15578080935E+02  0.00000000000E+00 0.  1.
</event>
<event>
 7    1  0.2714068E-010  0.4778725E+02  0.7816164E-02  0.1312668E+00
        -11   -1    0    0    0    0  0.00000000000E+00  0.00000000000E+00  0.45593999997E+02  0.45594000000E+02  0.51100000000E-03 0.  1.
         11   -1    0    0    0    0 -0.00000000000E+00 -0.00000000000E+00 -0.45593999997E+02  0.45594000000E+02  0.51100000000E-03 0. -1.
    9900012    2    1    2    0    0 -0.28868799441E+02 -0.25725525143E+02 -0.19708241906E+02  0.47787250881E+02  0.19999908065E+02 0.  0.
        -12    1    1    2    0    0  0.28868799441E+02  0.25725525143E+02  0.19708241906E+02  0.43400749119E+02  0.00000000000E+00 0.  1.
         11    1    3    3    0    0 -0.78097767087E+01 -0.11151840849E+02 -0.14411994120E+02  0.19825784760E+02  0.51100000000E-03 0. -1.
        -11    1    3    3    0    0 -0.15439499177E+02 -0.13961282476E+02 -0.96144900916E+00  0.20837944421E+02  0.51100000000E-03 0.  1.
        -12    1    3    3    0    0 -0.56195235557E+01 -0.61240181793E+00 -0.43347987768E+01  0.71235217003E+01  0.00000000000E+00 0.  1.
</event>
<event>
 7    1  0.2714068E-010  0.4778727E+02  0.7816164E-02  0.1312668E+00
        -11   -1    0    0    0    0  0.00000000000E+00  0.00000000000E+00  0.45593999997E+02  0.45594000000E+02  0.51100000000E-03 0. -1.
         11   -1    0    0    0    0 -0.00000000000E+00 -0.00000000000E+00 -0.45593999997E+02  0.45594000000E+02  0.51100000000E-03 0.  1.
    9900012    2    1    2    0    0 -0.39342375333E+02 -0.11913274976E+02  0.13923896378E+02  0.47787268349E+02  0.19999987709E+02 0.  0.
        -12    1    1    2    0    0  0.39342375333E+02  0.11913274976E+02 -0.13923896378E+02  0.43400731651E+02  0.00000000000E+00 0.  1.
         11    1    3    3    0    0 -0.31384756129E+02 -0.97376701037E+01  0.10474466785E+02  0.34489702681E+02  0.51100000000E-03 0. -1.
        -11    1    3    3    0    0  0.18378037396E+01 -0.21949957368E+01 -0.13738585139E+00  0.28660781572E+01  0.51100000000E-03 0.  1.
        -12    1    3    3    0    0 -0.97954229434E+01  0.19390864235E-01  0.35868154447E+01  0.10431487510E+02  0.00000000000E+00 0.  1.
</event>
<event>
 7    1  0.2714068E-010  0.4778727E+02  0.7816164E-02  0.1312668E+00
        -11   -1    0    0    0    0  0.00000000000E+00  0.00000000000E+00  0.45593999997E+02  0.45594000000E+02  0.51100000000E-03 0. -1.
         11   -1    0    0    0    0 -0.00000000000E+00 -0.00000000000E+00 -0.45593999997E+02  0.45594000000E+02  0.51100000000E-03 0.  1.
    9900012    2    1    2    0    0  0.20844081651E+02 -0.20136569043E+02  0.32305821494E+02  0.47787271261E+02  0.20000000988E+02 0.  0.
        -12    1    1    2    0    0 -0.20844081651E+02  0.20136569043E+02 -0.32305821494E+02  0.43400728739E+02  0.00000000000E+00 0.  1.
         11    1    3    3    0    0  0.31439474580E+01  0.35696241888E+00  0.12302786652E+02  0.12703164466E+02  0.51100000000E-03 0. -1.
        -11    1    3    3    0    0  0.15981881111E+02 -0.12615441926E+02  0.11579513656E+02  0.23423386510E+02  0.51100000000E-03 0.  1.
        -12    1    3    3    0    0  0.17182530816E+01 -0.78780895360E+01  0.84235211860E+01  0.11660720285E+02  0.00000000000E+00 0.  1.
</event>
<event>
 7    1  0.2714068E-010  0.4778727E+02  0.7816164E-02  0.1312668E+00
        -11   -1    0    0    0    0  0.00000000000E+00  0.00000000000E+00  0.45593999997E+02  0.45594000000E+02  0.51100000000E-03 0.  1.
         11   -1    0    0    0    0 -0.00000000000E+00 -0.00000000000E+00 -0.45593999997E+02  0.45594000000E+02  0.51100000000E-03 0. -1.
    9900012    2    1    2    0    0  0.37148648431E+02  0.13970396606E+02 -0.17562150992E+02  0.47787271791E+02  0.20000003403E+02 0.  0.
        -12    1    1    2    0    0 -0.37148648431E+02 -0.13970396606E+02  0.17562150992E+02  0.43400728209E+02  0.00000000000E+00 0.  1.
         11    1    3    3    0    0  0.22209948213E+02  0.13737525365E+02 -0.55447746054E+01  0.26697301894E+02  0.51100000000E-03 0. -1.
        -11    1    3    3    0    0  0.48513882469E+01  0.35046344821E+01 -0.74169678702E+01  0.95304692132E+01  0.51100000000E-03 0.  1.
         12    1    3    3    0    0  0.10087311972E+02 -0.32717632406E+01 -0.46004085167E+01  0.11559500683E+02  0.00000000000E+00 0. -1.
</event>
<event>
 7    1  0.2714068E-010  0.4778727E+02  0.7816164E-02  0.1312668E+00
        -11   -1    0    0    0    0  0.00000000000E+00  0.00000000000E+00  0.45593999997E+02  0.45594000000E+02  0.51100000000E-03 0.  1.
         11   -1    0    0    0    0 -0.00000000000E+00 -0.00000000000E+00 -0.45593999997E+02  0.45594000000E+02  0.51100000000E-03 0. -1.
    9900012    2    1    2    0    0 -0.48258257085E+01  0.17232857387E+02 -0.39539395320E+02  0.47787265562E+02  0.19999975004E+02 0.  0.
        -12    1    1    2    0    0  0.48258257085E+01 -0.17232857387E+02  0.39539395320E+02  0.43400734438E+02  0.00000000000E+00 0.  1.
         11    1    3    3    0    0 -0.28441218895E+01 -0.14708958018E+01 -0.14299498980E+02  0.14653608263E+02  0.51100000000E-03 0.  1.
        -11    1    3    3    0    0 -0.47386807390E+01  0.11262041125E+02 -0.93962183790E+01  0.15413552009E+02  0.51100000000E-03 0. -1.
         12    1    3    3    0    0  0.27569769199E+01  0.74417120636E+01 -0.15843677960E+02  0.17720105290E+02  0.00000000000E+00 0. -1.
</event>
<event>
 7    1  0.2714068E-010  0.4778727E+02  0.7816164E-02  0.1312668E+00
        -11   -1    0    0    0    0  0.00000000000E+00  0.00000000000E+00  0.45593999997E+02  0.45594000000E+02  0.51100000000E-03 0.  1.
         11   -1    0    0    0    0 -0.00000000000E+00 -0.00000000000E+00 -0.45593999997E+02  0.45594000000E+02  0.51100000000E-03 0. -1.
    9900012    2    1    2    0    0 -0.95365704388E+01  0.28319653235E+02 -0.31474985266E+02  0.47787266912E+02  0.19999981157E+02 0.  0.
        -12    1    1    2    0    0  0.95365704388E+01 -0.28319653235E+02  0.31474985266E+02  0.43400733088E+02  0.00000000000E+00 0.  1.
         11    1    3    3    0    0  0.17367892374E+01  0.77569996374E+01 -0.16972873338E+02  0.18742089260E+02  0.51100000000E-03 0. -1.
        -11    1    3    3    0    0  0.73224901151E+00  0.75835405115E-01  0.56055158226E+00  0.92528804219E+00  0.51100000000E-03 0.  1.
         12    1    3    3    0    0 -0.12005608688E+02  0.20486818193E+02 -0.15062663511E+02  0.28119889610E+02  0.00000000000E+00 0. -1.
</event>
<event>
 7    1  0.2714068E-010  0.4778727E+02  0.7816164E-02  0.1312668E+00
        -11   -1    0    0    0    0  0.00000000000E+00  0.00000000000E+00  0.45593999997E+02  0.45594000000E+02  0.51100000000E-03 0.  1.
         11   -1    0    0    0    0 -0.00000000000E+00 -0.00000000000E+00 -0.45593999997E+02  0.45594000000E+02  0.51100000000E-03 0. -1.
    9900012    2    1    2    0    0  0.66993362242E+01 -0.27268600692E+02 -0.33093284814E+02  0.47787272018E+02  0.20000004441E+02 0.  0.
        -12    1    1    2    0    0 -0.66993362242E+01  0.27268600692E+02  0.33093284814E+02  0.43400727982E+02  0.00000000000E+00 0.  1.
         11    1    3    3    0    0 -0.12074799085E+01 -0.72980573007E+01 -0.40476710745E+00  0.74083388668E+01  0.51100000000E-03 0. -1.
        -11    1    3    3    0    0  0.72311856814E+01 -0.65160479952E+01 -0.97504467312E+01  0.13777522983E+02  0.51100000000E-03 0.  1.
         12    1    3    3    0    0  0.67563045128E+00 -0.13454495396E+02 -0.22938070975E+02  0.26601410168E+02  0.00000000000E+00 0. -1.
</event>
<event>
 7    1  0.2714068E-010  0.4778727E+02  0.7816164E-02  0.1312668E+00
        -11   -1    0    0    0    0  0.00000000000E+00  0.00000000000E+00  0.45593999997E+02  0.45594000000E+02  0.51100000000E-03 0. -1.
         11   -1    0    0    0    0 -0.00000000000E+00 -0.00000000000E+00 -0.45593999997E+02  0.45594000000E+02  0.51100000000E-03 0.  1.
    9900012    2    1    2    0    0  0.38969445716E+02  0.14738938917E+02  0.12156047946E+02  0.47787268191E+02  0.19999986992E+02 0.  0.
        -12    1    1    2    0    0 -0.38969445716E+02 -0.14738938917E+02 -0.12156047946E+02  0.43400731809E+02  0.00000000000E+00 0.  1.
         11    1    3    3    0    0 -0.10004210208E+00 -0.27477988050E+01  0.14787592499E+00  0.27535929701E+01  0.51100000000E-03 0. -1.
        -11    1    3    3    0    0  0.10562136896E+02  0.69012182235E+01  0.86292655386E+00  0.12646350907E+02  0.51100000000E-03 0.  1.
         12    1    3    3    0    0  0.28507350923E+02  0.10585519498E+02  0.11145245467E+02  0.32387324314E+02  0.00000000000E+00 0. -1.
</event>
<event>
 7    1  0.2714068E-010  0.4778727E+02  0.7816164E-02  0.1312668E+00
        -11   -1    0    0    0    0  0.00000000000E+00  0.00000000000E+00  0.45593999997E+02  0.45594000000E+02  0.51100000000E-03 0. -1.
         11   -1    0    0    0    0 -0.00000000000E+00 -0.00000000000E+00 -0.45593999997E+02  0.45594000000E+02  0.51100000000E-03 0.  1.
    9900012    2    1    2    0    0  0.19965870633E+02  0.37862292997E+02  0.71717672965E+01  0.47787268816E+02  0.19999989842E+02 0.  0.
        -12    1    1    2    0    0 -0.19965870633E+02 -0.37862292997E+02 -0.71717672965E+01  0.43400731184E+02  0.00000000000E+00 0.  1.
         11    1    3    3    0    0  0.48708928158E+01  0.33345905470E+01  0.51155954426E+00  0.59250978361E+01  0.51100000000E-03 0. -1.
        -11    1    3    3    0    0  0.61092962163E+01  0.78165585606E+01 -0.52993927253E+01  0.11247473117E+02  0.51100000000E-03 0.  1.
        -12    1    3    3    0    0  0.89856816009E+01  0.26711143889E+02  0.11959600478E+02  0.30614697864E+02  0.00000000000E+00 0.  1.
</event>
<event>
 7    1  0.2714068E-010  0.4778727E+02  0.7816164E-02  0.1312668E+00
        -11   -1    0    0    0    0  0.00000000000E+00  0.00000000000E+00  0.45593999997E+02  0.45594000000E+02  0.51100000000E-03 0.  1.
         11   -1    0    0    0    0 -0.00000000000E+00 -0.00000000000E+00 -0.45593999997E+02  0.45594000000E+02  0.51100000000E-03 0. -1.
    9900012    2    1    2    0    0  0.72416112853E+01 -0.37943513417E+02 -0.19785654823E+02  0.47787270960E+02  0.19999999616E+02 0.  0.
        -12    1    1    2    0    0 -0.72416112853E+01  0.37943513417E+02  0.19785654823E+02  0.43400729040E+02  0.00000000000E+00 0.  1.
         11    1    3    3    0    0  0.21053366011E+01 -0.40887852337E+01 -0.61013164678E+01  0.76404626687E+01  0.51100000000E-03 0. -1.
        -11    1    3    3    0    0  0.43948277696E+01 -0.24210105112E+02 -0.17015662510E+02  0.29916157367E+02  0.51100000000E-03 0.  1.
        -12    1    3    3    0    0  0.74144691460E+00 -0.96446230711E+01  0.33313241556E+01  0.10230650925E+02  0.00000000000E+00 0.  1.
</event>
<event>
 7    1  0.2714068E-010  0.4778727E+02  0.7816164E-02  0.1312668E+00
        -11   -1    0    0    0    0  0.00000000000E+00  0.00000000000E+00  0.45593999997E+02  0.45594000000E+02  0.51100000000E-03 0. -1.
         11   -1    0    0    0    0 -0.00000000000E+00 -0.00000000000E+00 -0.45593999997E+02  0.45594000000E+02  0.51100000000E-03 0.  1.
    9900012    2    1    2    0    0 -0.14106902551E+02 -0.39899210989E+02  0.96266149286E+01  0.47787268991E+02  0.19999990636E+02 0.  0.
        -12    1    1    2    0    0  0.14106902551E+02  0.39899210989E+02 -0.96266149286E+01  0.43400731009E+02  0.00000000000E+00 0.  1.
         11    1    3    3    0    0  0.40996177991E+01 -0.12694789072E+02  0.38653804415E+01  0.13889049712E+02  0.51100000000E-03 0. -1.
        -11    1    3    3    0    0 -0.16860706050E+02 -0.25639099598E+02  0.70218610548E+01  0.31479411837E+02  0.51100000000E-03 0.  1.
         12    1    3    3    0    0 -0.13458143007E+01 -0.15653223193E+01 -0.12606265677E+01  0.24188074413E+01  0.00000000000E+00 0. -1.
</event>
<event>
 7    1  0.2714068E-010  0.4778727E+02  0.7816164E-02  0.1312668E+00
        -11   -1    0    0    0    0  0.00000000000E+00  0.00000000000E+00  0.45593999997E+02  0.45594000000E+02  0.51100000000E-03 0.  1.
         11   -1    0    0    0    0 -0.00000000000E+00 -0.00000000000E+00 -0.45593999997E+02  0.45594000000E+02  0.51100000000E-03 0. -1.
    9900012    2    1    2    0    0 -0.42009040728E+02  0.10889748476E+02 -0.52651272146E+00  0.47787270278E+02  0.19999996504E+02 0.  0.
        -12    1    1    2    0    0  0.42009040728E+02 -0.10889748476E+02  0.52651272146E+00  0.43400729722E+02  0.00000000000E+00 0.  1.
         11    1    3    3    0    0 -0.23072752552E+01 -0.21265846183E+01 -0.69612887556E-01  0.31385868567E+01  0.51100000000E-03 0. -1.
        -11    1    3    3    0    0  0.65045133587E+00  0.26439954467E+01  0.11453373724E+01  0.29539121213E+01  0.51100000000E-03 0.  1.
        -12    1    3    3    0    0 -0.40352216809E+02  0.10372337647E+02 -0.16022372063E+01  0.41694771300E+02  0.00000000000E+00 0.  1.
</event>
<event>
 7    1  0.2714068E-010  0.4778729E+02  0.7816164E-02  0.1312668E+00
        -11   -1    0    0    0    0  0.00000000000E+00  0.00000000000E+00  0.45593999997E+02  0.45594000000E+02  0.51100000000E-03 0.  1.
         11   -1    0    0    0    0 -0.00000000000E+00 -0.00000000000E+00 -0.45593999997E+02  0.45594000000E+02  0.51100000000E-03 0. -1.
    9900012    2    1    2    0    0  0.17362897861E+02 -0.28224802282E+02 -0.28026987691E+02  0.47787288888E+02  0.20000081355E+02 0.  0.
        -12    1    1    2    0    0 -0.17362897861E+02  0.28224802282E+02  0.28026987691E+02  0.43400711112E+02  0.00000000000E+00 0.  1.
         11    1    3    3    0    0  0.17627102749E+02 -0.17389247867E+02 -0.25847574252E+02  0.35793823317E+02  0.51100000000E-03 0. -1.
        -11    1    3    3    0    0 -0.22761083770E+01 -0.56267550728E+01 -0.20553609001E+01  0.64082408416E+01  0.51100000000E-03 0.  1.
         12    1    3    3    0    0  0.20119034890E+01 -0.52087993424E+01 -0.12405253903E+00  0.55852247288E+01  0.00000000000E+00 0. -1.
</event>
<event>
 7    1  0.2714068E-010  0.4778727E+02  0.7816164E-02  0.1312668E+00
        -11   -1    0    0    0    0  0.00000000000E+00  0.00000000000E+00  0.45593999997E+02  0.45594000000E+02  0.51100000000E-03 0. -1.
         11   -1    0    0    0    0 -0.00000000000E+00 -0.00000000000E+00 -0.45593999997E+02  0.45594000000E+02  0.51100000000E-03 0.  1.
    9900012    2    1    2    0    0  0.46873721460E+01  0.19294406170E+02  0.38592457008E+02  0.47787270686E+02  0.19999998364E+02 0.  0.
        -12    1    1    2    0    0 -0.46873721460E+01 -0.19294406170E+02 -0.38592457008E+02  0.43400729314E+02  0.00000000000E+00 0.  1.
         11    1    3    3    0    0  0.37175348860E+01  0.54568864699E+01  0.23974383684E+02  0.24867021311E+02  0.51100000000E-03 0. -1.
        -11    1    3    3    0    0 -0.23126613420E+01  0.99301311848E+01  0.36612802933E+01  0.10833322735E+02  0.51100000000E-03 0.  1.
        -12    1    3    3    0    0  0.32824986020E+01  0.39073885157E+01  0.10956793031E+02  0.12086926640E+02  0.00000000000E+00 0.  1.
</event>
<event>
 7    1  0.2714068E-010  0.4778727E+02  0.7816164E-02  0.1312668E+00
        -11   -1    0    0    0    0  0.00000000000E+00  0.00000000000E+00  0.45593999997E+02  0.45594000000E+02  0.51100000000E-03 0. -1.
         11   -1    0    0    0    0 -0.00000000000E+00 -0.00000000000E+00 -0.45593999997E+02  0.45594000000E+02  0.51100000000E-03 0.  1.
    9900012    2    1    2    0    0  0.20207859161E+02  0.18167340262E+02  0.33841001174E+02  0.47787272074E+02  0.20000004693E+02 0.  0.
        -12    1    1    2    0    0 -0.20207859161E+02 -0.18167340262E+02 -0.33841001174E+02  0.43400727926E+02  0.00000000000E+00 0.  1.
         11    1    3    3    0    0  0.14391889029E+01  0.45036498702E+01  0.12127980404E+02  0.13016990274E+02  0.51100000000E-03 0. -1.
        -11    1    3    3    0    0  0.10453321703E+02  0.12453137892E+02  0.67401737209E+01  0.17600639762E+02  0.51100000000E-03 0.  1.
        -12    1    3    3    0    0  0.83153485544E+01  0.12105524995E+01  0.14972847050E+02  0.17169642038E+02  0.00000000000E+00 0.  1.
</event>
<event>
 7    1  0.2714068E-010  0.4778727E+02  0.7816164E-02  0.1312668E+00
        -11   -1    0    0    0    0  0.00000000000E+00  0.00000000000E+00  0.45593999997E+02  0.45594000000E+02  0.51100000000E-03 0.  1.
         11   -1    0    0    0    0 -0.00000000000E+00 -0.00000000000E+00 -0.45593999997E+02  0.45594000000E+02  0.51100000000E-03 0. -1.
    9900012    2    1    2    0    0  0.19405975127E+02 -0.25416032159E+02 -0.29343771697E+02  0.47787268454E+02  0.19999988188E+02 0.  0.
        -12    1    1    2    0    0 -0.19405975127E+02  0.25416032159E+02  0.29343771697E+02  0.43400731546E+02  0.00000000000E+00 0.  1.
         11    1    3    3    0    0  0.10477166724E+02 -0.17986585478E+02 -0.18203905303E+02  0.27652675246E+02  0.51100000000E-03 0. -1.
        -11    1    3    3    0    0  0.59751563037E+01  0.22063659984E+01 -0.62834774637E+01  0.89472137043E+01  0.51100000000E-03 0.  1.
         12    1    3    3    0    0  0.29536520994E+01 -0.96358126790E+01 -0.48563889305E+01  0.11187379503E+02  0.00000000000E+00 0. -1.
</event>
<event>
 7    1  0.2714068E-010  0.4778727E+02  0.7816164E-02  0.1312668E+00
        -11   -1    0    0    0    0  0.00000000000E+00  0.00000000000E+00  0.45593999997E+02  0.45594000000E+02  0.51100000000E-03 0.  1.
         11   -1    0    0    0    0 -0.00000000000E+00 -0.00000000000E+00 -0.45593999997E+02  0.45594000000E+02  0.51100000000E-03 0. -1.
    9900012    2    1    2    0    0 -0.39056902184E+02 -0.56188263735E+01 -0.18072375517E+02  0.47787267577E+02  0.19999984191E+02 0.  0.
        -12    1    1    2    0    0  0.39056902184E+02  0.56188263735E+01  0.18072375517E+02  0.43400732423E+02  0.00000000000E+00 0.  1.
         11    1    3    3    0    0 -0.20835348765E+02 -0.94205844418E+01 -0.16715979197E+02  0.28324602913E+02  0.51100000000E-03 0. -1.
        -11    1    3    3    0    0 -0.17537957711E+02  0.23750233539E+01 -0.59777905887E+00  0.17708134760E+02  0.51100000000E-03 0.  1.
         12    1    3    3    0    0 -0.68359570744E+00  0.14267347144E+01 -0.75861726134E+00  0.17545299045E+01  0.00000000000E+00 0. -1.
</event>
<event>
 7    1  0.2714068E-010  0.4778727E+02  0.7816164E-02  0.1312668E+00
        -11   -1    0    0    0    0  0.00000000000E+00  0.00000000000E+00  0.45593999997E+02  0.45594000000E+02  0.51100000000E-03 0.  1.
         11   -1    0    0    0    0 -0.00000000000E+00 -0.00000000000E+00 -0.45593999997E+02  0.45594000000E+02  0.51100000000E-03 0. -1.
    9900012    2    1    2    0    0 -0.61164331308E+01  0.22686352842E+01 -0.42907642783E+02  0.47787271095E+02  0.20000000231E+02 0.  0.
        -12    1    1    2    0    0  0.61164331308E+01 -0.22686352842E+01  0.42907642783E+02  0.43400728905E+02  0.00000000000E+00 0.  1.
         11    1    3    3    0    0 -0.35492086944E+01 -0.66129926435E+01 -0.20216517905E+02  0.21564696856E+02  0.51100000000E-03 0. -1.
        -11    1    3    3    0    0  0.18362868523E+01  0.34215865752E+01 -0.19861019422E+01  0.43616287418E+01  0.51100000000E-03 0.  1.
         12    1    3    3    0    0 -0.44035112887E+01  0.54600413525E+01 -0.20705022936E+02  0.21860945497E+02  0.00000000000E+00 0. -1.
</event>
<event>
 7    1  0.2714068E-010  0.4778727E+02  0.7816164E-02  0.1312668E+00
        -11   -1    0    0    0    0  0.00000000000E+00  0.00000000000E+00  0.45593999997E+02  0.45594000000E+02  0.51100000000E-03 0.  1.
         11   -1    0    0    0    0 -0.00000000000E+00 -0.00000000000E+00 -0.45593999997E+02  0.45594000000E+02  0.51100000000E-03 0. -1.
    9900012    2    1    2    0    0  0.87453305230E+01  0.39011643519E+02 -0.16888881726E+02  0.47787268878E+02  0.19999990122E+02 0.  0.
        -12    1    1    2    0    0 -0.87453305230E+01 -0.39011643519E+02  0.16888881726E+02  0.43400731122E+02  0.00000000000E+00 0.  1.
         11    1    3    3    0    0 -0.50455959276E+00  0.10836193562E+01 -0.22171686617E+01  0.25188585565E+01  0.51100000000E-03 0. -1.
        -11    1    3    3    0    0  0.61865313990E+01  0.13809184801E+02 -0.14496646600E+02  0.20955178799E+02  0.51100000000E-03 0.  1.
        -12    1    3    3    0    0  0.30633587168E+01  0.24118839362E+02 -0.17506646449E+00  0.24313231522E+02  0.00000000000E+00 0.  1.
</event>
<event>
 7    1  0.2714068E-010  0.4778727E+02  0.7816164E-02  0.1312668E+00
        -11   -1    0    0    0    0  0.00000000000E+00  0.00000000000E+00  0.45593999997E+02  0.45594000000E+02  0.51100000000E-03 0.  1.
         11   -1    0    0    0    0 -0.00000000000E+00 -0.00000000000E+00 -0.45593999997E+02  0.45594000000E+02  0.51100000000E-03 0. -1.
    9900012    2    1    2    0    0 -0.19828967980E+02  0.73179011899E+01 -0.37906246358E+02  0.47787272334E+02  0.20000005881E+02 0.  0.
        -12    1    1    2    0    0  0.19828967980E+02 -0.73179011899E+01  0.37906246358E+02  0.43400727666E+02  0.00000000000E+00 0.  1.
         11    1    3    3    0    0  0.98922581268E+00  0.14861865676E+00 -0.16998497014E+02  0.17027905221E+02  0.51100000000E-03 0. -1.
        -11    1    3    3    0    0 -0.15435640460E+02  0.59772524711E+01 -0.12660823120E+02  0.20839457427E+02  0.51100000000E-03 0.  1.
         12    1    3    3    0    0 -0.53825533330E+01  0.11920300621E+01 -0.82469262242E+01  0.99199096870E+01  0.00000000000E+00 0. -1.
</event>
<event>
 7    1  0.2714068E-010  0.4778727E+02  0.7816164E-02  0.1312668E+00
        -11   -1    0    0    0    0  0.00000000000E+00  0.00000000000E+00  0.45593999997E+02  0.45594000000E+02  0.51100000000E-03 0.  1.
         11   -1    0    0    0    0 -0.00000000000E+00 -0.00000000000E+00 -0.45593999997E+02  0.45594000000E+02  0.51100000000E-03 0. -1.
    9900012    2    1    2    0    0 -0.16297284356E+02 -0.19411371824E+02 -0.35230960497E+02  0.47787269464E+02  0.19999992796E+02 0.  0.
        -12    1    1    2    0    0  0.16297284356E+02  0.19411371824E+02  0.35230960497E+02  0.43400730536E+02  0.00000000000E+00 0.  1.
         11    1    3    3    0    0 -0.11407813089E+02 -0.77441260133E+01 -0.30437211341E+02  0.33414570500E+02  0.51100000000E-03 0.  1.
        -11    1    3    3    0    0 -0.55689065672E+01 -0.11342965365E+02 -0.39441253414E+01  0.13237511420E+02  0.51100000000E-03 0. -1.
        -12    1    3    3    0    0  0.67943530045E+00 -0.32428044522E+00 -0.84962381441E+00  0.11351875443E+01  0.00000000000E+00 0.  1.
</event>
<event>
 7    1  0.2714068E-010  0.4778727E+02  0.7816164E-02  0.1312668E+00
        -11   -1    0    0    0    0  0.00000000000E+00  0.00000000000E+00  0.45593999997E+02  0.45594000000E+02  0.51100000000E-03 0. -1.
         11   -1    0    0    0    0 -0.00000000000E+00 -0.00000000000E+00 -0.45593999997E+02  0.45594000000E+02  0.51100000000E-03 0.  1.
    9900012    2    1    2    0    0 -0.29931077076E+02 -0.20734967910E+02  0.23618106526E+02  0.47787271607E+02  0.20000002565E+02 0.  0.
        -12    1    1    2    0    0  0.29931077076E+02  0.20734967910E+02 -0.23618106526E+02  0.43400728393E+02  0.00000000000E+00 0.  1.
         11    1    3    3    0    0 -0.98407130090E+01  0.15821325757E+01  0.38149455719E+01  0.10672234349E+02  0.51100000000E-03 0. -1.
        -11    1    3    3    0    0 -0.12536594050E+02 -0.15600651349E+02  0.79438402079E+01  0.21532559309E+02  0.51100000000E-03 0.  1.
         12    1    3    3    0    0 -0.75537700176E+01 -0.67164491369E+01  0.11859320746E+02  0.15582477950E+02  0.00000000000E+00 0. -1.
</event>
<event>
 7    1  0.2714068E-010  0.4778727E+02  0.7816164E-02  0.1312668E+00
        -11   -1    0    0    0    0  0.00000000000E+00  0.00000000000E+00  0.45593999997E+02  0.45594000000E+02  0.51100000000E-03 0. -1.
         11   -1    0    0    0    0 -0.00000000000E+00 -0.00000000000E+00 -0.45593999997E+02  0.45594000000E+02  0.51100000000E-03 0.  1.
    9900012    2    1    2    0    0  0.34673462783E+02 -0.15856107457E+02 -0.20735430755E+02  0.47787271277E+02  0.20000001061E+02 0.  0.
        -12    1    1    2    0    0 -0.34673462783E+02  0.15856107457E+02  0.20735430755E+02  0.43400728723E+02  0.00000000000E+00 0.  1.
         11    1    3    3    0    0  0.11411970469E+02 -0.57311610021E+01 -0.31935509985E+01  0.13163511867E+02  0.51100000000E-03 0. -1.
        -11    1    3    3    0    0  0.35758528749E+01  0.17476258376E+01  0.19973995178E+01  0.44531477571E+01  0.51100000000E-03 0.  1.
        -12    1    3    3    0    0  0.19685639439E+02 -0.11872572293E+02 -0.19539279275E+02  0.30170611653E+02  0.00000000000E+00 0.  1.
</event>
<event>
 7    1  0.2714068E-010  0.4778727E+02  0.7816164E-02  0.1312668E+00
        -11   -1    0    0    0    0  0.00000000000E+00  0.00000000000E+00  0.45593999997E+02  0.45594000000E+02  0.51100000000E-03 0.  1.
         11   -1    0    0    0    0 -0.00000000000E+00 -0.00000000000E+00 -0.45593999997E+02  0.45594000000E+02  0.51100000000E-03 0. -1.
    9900012    2    1    2    0    0 -0.26983153846E+02 -0.29590813236E+02 -0.16730706485E+02  0.47787270064E+02  0.19999995531E+02 0.  0.
        -12    1    1    2    0    0  0.26983153846E+02  0.29590813236E+02  0.16730706485E+02  0.43400729936E+02  0.00000000000E+00 0.  1.
         11    1    3    3    0    0 -0.45666653687E+01 -0.49005791971E+01  0.44561367569E+01  0.80453256065E+01  0.51100000000E-03 0. -1.
        -11    1    3    3    0    0 -0.94356514285E+01 -0.11175083502E+02 -0.11747709706E+02  0.18759602681E+02  0.51100000000E-03 0.  1.
         12    1    3    3    0    0 -0.12980837049E+02 -0.13515150537E+02 -0.94391335361E+01  0.20982341777E+02  0.00000000000E+00 0. -1.
</event>
<event>
 7    1  0.2714068E-010  0.4778728E+02  0.7816164E-02  0.1312668E+00
        -11   -1    0    0    0    0  0.00000000000E+00  0.00000000000E+00  0.45593999997E+02  0.45594000000E+02  0.51100000000E-03 0. -1.
         11   -1    0    0    0    0 -0.00000000000E+00 -0.00000000000E+00 -0.45593999997E+02  0.45594000000E+02  0.51100000000E-03 0.  1.
    9900012    2    1    2    0    0  0.21517535780E+02 -0.24866818351E+01  0.37608973944E+02  0.47787275884E+02  0.20000022068E+02 0.  0.
        -12    1    1    2    0    0 -0.21517535780E+02  0.24866818351E+01 -0.37608973944E+02  0.43400724116E+02  0.00000000000E+00 0.  1.
         11    1    3    3    0    0  0.36045267319E+01 -0.11554034987E+01  0.20248626347E+02  0.20599379588E+02  0.51100000000E-03 0. -1.
        -11    1    3    3    0    0  0.17548009407E+02  0.17454160094E+01  0.13338125403E+02  0.22110737227E+02  0.51100000000E-03 0.  1.
        -12    1    3    3    0    0  0.36499964132E+00 -0.30766943458E+01  0.40222221943E+01  0.50771590694E+01  0.00000000000E+00 0.  1.
</event>
<event>
 7    1  0.2714068E-010  0.4778727E+02  0.7816164E-02  0.1312668E+00
        -11   -1    0    0    0    0  0.00000000000E+00  0.00000000000E+00  0.45593999997E+02  0.45594000000E+02  0.51100000000E-03 0.  1.
         11   -1    0    0    0    0 -0.00000000000E+00 -0.00000000000E+00 -0.45593999997E+02  0.45594000000E+02  0.51100000000E-03 0. -1.
    9900012    2    1    2    0    0  0.22339979345E+02 -0.36512860846E+02 -0.71665610941E+01  0.47787270948E+02  0.19999999563E+02 0.  0.
        -12    1    1    2    0    0 -0.22339979345E+02  0.36512860846E+02  0.71665610941E+01  0.43400729052E+02  0.00000000000E+00 0.  1.
         11    1    3    3    0    0  0.43517443658E+00 -0.57757537362E+01 -0.11531465752E-01  0.57921361558E+01  0.51100000000E-03 0. -1.
        -11    1    3    3    0    0  0.31362304721E+01 -0.10891188705E+02  0.46339766246E+01  0.12244495604E+02  0.51100000000E-03 0.  1.
        -12    1    3    3    0    0  0.18768574436E+02 -0.19845918405E+02 -0.11789006253E+02  0.29750639189E+02  0.00000000000E+00 0.  1.
</event>
<event>
 7    1  0.2714068E-010  0.4778727E+02  0.7816164E-02  0.1312668E+00
        -11   -1    0    0    0    0  0.00000000000E+00  0.00000000000E+00  0.45593999997E+02  0.45594000000E+02  0.51100000000E-03 0. -1.
         11   -1    0    0    0    0 -0.00000000000E+00 -0.00000000000E+00 -0.45593999997E+02  0.45594000000E+02  0.51100000000E-03 0.  1.
    9900012    2    1    2    0    0  0.57702862203E+01 -0.39318689646E+02  0.17446134123E+02  0.47787272421E+02  0.20000006276E+02 0.  0.
        -12    1    1    2    0    0 -0.57702862203E+01  0.39318689646E+02 -0.17446134123E+02  0.43400727579E+02  0.00000000000E+00 0.  1.
         11    1    3    3    0    0  0.11735132229E+01 -0.22324047003E+02  0.86106865504E+01  0.23955878841E+02  0.51100000000E-03 0. -1.
        -11    1    3    3    0    0  0.42930025569E+01 -0.58024126664E+01  0.10260255427E+02  0.12544748120E+02  0.51100000000E-03 0.  1.
        -12    1    3    3    0    0  0.30377044043E+00 -0.11192229976E+02 -0.14248078544E+01  0.11286645460E+02  0.00000000000E+00 0.  1.
</event>
<event>
 7    1  0.2714068E-010  0.4778727E+02  0.7816164E-02  0.1312668E+00
        -11   -1    0    0    0    0  0.00000000000E+00  0.00000000000E+00  0.45593999997E+02  0.45594000000E+02  0.51100000000E-03 0. -1.
         11   -1    0    0    0    0 -0.00000000000E+00 -0.00000000000E+00 -0.45593999997E+02  0.45594000000E+02  0.51100000000E-03 0.  1.
    9900012    2    1    2    0    0 -0.17130052151E+00 -0.35452866827E+02  0.25033737432E+02  0.47787272818E+02  0.20000008085E+02 0.  0.
        -12    1    1    2    0    0  0.17130052151E+00  0.35452866827E+02 -0.25033737432E+02  0.43400727182E+02  0.00000000000E+00 0.  1.
         11    1    3    3    0    0 -0.69657820218E+01 -0.21156401290E+02  0.16453316306E+02  0.27691642286E+02  0.51100000000E-03 0. -1.
        -11    1    3    3    0    0  0.46849835862E+01 -0.14090106897E+02  0.45301081083E+01  0.15524241151E+02  0.51100000000E-03 0.  1.
        -12    1    3    3    0    0  0.21094979140E+01 -0.20635863971E+00  0.40503130178E+01  0.45713893817E+01  0.00000000000E+00 0.  1.
</event>
<event>
 7    1  0.2714068E-010  0.4778727E+02  0.7816164E-02  0.1312668E+00
        -11   -1    0    0    0    0  0.00000000000E+00  0.00000000000E+00  0.45593999997E+02  0.45594000000E+02  0.51100000000E-03 0. -1.
         11   -1    0    0    0    0 -0.00000000000E+00 -0.00000000000E+00 -0.45593999997E+02  0.45594000000E+02  0.51100000000E-03 0.  1.
    9900012    2    1    2    0    0 -0.25580380041E+01  0.28380096489E+02  0.32736066671E+02  0.47787268483E+02  0.19999988319E+02 0.  0.
        -12    1    1    2    0    0  0.25580380041E+01 -0.28380096489E+02 -0.32736066671E+02  0.43400731517E+02  0.00000000000E+00 0.  1.
         11    1    3    3    0    0  0.33967179669E+01  0.24547507613E+02  0.29565788065E+02  0.38577890651E+02  0.51100000000E-03 0. -1.
        -11    1    3    3    0    0 -0.41225419807E+01  0.24213187266E+00  0.80403227579E-01  0.41304291746E+01  0.51100000000E-03 0.  1.
         12    1    3    3    0    0 -0.18322139903E+01  0.35904570032E+01  0.30898753788E+01  0.50789486565E+01  0.00000000000E+00 0. -1.
</event>
<event>
 7    1  0.2714068E-010  0.4778728E+02  0.7816164E-02  0.1312668E+00
        -11   -1    0    0    0    0  0.00000000000E+00  0.00000000000E+00  0.45593999997E+02  0.45594000000E+02  0.51100000000E-03 0. -1.
         11   -1    0    0    0    0 -0.00000000000E+00 -0.00000000000E+00 -0.45593999997E+02  0.45594000000E+02  0.51100000000E-03 0.  1.
    9900012    2    1    2    0    0  0.44522245080E+01 -0.14698199296E+02  0.40592651247E+02  0.47787277645E+02  0.20000030096E+02 0.  0.
        -12    1    1    2    0    0 -0.44522245080E+01  0.14698199296E+02 -0.40592651247E+02  0.43400722355E+02  0.00000000000E+00 0.  1.
         11    1    3    3    0    0  0.53374260417E+01 -0.10878002169E+02  0.38028438050E+02  0.39912167928E+02  0.51100000000E-03 0. -1.
        -11    1    3    3    0    0  0.11514028661E+01 -0.93289795841E+00  0.38419719036E+01  0.41178605525E+01  0.51100000000E-03 0.  1.
         12    1    3    3    0    0 -0.20366043997E+01 -0.28872991687E+01 -0.12777587067E+01  0.37572491643E+01  0.00000000000E+00 0. -1.
</event>
<event>
 7    1  0.2714068E-010  0.4778727E+02  0.7816164E-02  0.1312668E+00
        -11   -1    0    0    0    0  0.00000000000E+00  0.00000000000E+00  0.45593999997E+02  0.45594000000E+02  0.51100000000E-03 0.  1.
         11   -1    0    0    0    0 -0.00000000000E+00 -0.00000000000E+00 -0.45593999997E+02  0.45594000000E+02  0.51100000000E-03 0. -1.
    9900012    2    1    2    0    0 -0.42589937450E+02  0.26123378949E+01 -0.79307016489E+01  0.47787272934E+02  0.20000008614E+02 0.  0.
        -12    1    1    2    0    0  0.42589937450E+02 -0.26123378949E+01  0.79307016489E+01  0.43400727066E+02  0.00000000000E+00 0.  1.
         11    1    3    3    0    0 -0.28104127713E+02  0.92150929709E+01 -0.51604928456E+01  0.30023168048E+02  0.51100000000E-03 0. -1.
        -11    1    3    3    0    0 -0.32096079795E+01 -0.29471728581E+01 -0.39112569293E+01  0.58553686704E+01  0.51100000000E-03 0.  1.
         12    1    3    3    0    0 -0.11276201758E+02 -0.36555822179E+01  0.11410481260E+01  0.11908736216E+02  0.00000000000E+00 0. -1.
</event>
<event>
 7    1  0.2714068E-010  0.4778727E+02  0.7816164E-02  0.1312668E+00
        -11   -1    0    0    0    0  0.00000000000E+00  0.00000000000E+00  0.45593999997E+02  0.45594000000E+02  0.51100000000E-03 0.  1.
         11   -1    0    0    0    0 -0.00000000000E+00 -0.00000000000E+00 -0.45593999997E+02  0.45594000000E+02  0.51100000000E-03 0. -1.
    9900012    2    1    2    0    0 -0.23665750917E+02  0.13845855723E+01 -0.36354345622E+02  0.47787270867E+02  0.19999999191E+02 0.  0.
        -12    1    1    2    0    0  0.23665750917E+02 -0.13845855723E+01  0.36354345622E+02  0.43400729133E+02  0.00000000000E+00 0.  1.
         11    1    3    3    0    0 -0.14488415830E+02  0.37030699214E+01 -0.26264268057E+02  0.30223148362E+02  0.51100000000E-03 0. -1.
        -11    1    3    3    0    0 -0.94311811831E+01 -0.76842780425E+00 -0.24640183055E+01  0.97779878436E+01  0.51100000000E-03 0.  1.
         12    1    3    3    0    0  0.25384609543E+00 -0.15500565448E+01 -0.76260592595E+01  0.77861346611E+01  0.00000000000E+00 0. -1.
</event>
<event>
 7    1  0.2714068E-010  0.4778727E+02  0.7816164E-02  0.1312668E+00
        -11   -1    0    0    0    0  0.00000000000E+00  0.00000000000E+00  0.45593999997E+02  0.45594000000E+02  0.51100000000E-03 0.  1.
         11   -1    0    0    0    0 -0.00000000000E+00 -0.00000000000E+00 -0.45593999997E+02  0.45594000000E+02  0.51100000000E-03 0. -1.
    9900012    2    1    2    0    0  0.37123317138E+02 -0.12773463269E+02 -0.18501925470E+02  0.47787270912E+02  0.19999999398E+02 0.  0.
        -12    1    1    2    0    0 -0.37123317138E+02  0.12773463269E+02  0.18501925470E+02  0.43400729088E+02  0.00000000000E+00 0.  1.
         11    1    3    3    0    0  0.87902212902E+01 -0.96700444911E+01 -0.22819508526E+01  0.13265935728E+02  0.51100000000E-03 0. -1.
        -11    1    3    3    0    0  0.84784188380E+01  0.17975468474E+01 -0.98090761994E+01  0.13089413158E+02  0.51100000000E-03 0.  1.
        -12    1    3    3    0    0  0.19854677010E+02 -0.49009656248E+01 -0.64108984185E+01  0.21431922027E+02  0.00000000000E+00 0.  1.
</event>
<event>
 7    1  0.2714068E-010  0.4778728E+02  0.7816164E-02  0.1312668E+00
        -11   -1    0    0    0    0  0.00000000000E+00  0.00000000000E+00  0.45593999997E+02  0.45594000000E+02  0.51100000000E-03 0. -1.
         11   -1    0    0    0    0 -0.00000000000E+00 -0.00000000000E+00 -0.45593999997E+02  0.45594000000E+02  0.51100000000E-03 0.  1.
    9900012    2    1    2    0    0  0.33192724542E+02  0.95674820472E+01 -0.26274115932E+02  0.47787276005E+02  0.20000022618E+02 0.  0.
        -12    1    1    2    0    0 -0.33192724542E+02 -0.95674820472E+01  0.26274115932E+02  0.43400723995E+02  0.00000000000E+00 0.  1.
         11    1    3    3    0    0  0.18934471645E+02  0.47560851094E+01 -0.23154926789E+02  0.30286716510E+02  0.51100000000E-03 0. -1.
        -11    1    3    3    0    0  0.65206409724E+01 -0.10309948018E+01  0.14860814368E+01  0.67668417501E+01  0.51100000000E-03 0.  1.
         12    1    3    3    0    0  0.77376119241E+01  0.58423917396E+01 -0.46052705799E+01  0.10733717746E+02  0.00000000000E+00 0. -1.
</event>
<event>
 7    1  0.2714068E-010  0.4778727E+02  0.7816164E-02  0.1312668E+00
        -11   -1    0    0    0    0  0.00000000000E+00  0.00000000000E+00  0.45593999997E+02  0.45594000000E+02  0.51100000000E-03 0.  1.
         11   -1    0    0    0    0 -0.00000000000E+00 -0.00000000000E+00 -0.45593999997E+02  0.45594000000E+02  0.51100000000E-03 0. -1.
    9900012    2    1    2    0    0  0.10840610268E+02  0.49054377116E+01 -0.41737763641E+02  0.47787273464E+02  0.20000011032E+02 0.  0.
        -12    1    1    2    0    0 -0.10840610268E+02 -0.49054377116E+01  0.41737763641E+02  0.43400726536E+02  0.00000000000E+00 0.  1.
         11    1    3    3    0    0 -0.37965425515E+01  0.28277848004E+01 -0.21992273468E+01  0.52198374885E+01  0.51100000000E-03 0. -1.
        -11    1    3    3    0    0  0.13380887577E+02  0.11533209292E+00 -0.32264809020E+02  0.34929634341E+02  0.51100000000E-03 0.  1.
         12    1    3    3    0    0  0.12562652430E+01  0.19623208183E+01 -0.72737272737E+01  0.76378016344E+01  0.00000000000E+00 0. -1.
</event>
<event>
 7    1  0.2714068E-010  0.4778727E+02  0.7816164E-02  0.1312668E+00
        -11   -1    0    0    0    0  0.00000000000E+00  0.00000000000E+00  0.45593999997E+02  0.45594000000E+02  0.51100000000E-03 0.  1.
         11   -1    0    0    0    0 -0.00000000000E+00 -0.00000000000E+00 -0.45593999997E+02  0.45594000000E+02  0.51100000000E-03 0. -1.
    9900012    2    1    2    0    0 -0.27741866677E+02 -0.37158245829E-01 -0.33376806953E+02  0.47787265100E+02  0.19999972897E+02 0.  0.
        -12    1    1    2    0    0  0.27741866677E+02  0.37158245829E-01  0.33376806953E+02  0.43400734900E+02  0.00000000000E+00 0.  1.
         11    1    3    3    0    0 -0.74381255057E+01 -0.56008051947E+01 -0.54198497083E+01  0.10773555634E+02  0.51100000000E-03 0. -1.
        -11    1    3    3    0    0 -0.17325273450E+02  0.89911665754E+01 -0.20687234291E+02  0.28442359947E+02  0.51100000000E-03 0.  1.
        -12    1    3    3    0    0 -0.29784677218E+01 -0.34275196265E+01 -0.72697229534E+01  0.85713495192E+01  0.00000000000E+00 0.  1.
</event>
<event>
 7    1  0.2714068E-010  0.4778727E+02  0.7816164E-02  0.1312668E+00
        -11   -1    0    0    0    0  0.00000000000E+00  0.00000000000E+00  0.45593999997E+02  0.45594000000E+02  0.51100000000E-03 0.  1.
         11   -1    0    0    0    0 -0.00000000000E+00 -0.00000000000E+00 -0.45593999997E+02  0.45594000000E+02  0.51100000000E-03 0. -1.
    9900012    2    1    2    0    0  0.32832912481E+02 -0.28132754286E+02 -0.37644837101E+01  0.47787270245E+02  0.19999996353E+02 0.  0.
        -12    1    1    2    0    0 -0.32832912481E+02  0.28132754286E+02  0.37644837101E+01  0.43400729755E+02  0.00000000000E+00 0.  1.
         11    1    3    3    0    0  0.50681327383E+01 -0.36280354578E+01 -0.30879249090E+01  0.69558530204E+01  0.51100000000E-03 0. -1.
        -11    1    3    3    0    0  0.44928180904E+00 -0.72760034749E+01 -0.40861578162E+01  0.83569591760E+01  0.51100000000E-03 0.  1.
        -12    1    3    3    0    0  0.27315497934E+02 -0.17228715353E+02  0.34095990150E+01  0.32474458048E+02  0.00000000000E+00 0.  1.
</event>
<event>
 7    1  0.2714068E-010  0.4778728E+02  0.7816164E-02  0.1312668E+00
        -11   -1    0    0    0    0  0.00000000000E+00  0.00000000000E+00  0.45593999997E+02  0.45594000000E+02  0.51100000000E-03 0. -1.
         11   -1    0    0    0    0 -0.00000000000E+00 -0.00000000000E+00 -0.45593999997E+02  0.45594000000E+02  0.51100000000E-03 0.  1.
    9900012    2    1    2    0    0 -0.24561957543E+01 -0.34644475782E+02  0.26025954303E+02  0.47787275384E+02  0.20000019788E+02 0.  0.
        -12    1    1    2    0    0  0.24561957543E+01  0.34644475782E+02 -0.26025954303E+02  0.43400724616E+02  0.00000000000E+00 0.  1.
         11    1    3    3    0    0 -0.88507683183E+01 -0.78812845569E+01  0.40716707723E+01  0.12531131203E+02  0.51100000000E-03 0. -1.
        -11    1    3    3    0    0  0.31454447592E+01 -0.13153861165E+02  0.12044776981E+02  0.18110619511E+02  0.51100000000E-03 0.  1.
         12    1    3    3    0    0  0.32491278048E+01 -0.13609330059E+02  0.99095065495E+01  0.17145524670E+02  0.00000000000E+00 0. -1.
</event>
<event>
 7    1  0.2714068E-010  0.4778727E+02  0.7816164E-02  0.1312668E+00
        -11   -1    0    0    0    0  0.00000000000E+00  0.00000000000E+00  0.45593999997E+02  0.45594000000E+02  0.51100000000E-03 0.  1.
         11   -1    0    0    0    0 -0.00000000000E+00 -0.00000000000E+00 -0.45593999997E+02  0.45594000000E+02  0.51100000000E-03 0. -1.
    9900012    2    1    2    0    0  0.25699476262E+02  0.10399811061E+02 -0.33391679806E+02  0.47787269240E+02  0.19999991774E+02 0.  0.
        -12    1    1    2    0    0 -0.25699476262E+02 -0.10399811061E+02  0.33391679806E+02  0.43400730760E+02  0.00000000000E+00 0.  1.
         11    1    3    3    0    0  0.68330656907E+01 -0.25902601978E+00 -0.21495411240E+02  0.22556830138E+02  0.51100000000E-03 0. -1.
        -11    1    3    3    0    0  0.67560404570E+01  0.65112344099E+01 -0.40783789413E+01  0.10231003433E+02  0.51100000000E-03 0.  1.
         12    1    3    3    0    0  0.12110370114E+02  0.41476026708E+01 -0.78178896238E+01  0.14999435669E+02  0.00000000000E+00 0. -1.
</event>
<event>
 7    1  0.2714068E-010  0.4778730E+02  0.7816164E-02  0.1312668E+00
        -11   -1    0    0    0    0  0.00000000000E+00  0.00000000000E+00  0.45593999997E+02  0.45594000000E+02  0.51100000000E-03 0.  1.
         11   -1    0    0    0    0 -0.00000000000E+00 -0.00000000000E+00 -0.45593999997E+02  0.45594000000E+02  0.51100000000E-03 0. -1.
    9900012    2    1    2    0    0  0.47070543348E+01  0.17207312591E+02 -0.39564788646E+02  0.47787303373E+02  0.20000147397E+02 0.  0.
        -12    1    1    2    0    0 -0.47070543348E+01 -0.17207312591E+02  0.39564788646E+02  0.43400696627E+02  0.00000000000E+00 0.  1.
         11    1    3    3    0    0  0.34650070270E+01  0.13971368201E+02 -0.33023149685E+02  0.36024072763E+02  0.51100000000E-03 0. -1.
        -11    1    3    3    0    0  0.31141625681E+01  0.32218726351E+01  0.47043851790E+00  0.45055282085E+01  0.51100000000E-03 0.  1.
        -12    1    3    3    0    0 -0.18721152603E+01  0.14071754684E-01 -0.70120774795E+01  0.72577024009E+01  0.00000000000E+00 0.  1.
</event>
<event>
 7    1  0.2714068E-010  0.4778727E+02  0.7816164E-02  0.1312668E+00
        -11   -1    0    0    0    0  0.00000000000E+00  0.00000000000E+00  0.45593999997E+02  0.45594000000E+02  0.51100000000E-03 0.  1.
         11   -1    0    0    0    0 -0.00000000000E+00 -0.00000000000E+00 -0.45593999997E+02  0.45594000000E+02  0.51100000000E-03 0. -1.
    9900012    2    1    2    0    0  0.91524766808E+01  0.41855891224E+02 -0.69238558480E+01  0.47787271442E+02  0.20000001815E+02 0.  0.
        -12    1    1    2    0    0 -0.91524766808E+01 -0.41855891224E+02  0.69238558480E+01  0.43400728558E+02  0.00000000000E+00 0.  1.
         11    1    3    3    0    0  0.45222022023E+00 -0.15372332955E+01 -0.19000191361E+01  0.24854903562E+01  0.51100000000E-03 0. -1.
        -11    1    3    3    0    0  0.34120829677E+00  0.12855590349E+02  0.15881216557E+01  0.12957806797E+02  0.51100000000E-03 0.  1.
         12    1    3    3    0    0  0.83590481638E+01  0.30537534170E+02 -0.66119583676E+01  0.32343974289E+02  0.00000000000E+00 0. -1.
</event>
<event>
 7    1  0.2714068E-010  0.4778728E+02  0.7816164E-02  0.1312668E+00
        -11   -1    0    0    0    0  0.00000000000E+00  0.00000000000E+00  0.45593999997E+02  0.45594000000E+02  0.51100000000E-03 0.  1.
         11   -1    0    0    0    0 -0.00000000000E+00 -0.00000000000E+00 -0.45593999997E+02  0.45594000000E+02  0.51100000000E-03 0. -1.
    9900012    2    1    2    0    0 -0.14905159822E+02 -0.25960044365E+02 -0.31425072867E+02  0.47787275381E+02  0.20000019771E+02 0.  0.
        -12    1    1    2    0    0  0.14905159822E+02  0.25960044365E+02  0.31425072867E+02  0.43400724619E+02  0.00000000000E+00 0.  1.
         11    1    3    3    0    0 -0.82685157526E+01 -0.92688743813E+01 -0.17948445609E+02  0.21827209741E+02  0.51100000000E-03 0. -1.
        -11    1    3    3    0    0  0.27853840848E+01 -0.66880381160E+01 -0.84369980338E+00  0.72938362993E+01  0.51100000000E-03 0.  1.
        -12    1    3    3    0    0 -0.94220281543E+01 -0.10003131868E+02 -0.12632927455E+02  0.18666229340E+02  0.00000000000E+00 0.  1.
</event>
<event>
 7    1  0.2714068E-010  0.4778727E+02  0.7816164E-02  0.1312668E+00
        -11   -1    0    0    0    0  0.00000000000E+00  0.00000000000E+00  0.45593999997E+02  0.45594000000E+02  0.51100000000E-03 0.  1.
         11   -1    0    0    0    0 -0.00000000000E+00 -0.00000000000E+00 -0.45593999997E+02  0.45594000000E+02  0.51100000000E-03 0. -1.
    9900012    2    1    2    0    0  0.73911246417E+01 -0.40560937104E+02 -0.13557468936E+02  0.47787270672E+02  0.19999998301E+02 0.  0.
        -12    1    1    2    0    0 -0.73911246417E+01  0.40560937104E+02  0.13557468936E+02  0.43400729328E+02  0.00000000000E+00 0.  1.
         11    1    3    3    0    0  0.10202192926E+02 -0.14508014003E+02 -0.25393936661E+01  0.17916911879E+02  0.51100000000E-03 0.  1.
        -11    1    3    3    0    0 -0.45184588197E+01 -0.15610576981E+02 -0.28407769376E+01  0.16497775536E+02  0.51100000000E-03 0. -1.
         12    1    3    3    0    0  0.17073905349E+01 -0.10442346121E+02 -0.81772983323E+01  0.13372583257E+02  0.00000000000E+00 0. -1.
</event>
<event>
 7    1  0.2714068E-010  0.4778727E+02  0.7816164E-02  0.1312668E+00
        -11   -1    0    0    0    0  0.00000000000E+00  0.00000000000E+00  0.45593999997E+02  0.45594000000E+02  0.51100000000E-03 0. -1.
         11   -1    0    0    0    0 -0.00000000000E+00 -0.00000000000E+00 -0.45593999997E+02  0.45594000000E+02  0.51100000000E-03 0.  1.
    9900012    2    1    2    0    0 -0.40536984052E+02 -0.48928388750E+01 -0.14711773033E+02  0.47787271733E+02  0.20000003141E+02 0.  0.
        -12    1    1    2    0    0  0.40536984052E+02  0.48928388750E+01  0.14711773033E+02  0.43400728267E+02  0.00000000000E+00 0.  1.
         11    1    3    3    0    0 -0.21326682452E+02  0.45718190485E+01 -0.10708760194E+02  0.24298280988E+02  0.51100000000E-03 0. -1.
        -11    1    3    3    0    0 -0.13727027474E+02 -0.62897997864E+01  0.13970521046E+01  0.15163924936E+02  0.51100000000E-03 0.  1.
        -12    1    3    3    0    0 -0.54832741269E+01 -0.31748581371E+01 -0.54000649434E+01  0.83250658096E+01  0.00000000000E+00 0.  1.
</event>
<event>
 7    1  0.2714068E-010  0.4778727E+02  0.7816164E-02  0.1312668E+00
        -11   -1    0    0    0    0  0.00000000000E+00  0.00000000000E+00  0.45593999997E+02  0.45594000000E+02  0.51100000000E-03 0.  1.
         11   -1    0    0    0    0 -0.00000000000E+00 -0.00000000000E+00 -0.45593999997E+02  0.45594000000E+02  0.51100000000E-03 0. -1.
    9900012    2    1    2    0    0 -0.18658719567E+02 -0.29308920166E+02 -0.26008894687E+02  0.47787271665E+02  0.20000002830E+02 0.  0.
        -12    1    1    2    0    0  0.18658719567E+02  0.29308920166E+02  0.26008894687E+02  0.43400728335E+02  0.00000000000E+00 0.  1.
         11    1    3    3    0    0 -0.13620254275E+02 -0.52753124445E+01 -0.66729829978E+01  0.16058298485E+02  0.51100000000E-03 0. -1.
        -11    1    3    3    0    0 -0.39879604964E+00 -0.11075342659E+02 -0.61808369836E+01  0.12689562616E+02  0.51100000000E-03 0.  1.
         12    1    3    3    0    0 -0.46396692423E+01 -0.12958265062E+02 -0.13155074706E+02  0.19039410564E+02  0.00000000000E+00 0. -1.
</event>
<event>
 7    1  0.2714068E-010  0.4778727E+02  0.7816164E-02  0.1312668E+00
        -11   -1    0    0    0    0  0.00000000000E+00  0.00000000000E+00  0.45593999997E+02  0.45594000000E+02  0.51100000000E-03 0. -1.
         11   -1    0    0    0    0 -0.00000000000E+00 -0.00000000000E+00 -0.45593999997E+02  0.45594000000E+02  0.51100000000E-03 0.  1.
    9900012    2    1    2    0    0 -0.55727924115E+00 -0.15443656081E+02  0.40556213319E+02  0.47787268300E+02  0.19999987488E+02 0.  0.
        -12    1    1    2    0    0  0.55727924115E+00  0.15443656081E+02 -0.40556213319E+02  0.43400731700E+02  0.00000000000E+00 0.  1.
         11    1    3    3    0    0 -0.25261806444E+01 -0.49772428532E+01  0.20845602786E+02  0.21579937230E+02  0.51100000000E-03 0. -1.
        -11    1    3    3    0    0  0.27453444438E+01 -0.51735647426E+01  0.76335999914E-01  0.58573471561E+01  0.51100000000E-03 0.  1.
        -12    1    3    3    0    0 -0.77644304059E+00 -0.52928484854E+01  0.19634274533E+02  0.20349983914E+02  0.00000000000E+00 0.  1.
</event>
<event>
 7    1  0.2714068E-010  0.4778727E+02  0.7816164E-02  0.1312668E+00
        -11   -1    0    0    0    0  0.00000000000E+00  0.00000000000E+00  0.45593999997E+02  0.45594000000E+02  0.51100000000E-03 0. -1.
         11   -1    0    0    0    0 -0.00000000000E+00 -0.00000000000E+00 -0.45593999997E+02  0.45594000000E+02  0.51100000000E-03 0.  1.
    9900012    2    1    2    0    0 -0.28410156527E+02 -0.30674108394E+02  0.11644134309E+02  0.47787265174E+02  0.19999973233E+02 0.  0.
        -12    1    1    2    0    0  0.28410156527E+02  0.30674108394E+02 -0.11644134309E+02  0.43400734826E+02  0.00000000000E+00 0.  1.
         11    1    3    3    0    0 -0.18519482614E+02 -0.13280978923E+02 -0.19024138344E+01  0.22868642638E+02  0.51100000000E-03 0. -1.
        -11    1    3    3    0    0 -0.16711858088E+01 -0.89545468618E+01  0.52983065623E+01  0.10537970592E+02  0.51100000000E-03 0.  1.
         12    1    3    3    0    0 -0.82194881045E+01 -0.84385826093E+01  0.82482415809E+01  0.14380651944E+02  0.00000000000E+00 0. -1.
</event>
<event>
 7    1  0.2714068E-010  0.4778727E+02  0.7816164E-02  0.1312668E+00
        -11   -1    0    0    0    0  0.00000000000E+00  0.00000000000E+00  0.45593999997E+02  0.45594000000E+02  0.51100000000E-03 0.  1.
         11   -1    0    0    0    0 -0.00000000000E+00 -0.00000000000E+00 -0.45593999997E+02  0.45594000000E+02  0.51100000000E-03 0. -1.
    9900012    2    1    2    0    0  0.31713419749E+02 -0.29598116237E+02 -0.13541906475E+01  0.47787270637E+02  0.19999998142E+02 0.  0.
        -12    1    1    2    0    0 -0.31713419749E+02  0.29598116237E+02  0.13541906475E+01  0.43400729363E+02  0.00000000000E+00 0.  1.
         11    1    3    3    0    0  0.10399898874E+02 -0.12367527153E+02  0.74266667646E+01  0.17783953553E+02  0.51100000000E-03 0.  1.
        -11    1    3    3    0    0  0.12946980164E+02 -0.15388581301E+02 -0.65569610760E+01  0.21152457745E+02  0.51100000000E-03 0. -1.
         12    1    3    3    0    0  0.83665407109E+01 -0.18420077830E+01 -0.22238963361E+01  0.88508593398E+01  0.00000000000E+00 0. -1.
</event>
<event>
 7    1  0.2714068E-010  0.4778727E+02  0.7816164E-02  0.1312668E+00
        -11   -1    0    0    0    0  0.00000000000E+00  0.00000000000E+00  0.45593999997E+02  0.45594000000E+02  0.51100000000E-03 0.  1.
         11   -1    0    0    0    0 -0.00000000000E+00 -0.00000000000E+00 -0.45593999997E+02  0.45594000000E+02  0.51100000000E-03 0. -1.
    9900012    2    1    2    0    0 -0.26444666972E+02 -0.31803293355E+02 -0.13147378967E+02  0.47787268978E+02  0.19999990580E+02 0.  0.
        -12    1    1    2    0    0  0.26444666972E+02  0.31803293355E+02  0.13147378967E+02  0.43400731022E+02  0.00000000000E+00 0.  1.
         11    1    3    3    0    0 -0.64602254152E+01 -0.11649206682E+02 -0.25936117488E+01  0.13570753512E+02  0.51100000000E-03 0. -1.
        -11    1    3    3    0    0 -0.84905817912E+01 -0.14483355550E+02 -0.12918438697E+02  0.21183569713E+02  0.51100000000E-03 0.  1.
        -12    1    3    3    0    0 -0.11493859766E+02 -0.56707311235E+01  0.23646714794E+01  0.13032945753E+02  0.00000000000E+00 0.  1.
</event>
<event>
 7    1  0.2714068E-010  0.4778727E+02  0.7816164E-02  0.1312668E+00
        -11   -1    0    0    0    0  0.00000000000E+00  0.00000000000E+00  0.45593999997E+02  0.45594000000E+02  0.51100000000E-03 0.  1.
         11   -1    0    0    0    0 -0.00000000000E+00 -0.00000000000E+00 -0.45593999997E+02  0.45594000000E+02  0.51100000000E-03 0. -1.
    9900012    2    1    2    0    0  0.25186994637E+02  0.16364809417E+02 -0.31327814104E+02  0.47787267026E+02  0.19999981680E+02 0.  0.
        -12    1    1    2    0    0 -0.25186994637E+02 -0.16364809417E+02  0.31327814104E+02  0.43400732974E+02  0.00000000000E+00 0.  1.
         11    1    3    3    0    0  0.22894064023E+02  0.55851864031E+01 -0.18499324232E+02  0.29959263542E+02  0.51100000000E-03 0. -1.
        -11    1    3    3    0    0 -0.73428550696E+00  0.66640878347E+01 -0.45590962980E+01  0.81076877832E+01  0.51100000000E-03 0.  1.
         12    1    3    3    0    0  0.30272161203E+01  0.41155351793E+01 -0.82693935740E+01  0.97203157013E+01  0.00000000000E+00 0. -1.
</event>
<event>
 7    1  0.2714068E-010  0.4778727E+02  0.7816164E-02  0.1312668E+00
        -11   -1    0    0    0    0  0.00000000000E+00  0.00000000000E+00  0.45593999997E+02  0.45594000000E+02  0.51100000000E-03 0.  1.
         11   -1    0    0    0    0 -0.00000000000E+00 -0.00000000000E+00 -0.45593999997E+02  0.45594000000E+02  0.51100000000E-03 0. -1.
    9900012    2    1    2    0    0  0.38806869953E+02 -0.17204179247E+02  0.90369427746E+01  0.47787271045E+02  0.20000000003E+02 0.  0.
        -12    1    1    2    0    0 -0.38806869953E+02  0.17204179247E+02 -0.90369427746E+01  0.43400728955E+02  0.00000000000E+00 0.  1.
         11    1    3    3    0    0  0.14847889512E+02 -0.11146350894E+02  0.58282591718E+01  0.19459433868E+02  0.51100000000E-03 0. -1.
        -11    1    3    3    0    0  0.22055015560E+02 -0.12263683743E+01  0.53220831764E+01  0.22721185276E+02  0.51100000000E-03 0.  1.
        -12    1    3    3    0    0  0.19039648809E+01 -0.48314599782E+01 -0.21133995736E+01  0.56066519016E+01  0.00000000000E+00 0.  1.
</event>
<event>
 7    1  0.2714068E-010  0.4778727E+02  0.7816164E-02  0.1312668E+00
        -11   -1    0    0    0    0  0.00000000000E+00  0.00000000000E+00  0.45593999997E+02  0.45594000000E+02  0.51100000000E-03 0.  1.
         11   -1    0    0    0    0 -0.00000000000E+00 -0.00000000000E+00 -0.45593999997E+02  0.45594000000E+02  0.51100000000E-03 0. -1.
    9900012    2    1    2    0    0  0.25988204135E+02  0.29731141993E+02 -0.18008216651E+02  0.47787269300E+02  0.19999992046E+02 0.  0.
        -12    1    1    2    0    0 -0.25988204135E+02 -0.29731141993E+02  0.18008216651E+02  0.43400730700E+02  0.00000000000E+00 0.  1.
         11    1    3    3    0    0  0.26433025821E+02  0.29580715581E+02 -0.19676712747E+02  0.44282012297E+02  0.51100000000E-03 0. -1.
        -11    1    3    3    0    0  0.76125928840E+00  0.12319727576E+01  0.95748238359E+00  0.17361006179E+01  0.51100000000E-03 0.  1.
         12    1    3    3    0    0 -0.12060809746E+01 -0.10815463453E+01  0.71101371225E+00  0.17691563847E+01  0.00000000000E+00 0. -1.
</event>
<event>
 7    1  0.2714068E-010  0.4778727E+02  0.7816164E-02  0.1312668E+00
        -11   -1    0    0    0    0  0.00000000000E+00  0.00000000000E+00  0.45593999997E+02  0.45594000000E+02  0.51100000000E-03 0.  1.
         11   -1    0    0    0    0 -0.00000000000E+00 -0.00000000000E+00 -0.45593999997E+02  0.45594000000E+02  0.51100000000E-03 0. -1.
    9900012    2    1    2    0    0  0.55871422215E+01  0.19110878934E+02 -0.38563992776E+02  0.47787269699E+02  0.19999993868E+02 0.  0.
        -12    1    1    2    0    0 -0.55871422215E+01 -0.19110878934E+02  0.38563992776E+02  0.43400730301E+02  0.00000000000E+00 0.  1.
         11    1    3    3    0    0  0.18358883127E+01 -0.13083364768E+01 -0.12745229906E+02  0.12943072118E+02  0.51100000000E-03 0. -1.
        -11    1    3    3    0    0 -0.21301633992E+01  0.15649115011E+02 -0.16574460445E+02  0.22894216213E+02  0.51100000000E-03 0.  1.
        -12    1    3    3    0    0  0.58814173080E+01  0.47701003997E+01 -0.92443024245E+01  0.11949981368E+02  0.00000000000E+00 0.  1.
</event>
<event>
 7    1  0.2714068E-010  0.4778727E+02  0.7816164E-02  0.1312668E+00
        -11   -1    0    0    0    0  0.00000000000E+00  0.00000000000E+00  0.45593999997E+02  0.45594000000E+02  0.51100000000E-03 0. -1.
         11   -1    0    0    0    0 -0.00000000000E+00 -0.00000000000E+00 -0.45593999997E+02  0.45594000000E+02  0.51100000000E-03 0.  1.
    9900012    2    1    2    0    0 -0.34037636794E+02  0.20471571678E+02  0.17492210669E+02  0.47787269596E+02  0.19999993397E+02 0.  0.
        -12    1    1    2    0    0  0.34037636794E+02 -0.20471571678E+02 -0.17492210669E+02  0.43400730404E+02  0.00000000000E+00 0.  1.
         11    1    3    3    0    0 -0.44986454227E+01 -0.14480109684E+01 -0.16919120857E+01  0.50196726158E+01  0.51100000000E-03 0. -1.
        -11    1    3    3    0    0 -0.92585506279E+00 -0.98992903987E+00 -0.82511023464E-01  0.13579305694E+01  0.51100000000E-03 0.  1.
         12    1    3    3    0    0 -0.28613136308E+02  0.22909511687E+02  0.19266633778E+02  0.41409666411E+02  0.00000000000E+00 0. -1.
</event>
<event>
 7    1  0.2714068E-010  0.4778727E+02  0.7816164E-02  0.1312668E+00
        -11   -1    0    0    0    0  0.00000000000E+00  0.00000000000E+00  0.45593999997E+02  0.45594000000E+02  0.51100000000E-03 0. -1.
         11   -1    0    0    0    0 -0.00000000000E+00 -0.00000000000E+00 -0.45593999997E+02  0.45594000000E+02  0.51100000000E-03 0.  1.
    9900012    2    1    2    0    0 -0.35111581695E+02 -0.25509048379E+02 -0.29747233482E+00  0.47787271802E+02  0.20000003455E+02 0.  0.
        -12    1    1    2    0    0  0.35111581695E+02  0.25509048379E+02  0.29747233482E+00  0.43400728198E+02  0.00000000000E+00 0.  1.
         11    1    3    3    0    0 -0.21220402948E+02 -0.21071053464E+02  0.69177531796E+01  0.30694463746E+02  0.51100000000E-03 0. -1.
        -11    1    3    3    0    0 -0.14147215944E+02 -0.37206726994E+01 -0.72581182091E+01  0.16329954210E+02  0.51100000000E-03 0.  1.
        -12    1    3    3    0    0  0.25603719696E+00 -0.71732221536E+00  0.42892694653E-01  0.76285384585E+00  0.00000000000E+00 0.  1.
</event>
<event>
 7    1  0.2714068E-010  0.4778727E+02  0.7816164E-02  0.1312668E+00
        -11   -1    0    0    0    0  0.00000000000E+00  0.00000000000E+00  0.45593999997E+02  0.45594000000E+02  0.51100000000E-03 0. -1.
         11   -1    0    0    0    0 -0.00000000000E+00 -0.00000000000E+00 -0.45593999997E+02  0.45594000000E+02  0.51100000000E-03 0.  1.
    9900012    2    1    2    0    0 -0.24244863570E+02 -0.33953559576E+02  0.11956838743E+02  0.47787267170E+02  0.19999982334E+02 0.  0.
        -12    1    1    2    0    0  0.24244863570E+02  0.33953559576E+02 -0.11956838743E+02  0.43400732830E+02  0.00000000000E+00 0.  1.
         11    1    3    3    0    0 -0.12770406632E+01 -0.24413871207E+01  0.47841176829E+01  0.55207776801E+01  0.51100000000E-03 0. -1.
        -11    1    3    3    0    0 -0.22563838364E+02 -0.31963238767E+02  0.43346152685E+01  0.39364505890E+02  0.51100000000E-03 0.  1.
        -12    1    3    3    0    0 -0.40398454301E+00  0.45106631078E+00  0.28381057919E+01  0.29019835999E+01  0.00000000000E+00 0.  1.
</event>
<event>
 7    1  0.2714068E-010  0.4778727E+02  0.7816164E-02  0.1312668E+00
        -11   -1    0    0    0    0  0.00000000000E+00  0.00000000000E+00  0.45593999997E+02  0.45594000000E+02  0.51100000000E-03 0. -1.
         11   -1    0    0    0    0 -0.00000000000E+00 -0.00000000000E+00 -0.45593999997E+02  0.45594000000E+02  0.51100000000E-03 0.  1.
    9900012    2    1    2    0    0 -0.39210300463E+02  0.12839626084E+02  0.13465496571E+02  0.47787271225E+02  0.20000000822E+02 0.  0.
        -12    1    1    2    0    0  0.39210300463E+02 -0.12839626084E+02 -0.13465496571E+02  0.43400728775E+02  0.00000000000E+00 0.  1.
         11    1    3    3    0    0 -0.22452062024E+02  0.13257689286E+02  0.15461607893E+02  0.30313738358E+02  0.51100000000E-03 0. -1.
        -11    1    3    3    0    0  0.67163203003E-01  0.71215697261E-01  0.45328887586E+00  0.46373875994E+00  0.51100000000E-03 0.  1.
         12    1    3    3    0    0 -0.16825401642E+02 -0.48927889914E+00 -0.24494001979E+01  0.17009794107E+02  0.00000000000E+00 0. -1.
</event>
<event>
 7    1  0.2714068E-010  0.4778727E+02  0.7816164E-02  0.1312668E+00
        -11   -1    0    0    0    0  0.00000000000E+00  0.00000000000E+00  0.45593999997E+02  0.45594000000E+02  0.51100000000E-03 0.  1.
         11   -1    0    0    0    0 -0.00000000000E+00 -0.00000000000E+00 -0.45593999997E+02  0.45594000000E+02  0.51100000000E-03 0. -1.
    9900012    2    1    2    0    0  0.26157141283E+02 -0.18473850395E+01 -0.34583442355E+02  0.47787270090E+02  0.19999995647E+02 0.  0.
        -12    1    1    2    0    0 -0.26157141283E+02  0.18473850395E+01  0.34583442355E+02  0.43400729910E+02  0.00000000000E+00 0.  1.
         11    1    3    3    0    0  0.54927275706E+01  0.11108839218E+01 -0.18448295488E+02  0.19280656782E+02  0.51100000000E-03 0. -1.
        -11    1    3    3    0    0  0.14177035365E+02  0.24657290964E+01 -0.68150369393E+01  0.15922087817E+02  0.51100000000E-03 0.  1.
         12    1    3    3    0    0  0.64873783483E+01 -0.54239980577E+01 -0.93201099276E+01  0.12584525491E+02  0.00000000000E+00 0. -1.
</event>
<event>
 7    1  0.2714068E-010  0.4778727E+02  0.7816164E-02  0.1312668E+00
        -11   -1    0    0    0    0  0.00000000000E+00  0.00000000000E+00  0.45593999997E+02  0.45594000000E+02  0.51100000000E-03 0. -1.
         11   -1    0    0    0    0 -0.00000000000E+00 -0.00000000000E+00 -0.45593999997E+02  0.45594000000E+02  0.51100000000E-03 0.  1.
    9900012    2    1    2    0    0 -0.22881313518E+02 -0.63910181265E+00  0.36873569458E+02  0.47787273232E+02  0.20000009974E+02 0.  0.
        -12    1    1    2    0    0  0.22881313518E+02  0.63910181265E+00 -0.36873569458E+02  0.43400726768E+02  0.00000000000E+00 0.  1.
         11    1    3    3    0    0 -0.39004261053E+01  0.47016589367E+01  0.11848588915E+02  0.13330715663E+02  0.51100000000E-03 0. -1.
        -11    1    3    3    0    0 -0.17715570535E+01  0.37288863363E+01  0.32215416729E+01  0.52365388105E+01  0.51100000000E-03 0.  1.
         12    1    3    3    0    0 -0.17209330359E+02 -0.90696470857E+01  0.21803438870E+02  0.29220018758E+02  0.00000000000E+00 0. -1.
</event>
<event>
 7    1  0.2714068E-010  0.4778727E+02  0.7816164E-02  0.1312668E+00
        -11   -1    0    0    0    0  0.00000000000E+00  0.00000000000E+00  0.45593999997E+02  0.45594000000E+02  0.51100000000E-03 0. -1.
         11   -1    0    0    0    0 -0.00000000000E+00 -0.00000000000E+00 -0.45593999997E+02  0.45594000000E+02  0.51100000000E-03 0.  1.
    9900012    2    1    2    0    0  0.40733149908E+02  0.93755955470E+01  0.11684711355E+02  0.47787265297E+02  0.19999973797E+02 0.  0.
        -12    1    1    2    0    0 -0.40733149908E+02 -0.93755955470E+01 -0.11684711355E+02  0.43400734703E+02  0.00000000000E+00 0.  1.
         11    1    3    3    0    0  0.14858542729E+01 -0.12997247276E+01  0.29323177093E+01  0.35349023604E+01  0.51100000000E-03 0.  1.
        -11    1    3    3    0    0  0.12877982996E+02 -0.32970743014E+00  0.89360826998E+01  0.15678160840E+02  0.51100000000E-03 0. -1.
         12    1    3    3    0    0  0.26369312639E+02  0.11005027705E+02 -0.18368905411E+00  0.28574202097E+02  0.00000000000E+00 0. -1.
</event>
<event>
 7    1  0.2714068E-010  0.4778727E+02  0.7816164E-02  0.1312668E+00
        -11   -1    0    0    0    0  0.00000000000E+00  0.00000000000E+00  0.45593999997E+02  0.45594000000E+02  0.51100000000E-03 0. -1.
         11   -1    0    0    0    0 -0.00000000000E+00 -0.00000000000E+00 -0.45593999997E+02  0.45594000000E+02  0.51100000000E-03 0.  1.
    9900012    2    1    2    0    0 -0.27569473977E+02  0.27376583664E+02  0.19340892164E+02  0.47787270304E+02  0.19999996623E+02 0.  0.
        -12    1    1    2    0    0  0.27569473977E+02 -0.27376583664E+02 -0.19340892164E+02  0.43400729696E+02  0.00000000000E+00 0.  1.
         11    1    3    3    0    0 -0.12352648868E+02  0.21163312530E+02  0.12649157905E+02  0.27576709870E+02  0.51100000000E-03 0. -1.
        -11    1    3    3    0    0 -0.10665826565E+02 -0.68549730351E+00  0.26545974035E+01  0.11012567844E+02  0.51100000000E-03 0.  1.
        -12    1    3    3    0    0 -0.45509985435E+01  0.68987684372E+01  0.40371368553E+01  0.91979925898E+01  0.00000000000E+00 0.  1.
</event>
<event>
 7    1  0.2714068E-010  0.4778727E+02  0.7816164E-02  0.1312668E+00
        -11   -1    0    0    0    0  0.00000000000E+00  0.00000000000E+00  0.45593999997E+02  0.45594000000E+02  0.51100000000E-03 0.  1.
         11   -1    0    0    0    0 -0.00000000000E+00 -0.00000000000E+00 -0.45593999997E+02  0.45594000000E+02  0.51100000000E-03 0. -1.
    9900012    2    1    2    0    0  0.30406779744E+02  0.25948161278E+02 -0.16903971725E+02  0.47787267423E+02  0.19999983489E+02 0.  0.
        -12    1    1    2    0    0 -0.30406779744E+02 -0.25948161278E+02  0.16903971725E+02  0.43400732577E+02  0.00000000000E+00 0.  1.
         11    1    3    3    0    0  0.17310665964E+02  0.26359425827E+02 -0.11079026871E+02  0.33424890766E+02  0.51100000000E-03 0. -1.
        -11    1    3    3    0    0  0.55195727023E+01 -0.41470697263E+00 -0.21050217023E+01  0.59218900123E+01  0.51100000000E-03 0.  1.
         12    1    3    3    0    0  0.75765410775E+01  0.34424238458E-02 -0.37199231513E+01  0.84404866448E+01  0.00000000000E+00 0. -1.
</event>
<event>
 7    1  0.2714068E-010  0.4778727E+02  0.7816164E-02  0.1312668E+00
        -11   -1    0    0    0    0  0.00000000000E+00  0.00000000000E+00  0.45593999997E+02  0.45594000000E+02  0.51100000000E-03 0. -1.
         11   -1    0    0    0    0 -0.00000000000E+00 -0.00000000000E+00 -0.45593999997E+02  0.45594000000E+02  0.51100000000E-03 0.  1.
    9900012    2    1    2    0    0  0.31022892460E+02 -0.29879181639E+02  0.53326903023E+01  0.47787274915E+02  0.20000017649E+02 0.  0.
        -12    1    1    2    0    0 -0.31022892460E+02  0.29879181639E+02 -0.53326903023E+01  0.43400725085E+02  0.00000000000E+00 0.  1.
         11    1    3    3    0    0  0.23006520209E+02 -0.28161141013E+02  0.17757582483E+01  0.36407460127E+02  0.51100000000E-03 0. -1.
        -11    1    3    3    0    0  0.28731364890E+01 -0.23338700346E+01 -0.16342365611E+01  0.40463059723E+01  0.51100000000E-03 0.  1.
         12    1    3    3    0    0  0.51432357621E+01  0.61582940838E+00  0.51911686152E+01  0.73335088161E+01  0.00000000000E+00 0. -1.
</event>
<event>
 7    1  0.2714068E-010  0.4778726E+02  0.7816164E-02  0.1312668E+00
        -11   -1    0    0    0    0  0.00000000000E+00  0.00000000000E+00  0.45593999997E+02  0.45594000000E+02  0.51100000000E-03 0.  1.
         11   -1    0    0    0    0 -0.00000000000E+00 -0.00000000000E+00 -0.45593999997E+02  0.45594000000E+02  0.51100000000E-03 0. -1.
    9900012    2    1    2    0    0 -0.29979173318E+02 -0.30069125000E+02 -0.89844924387E+01  0.47787260197E+02  0.19999950541E+02 0.  0.
        -12    1    1    2    0    0  0.29979173318E+02  0.30069125000E+02  0.89844924387E+01  0.43400739803E+02  0.00000000000E+00 0.  1.
         11    1    3    3    0    0 -0.94727897105E+01 -0.15154349088E+02 -0.76409065484E+01  0.19436344675E+02  0.51100000000E-03 0. -1.
        -11    1    3    3    0    0 -0.14394200721E+01 -0.41772731659E+01  0.38501962267E+01  0.58605078698E+01  0.51100000000E-03 0.  1.
        -12    1    3    3    0    0 -0.19066963535E+02 -0.10737502746E+02 -0.51937821170E+01  0.22490407652E+02  0.00000000000E+00 0.  1.
</event>
<event>
 7    1  0.2714068E-010  0.4778727E+02  0.7816164E-02  0.1312668E+00
        -11   -1    0    0    0    0  0.00000000000E+00  0.00000000000E+00  0.45593999997E+02  0.45594000000E+02  0.51100000000E-03 0.  1.
         11   -1    0    0    0    0 -0.00000000000E+00 -0.00000000000E+00 -0.45593999997E+02  0.45594000000E+02  0.51100000000E-03 0. -1.
    9900012    2    1    2    0    0  0.65258429286E+01  0.39893326246E+02 -0.15797439206E+02  0.47787272006E+02  0.20000004386E+02 0.  0.
        -12    1    1    2    0    0 -0.65258429286E+01 -0.39893326246E+02  0.15797439206E+02  0.43400727994E+02  0.00000000000E+00 0.  1.
         11    1    3    3    0    0 -0.27841899069E+01  0.61215687020E+01 -0.72166494236E+01  0.98643472148E+01  0.51100000000E-03 0.  1.
        -11    1    3    3    0    0  0.88387651556E+01  0.24292881669E+02 -0.11623523114E+01  0.25876996201E+02  0.51100000000E-03 0. -1.
         12    1    3    3    0    0  0.47126767992E+00  0.94788758753E+01 -0.74184374712E+01  0.12045928590E+02  0.00000000000E+00 0. -1.
</event>
<event>
 7    1  0.2714068E-010  0.4778727E+02  0.7816164E-02  0.1312668E+00
        -11   -1    0    0    0    0  0.00000000000E+00  0.00000000000E+00  0.45593999997E+02  0.45594000000E+02  0.51100000000E-03 0.  1.
         11   -1    0    0    0    0 -0.00000000000E+00 -0.00000000000E+00 -0.45593999997E+02  0.45594000000E+02  0.51100000000E-03 0. -1.
    9900012    2    1    2    0    0 -0.23270646742E+02  0.42620583318E+01 -0.36385918182E+02  0.47787272092E+02  0.20000004774E+02 0.  0.
        -12    1    1    2    0    0  0.23270646742E+02 -0.42620583318E+01  0.36385918182E+02  0.43400727908E+02  0.00000000000E+00 0.  1.
         11    1    3    3    0    0 -0.73215649639E+01 -0.45121043403E+01 -0.20267551391E+02  0.22016767218E+02  0.51100000000E-03 0. -1.
        -11    1    3    3    0    0 -0.90582128627E+01  0.50061042072E+01 -0.35335740145E+01  0.10936107405E+02  0.51100000000E-03 0.  1.
         12    1    3    3    0    0 -0.68908689155E+01  0.37680584649E+01 -0.12584792777E+02  0.14834397468E+02  0.00000000000E+00 0. -1.
</event>
<event>
 7    1  0.2714068E-010  0.4778727E+02  0.7816164E-02  0.1312668E+00
        -11   -1    0    0    0    0  0.00000000000E+00  0.00000000000E+00  0.45593999997E+02  0.45594000000E+02  0.51100000000E-03 0.  1.
         11   -1    0    0    0    0 -0.00000000000E+00 -0.00000000000E+00 -0.45593999997E+02  0.45594000000E+02  0.51100000000E-03 0. -1.
    9900012    2    1    2    0    0 -0.46651454092E+00  0.29821704341E+02 -0.31528902943E+02  0.47787269518E+02  0.19999993041E+02 0.  0.
        -12    1    1    2    0    0  0.46651454092E+00 -0.29821704341E+02  0.31528902943E+02  0.43400730482E+02  0.00000000000E+00 0.  1.
         11    1    3    3    0    0 -0.75649491527E+01  0.10864468064E+02 -0.19560184703E+02  0.23619186012E+02  0.51100000000E-03 0. -1.
        -11    1    3    3    0    0  0.65415262423E+01  0.99522585391E+01 -0.77425119787E+01  0.14205122583E+02  0.51100000000E-03 0.  1.
         12    1    3    3    0    0  0.55690836946E+00  0.90049777378E+01 -0.42262062611E+01  0.99629609229E+01  0.00000000000E+00 0. -1.
</event>
<event>
 7    1  0.2714068E-010  0.4778727E+02  0.7816164E-02  0.1312668E+00
        -11   -1    0    0    0    0  0.00000000000E+00  0.00000000000E+00  0.45593999997E+02  0.45594000000E+02  0.51100000000E-03 0.  1.
         11   -1    0    0    0    0 -0.00000000000E+00 -0.00000000000E+00 -0.45593999997E+02  0.45594000000E+02  0.51100000000E-03 0. -1.
    9900012    2    1    2    0    0 -0.76226990407E+01 -0.42107791095E+02 -0.72423491114E+01  0.47787271524E+02  0.20000002188E+02 0.  0.
        -12    1    1    2    0    0  0.76226990407E+01  0.42107791095E+02  0.72423491114E+01  0.43400728476E+02  0.00000000000E+00 0.  1.
         11    1    3    3    0    0 -0.95742794386E+01 -0.88136510891E+01 -0.56537173472E+01  0.14188438688E+02  0.51100000000E-03 0. -1.
        -11    1    3    3    0    0  0.15546786189E+01 -0.12502231055E+02  0.10220110455E+01  0.12639909565E+02  0.51100000000E-03 0.  1.
         12    1    3    3    0    0  0.39690177903E+00 -0.20791908950E+02 -0.26106428097E+01  0.20958923272E+02  0.00000000000E+00 0. -1.
</event>
<event>
 7    1  0.2714068E-010  0.4778727E+02  0.7816164E-02  0.1312668E+00
        -11   -1    0    0    0    0  0.00000000000E+00  0.00000000000E+00  0.45593999997E+02  0.45594000000E+02  0.51100000000E-03 0. -1.
         11   -1    0    0    0    0 -0.00000000000E+00 -0.00000000000E+00 -0.45593999997E+02  0.45594000000E+02  0.51100000000E-03 0.  1.
    9900012    2    1    2    0    0 -0.37560377265E+02  0.78363703632E+01  0.20283805467E+02  0.47787269534E+02  0.19999993113E+02 0.  0.
        -12    1    1    2    0    0  0.37560377265E+02 -0.78363703632E+01 -0.20283805467E+02  0.43400730466E+02  0.00000000000E+00 0.  1.
         11    1    3    3    0    0 -0.22137375478E+02  0.31491302106E+01  0.16018512856E+02  0.27505875164E+02  0.51100000000E-03 0. -1.
        -11    1    3    3    0    0 -0.10195951424E+02 -0.59854974511E+00 -0.21787893307E+01  0.10443314150E+02  0.51100000000E-03 0.  1.
        -12    1    3    3    0    0 -0.52270503631E+01  0.52857898978E+01  0.64440819420E+01  0.98380802201E+01  0.00000000000E+00 0.  1.
</event>
<event>
 7    1  0.2714068E-010  0.4778727E+02  0.7816164E-02  0.1312668E+00
        -11   -1    0    0    0    0  0.00000000000E+00  0.00000000000E+00  0.45593999997E+02  0.45594000000E+02  0.51100000000E-03 0.  1.
         11   -1    0    0    0    0 -0.00000000000E+00 -0.00000000000E+00 -0.45593999997E+02  0.45594000000E+02  0.51100000000E-03 0. -1.
    9900012    2    1    2    0    0 -0.30498240952E+02 -0.18199543714E+01 -0.30824798707E+02  0.47787272467E+02  0.20000006486E+02 0.  0.
        -12    1    1    2    0    0  0.30498240952E+02  0.18199543714E+01  0.30824798707E+02  0.43400727533E+02  0.00000000000E+00 0.  1.
         11    1    3    3    0    0 -0.15432440770E+02 -0.70776594377E+01 -0.21453667276E+02  0.27358971674E+02  0.51100000000E-03 0. -1.
        -11    1    3    3    0    0  0.89353857069E-01  0.90034368723E+00  0.11561632863E+01  0.14680996807E+01  0.51100000000E-03 0.  1.
         12    1    3    3    0    0 -0.15155154039E+02  0.43573613791E+01 -0.10527294717E+02  0.18960201112E+02  0.00000000000E+00 0. -1.
</event>
<event>
 7    1  0.2714068E-010  0.4778727E+02  0.7816164E-02  0.1312668E+00
        -11   -1    0    0    0    0  0.00000000000E+00  0.00000000000E+00  0.45593999997E+02  0.45594000000E+02  0.51100000000E-03 0.  1.
         11   -1    0    0    0    0 -0.00000000000E+00 -0.00000000000E+00 -0.45593999997E+02  0.45594000000E+02  0.51100000000E-03 0. -1.
    9900012    2    1    2    0    0 -0.20361818105E+02  0.30527790719E+02 -0.23174845984E+02  0.47787272712E+02  0.20000007602E+02 0.  0.
        -12    1    1    2    0    0  0.20361818105E+02 -0.30527790719E+02  0.23174845984E+02  0.43400727288E+02  0.00000000000E+00 0.  1.
         11    1    3    3    0    0 -0.16442847151E+02  0.11375421881E+02 -0.14860228951E+02  0.24911721139E+02  0.51100000000E-03 0. -1.
        -11    1    3    3    0    0 -0.13899217593E+01 -0.27710158736E+00 -0.16604913176E+01  0.21830940116E+01  0.51100000000E-03 0.  1.
         12    1    3    3    0    0 -0.25290491950E+01  0.19429470426E+02 -0.66541257159E+01  0.20692457561E+02  0.00000000000E+00 0. -1.
</event>
<event>
 7    1  0.2714068E-010  0.4778727E+02  0.7816164E-02  0.1312668E+00
        -11   -1    0    0    0    0  0.00000000000E+00  0.00000000000E+00  0.45593999997E+02  0.45594000000E+02  0.51100000000E-03 0.  1.
         11   -1    0    0    0    0 -0.00000000000E+00 -0.00000000000E+00 -0.45593999997E+02  0.45594000000E+02  0.51100000000E-03 0. -1.
    9900012    2    1    2    0    0  0.67738065609E+01  0.36798021273E+02 -0.21991922710E+02  0.47787268561E+02  0.19999988676E+02 0.  0.
        -12    1    1    2    0    0 -0.67738065609E+01 -0.36798021273E+02  0.21991922710E+02  0.43400731439E+02  0.00000000000E+00 0.  1.
         11    1    3    3    0    0 -0.90354165923E+00  0.12171123723E+02 -0.11169916308E+02  0.16544475537E+02  0.51100000000E-03 0. -1.
        -11    1    3    3    0    0  0.68813868382E+01  0.44597190328E+01 -0.68230714216E+01  0.10667562165E+02  0.51100000000E-03 0.  1.
        -12    1    3    3    0    0  0.79596138196E+00  0.20167178518E+02 -0.39989349809E+01  0.20575230858E+02  0.00000000000E+00 0.  1.
</event>
<event>
 7    1  0.2714068E-010  0.4778728E+02  0.7816164E-02  0.1312668E+00
        -11   -1    0    0    0    0  0.00000000000E+00  0.00000000000E+00  0.45593999997E+02  0.45594000000E+02  0.51100000000E-03 0.  1.
         11   -1    0    0    0    0 -0.00000000000E+00 -0.00000000000E+00 -0.45593999997E+02  0.45594000000E+02  0.51100000000E-03 0. -1.
    9900012    2    1    2    0    0 -0.49605530777E+01  0.35620474623E+02 -0.24293979279E+02  0.47787277328E+02  0.20000028649E+02 0.  0.
        -12    1    1    2    0    0  0.49605530777E+01 -0.35620474623E+02  0.24293979279E+02  0.43400722672E+02  0.00000000000E+00 0.  1.
         11    1    3    3    0    0  0.49675983077E+01  0.90043889114E+01 -0.96240093673E+01  0.14084658646E+02  0.51100000000E-03 0. -1.
        -11    1    3    3    0    0 -0.87529013634E+01  0.27377070063E+02 -0.14738595341E+02  0.32300827240E+02  0.51100000000E-03 0.  1.
        -12    1    3    3    0    0 -0.11752500220E+01 -0.76098435094E+00  0.68625428645E-01  0.14017914417E+01  0.00000000000E+00 0.  1.
</event>
<event>
 7    1  0.2714068E-010  0.4778727E+02  0.7816164E-02  0.1312668E+00
        -11   -1    0    0    0    0  0.00000000000E+00  0.00000000000E+00  0.45593999997E+02  0.45594000000E+02  0.51100000000E-03 0.  1.
         11   -1    0    0    0    0 -0.00000000000E+00 -0.00000000000E+00 -0.45593999997E+02  0.45594000000E+02  0.51100000000E-03 0. -1.
    9900012    2    1    2    0    0  0.33830294712E+01  0.35278834603E+02 -0.25051594122E+02  0.47787269276E+02  0.19999991937E+02 0.  0.
        -12    1    1    2    0    0 -0.33830294712E+01 -0.35278834603E+02  0.25051594122E+02  0.43400730724E+02  0.00000000000E+00 0.  1.
         11    1    3    3    0    0 -0.63229186501E+01  0.18447184308E+02 -0.14683547581E+02  0.24410745154E+02  0.51100000000E-03 0. -1.
        -11    1    3    3    0    0  0.46458202915E+01  0.79807808858E+01 -0.59502290934E+00  0.92536783093E+01  0.51100000000E-03 0.  1.
         12    1    3    3    0    0  0.50601278298E+01  0.88508694087E+01 -0.97730236314E+01  0.14122845813E+02  0.00000000000E+00 0. -1.
</event>
<event>
 7    1  0.2714068E-010  0.4778727E+02  0.7816164E-02  0.1312668E+00
        -11   -1    0    0    0    0  0.00000000000E+00  0.00000000000E+00  0.45593999997E+02  0.45594000000E+02  0.51100000000E-03 0.  1.
         11   -1    0    0    0    0 -0.00000000000E+00 -0.00000000000E+00 -0.45593999997E+02  0.45594000000E+02  0.51100000000E-03 0. -1.
    9900012    2    1    2    0    0  0.12241258753E+02  0.98526220525E+01 -0.40456162421E+02  0.47787266654E+02  0.19999979982E+02 0.  0.
        -12    1    1    2    0    0 -0.12241258753E+02 -0.98526220525E+01  0.40456162421E+02  0.43400733346E+02  0.00000000000E+00 0.  1.
         11    1    3    3    0    0  0.84733681720E+01  0.14527108633E+02 -0.33778734874E+02  0.37733775101E+02  0.51100000000E-03 0. -1.
        -11    1    3    3    0    0 -0.78678416505E+00 -0.21351088179E+01 -0.16571522285E+01  0.28149374338E+01  0.51100000000E-03 0.  1.
         12    1    3    3    0    0  0.45546747459E+01 -0.25393777631E+01 -0.50202753185E+01  0.72385541193E+01  0.00000000000E+00 0. -1.
</event>
<event>
 7    1  0.2714068E-010  0.4778727E+02  0.7816164E-02  0.1312668E+00
        -11   -1    0    0    0    0  0.00000000000E+00  0.00000000000E+00  0.45593999997E+02  0.45594000000E+02  0.51100000000E-03 0. -1.
         11   -1    0    0    0    0 -0.00000000000E+00 -0.00000000000E+00 -0.45593999997E+02  0.45594000000E+02  0.51100000000E-03 0.  1.
    9900012    2    1    2    0    0  0.25383783131E+02 -0.31377576750E+02  0.15960394224E+02  0.47787274747E+02  0.20000016879E+02 0.  0.
        -12    1    1    2    0    0 -0.25383783131E+02  0.31377576750E+02 -0.15960394224E+02  0.43400725253E+02  0.00000000000E+00 0.  1.
         11    1    3    3    0    0  0.38826212937E+01 -0.48587844732E+01 -0.33720060203E+01  0.70748116250E+01  0.51100000000E-03 0. -1.
        -11    1    3    3    0    0 -0.11549019141E+01 -0.95305436791E+00  0.17163827827E+01  0.22777359761E+01  0.51100000000E-03 0.  1.
         12    1    3    3    0    0  0.22656063751E+02 -0.25565737909E+02  0.17616017462E+02  0.38434727145E+02  0.00000000000E+00 0. -1.
</event>
<event>
 7    1  0.2714068E-010  0.4778726E+02  0.7816164E-02  0.1312668E+00
        -11   -1    0    0    0    0  0.00000000000E+00  0.00000000000E+00  0.45593999997E+02  0.45594000000E+02  0.51100000000E-03 0.  1.
         11   -1    0    0    0    0 -0.00000000000E+00 -0.00000000000E+00 -0.45593999997E+02  0.45594000000E+02  0.51100000000E-03 0. -1.
    9900012    2    1    2    0    0 -0.21660275657E+02  0.53529130800E+01 -0.37226371676E+02  0.47787263046E+02  0.19999963533E+02 0.  0.
        -12    1    1    2    0    0  0.21660275657E+02 -0.53529130800E+01  0.37226371676E+02  0.43400736954E+02  0.00000000000E+00 0.  1.
         11    1    3    3    0    0 -0.11220054299E+02 -0.37169457811E+00 -0.28814515509E+02  0.30924166596E+02  0.51100000000E-03 0. -1.
        -11    1    3    3    0    0 -0.54251283930E+01 -0.12349397826E+01 -0.12844822295E+01  0.57102529897E+01  0.51100000000E-03 0.  1.
         12    1    3    3    0    0 -0.50150929649E+01  0.69595474407E+01 -0.71273739370E+01  0.11152843461E+02  0.00000000000E+00 0. -1.
</event>
<event>
 7    1  0.2714068E-010  0.4778727E+02  0.7816164E-02  0.1312668E+00
        -11   -1    0    0    0    0  0.00000000000E+00  0.00000000000E+00  0.45593999997E+02  0.45594000000E+02  0.51100000000E-03 0.  1.
         11   -1    0    0    0    0 -0.00000000000E+00 -0.00000000000E+00 -0.45593999997E+02  0.45594000000E+02  0.51100000000E-03 0. -1.
    9900012    2    1    2    0    0 -0.23935219251E+02  0.34406041019E+02 -0.11267324500E+02  0.47787274424E+02  0.20000015408E+02 0.  0.
        -12    1    1    2    0    0  0.23935219251E+02 -0.34406041019E+02  0.11267324500E+02  0.43400725576E+02  0.00000000000E+00 0.  1.
         11    1    3    3    0    0 -0.22901730156E+02  0.31057095500E+02 -0.14567575212E+02  0.41246171614E+02  0.51100000000E-03 0. -1.
        -11    1    3    3    0    0 -0.87263442735E+00  0.79166045176E+00  0.37578448370E+01  0.39382248787E+01  0.51100000000E-03 0.  1.
         12    1    3    3    0    0 -0.16085466697E+00  0.25572850672E+01 -0.45759412515E+00  0.26028779307E+01  0.00000000000E+00 0. -1.
</event>
<event>
 7    1  0.2714068E-010  0.4778727E+02  0.7816164E-02  0.1312668E+00
        -11   -1    0    0    0    0  0.00000000000E+00  0.00000000000E+00  0.45593999997E+02  0.45594000000E+02  0.51100000000E-03 0.  1.
         11   -1    0    0    0    0 -0.00000000000E+00 -0.00000000000E+00 -0.45593999997E+02  0.45594000000E+02  0.51100000000E-03 0. -1.
    9900012    2    1    2    0    0 -0.42627934919E+02  0.29885745090E+01 -0.75862302520E+01  0.47787270715E+02  0.19999998498E+02 0.  0.
        -12    1    1    2    0    0  0.42627934919E+02 -0.29885745090E+01  0.75862302520E+01  0.43400729285E+02  0.00000000000E+00 0.  1.
         11    1    3    3    0    0 -0.16830673901E+02  0.53454737193E+01 -0.97744028823E+01  0.20183771333E+02  0.51100000000E-03 0. -1.
        -11    1    3    3    0    0 -0.20027402756E+02 -0.54559396980E+01  0.19751610033E+00  0.20758206859E+02  0.51100000000E-03 0.  1.
        -12    1    3    3    0    0 -0.57698582619E+01  0.30990404877E+01  0.19906565300E+01  0.68452925231E+01  0.00000000000E+00 0.  1.
</event>
<event>
 7    1  0.2714068E-010  0.4778730E+02  0.7816164E-02  0.1312668E+00
        -11   -1    0    0    0    0  0.00000000000E+00  0.00000000000E+00  0.45593999997E+02  0.45594000000E+02  0.51100000000E-03 0.  1.
         11   -1    0    0    0    0 -0.00000000000E+00 -0.00000000000E+00 -0.45593999997E+02  0.45594000000E+02  0.51100000000E-03 0. -1.
    9900012    2    1    2    0    0  0.17370330809E+02  0.24175184316E+02 -0.31582483272E+02  0.47787295181E+02  0.20000110047E+02 0.  0.
        -12    1    1    2    0    0 -0.17370330809E+02 -0.24175184316E+02  0.31582483272E+02  0.43400704819E+02  0.00000000000E+00 0.  1.
         11    1    3    3    0    0  0.12368808899E+02  0.94838858436E+01 -0.16179998165E+02  0.22466060295E+02  0.51100000000E-03 0. -1.
        -11    1    3    3    0    0 -0.40352527161E+01  0.64616151789E+01 -0.79251156576E+01  0.10992870128E+02  0.51100000000E-03 0.  1.
        -12    1    3    3    0    0  0.90367746262E+01  0.82296832938E+01 -0.74773694497E+01  0.14328364758E+02  0.00000000000E+00 0.  1.
</event>
<event>
 7    1  0.2714068E-010  0.4778728E+02  0.7816164E-02  0.1312668E+00
        -11   -1    0    0    0    0  0.00000000000E+00  0.00000000000E+00  0.45593999997E+02  0.45594000000E+02  0.51100000000E-03 0.  1.
         11   -1    0    0    0    0 -0.00000000000E+00 -0.00000000000E+00 -0.45593999997E+02  0.45594000000E+02  0.51100000000E-03 0. -1.
    9900012    2    1    2    0    0  0.25554584388E+01 -0.19893668643E+02 -0.38488102587E+02  0.47787280413E+02  0.20000042714E+02 0.  0.
        -12    1    1    2    0    0 -0.25554584388E+01  0.19893668643E+02  0.38488102587E+02  0.43400719587E+02  0.00000000000E+00 0.  1.
         11    1    3    3    0    0  0.96889075077E+01 -0.11111891373E+02 -0.14994793233E+02  0.21028382794E+02  0.51100000000E-03 0. -1.
        -11    1    3    3    0    0 -0.49491436370E+01 -0.63342780614E+01 -0.97846353957E+01  0.12663182514E+02  0.51100000000E-03 0.  1.
         12    1    3    3    0    0 -0.21843054318E+01 -0.24474992084E+01 -0.13708673959E+02  0.14095715105E+02  0.00000000000E+00 0. -1.
</event>
<event>
 7    1  0.2714068E-010  0.4778727E+02  0.7816164E-02  0.1312668E+00
        -11   -1    0    0    0    0  0.00000000000E+00  0.00000000000E+00  0.45593999997E+02  0.45594000000E+02  0.51100000000E-03 0.  1.
         11   -1    0    0    0    0 -0.00000000000E+00 -0.00000000000E+00 -0.45593999997E+02  0.45594000000E+02  0.51100000000E-03 0. -1.
    9900012    2    1    2    0    0  0.37042728185E+01  0.42569933676E+02 -0.75962020088E+01  0.47787272181E+02  0.20000005181E+02 0.  0.
        -12    1    1    2    0    0 -0.37042728185E+01 -0.42569933676E+02  0.75962020088E+01  0.43400727819E+02  0.00000000000E+00 0.  1.
         11    1    3    3    0    0  0.62525341869E+01  0.24582336553E+02  0.89428541138E+00  0.25380803786E+02  0.51100000000E-03 0. -1.
        -11    1    3    3    0    0  0.27325642555E+01  0.40995188353E+01  0.63837962142E+00  0.49679463457E+01  0.51100000000E-03 0.  1.
         12    1    3    3    0    0 -0.52808256239E+01  0.13888078288E+02 -0.91288670416E+01  0.17438522049E+02  0.00000000000E+00 0. -1.
</event>
<event>
 7    1  0.2714068E-010  0.4778726E+02  0.7816164E-02  0.1312668E+00
        -11   -1    0    0    0    0  0.00000000000E+00  0.00000000000E+00  0.45593999997E+02  0.45594000000E+02  0.51100000000E-03 0. -1.
         11   -1    0    0    0    0 -0.00000000000E+00 -0.00000000000E+00 -0.45593999997E+02  0.45594000000E+02  0.51100000000E-03 0.  1.
    9900012    2    1    2    0    0  0.21354097320E+02  0.22293921357E+02  0.30505858607E+02  0.47787264855E+02  0.19999971778E+02 0.  0.
        -12    1    1    2    0    0 -0.21354097320E+02 -0.22293921357E+02 -0.30505858607E+02  0.43400735145E+02  0.00000000000E+00 0.  1.
         11    1    3    3    0    0  0.20076069746E+01  0.87653033045E+01  0.17912031269E+02  0.20042502145E+02  0.51100000000E-03 0. -1.
        -11    1    3    3    0    0  0.19579147775E+02  0.12786078416E+02  0.13112331134E+02  0.26809700798E+02  0.51100000000E-03 0.  1.
        -12    1    3    3    0    0 -0.23265742961E+00  0.74253963592E+00 -0.51850379640E+00  0.93506191097E+00  0.00000000000E+00 0.  1.
</event>
<event>
 7    1  0.2714068E-010  0.4778733E+02  0.7816164E-02  0.1312667E+00
        -11   -1    0    0    0    0  0.00000000000E+00  0.00000000000E+00  0.45593999997E+02  0.45594000000E+02  0.51100000000E-03 0.  1.
         11   -1    0    0    0    0 -0.00000000000E+00 -0.00000000000E+00 -0.45593999997E+02  0.45594000000E+02  0.51100000000E-03 0. -1.
    9900012    2    1    2    0    0  0.15385725441E+02  0.38999231727E+02 -0.11223073722E+02  0.47787331728E+02  0.20000276679E+02 0.  0.
        -12    1    1    2    0    0 -0.15385725441E+02 -0.38999231727E+02  0.11223073722E+02  0.43400668272E+02  0.00000000000E+00 0.  1.
         11    1    3    3    0    0  0.77762596193E+01  0.34144097333E+01 -0.55824773592E+01  0.10163289882E+02  0.51100000000E-03 0. -1.
        -11    1    3    3    0    0  0.26889610755E+01  0.53607145238E+01  0.14966986559E+01  0.61812522193E+01  0.51100000000E-03 0.  1.
         12    1    3    3    0    0  0.49205047467E+01  0.30224107470E+02 -0.71372950187E+01  0.31442789627E+02  0.00000000000E+00 0. -1.
</event>
<event>
 7    1  0.2714068E-010  0.4778727E+02  0.7816164E-02  0.1312668E+00
        -11   -1    0    0    0    0  0.00000000000E+00  0.00000000000E+00  0.45593999997E+02  0.45594000000E+02  0.51100000000E-03 0.  1.
         11   -1    0    0    0    0 -0.00000000000E+00 -0.00000000000E+00 -0.45593999997E+02  0.45594000000E+02  0.51100000000E-03 0. -1.
    9900012    2    1    2    0    0  0.26726166485E+01 -0.16878222216E+02 -0.39894936051E+02  0.47787272041E+02  0.20000004542E+02 0.  0.
        -12    1    1    2    0    0 -0.26726166485E+01  0.16878222216E+02  0.39894936051E+02  0.43400727959E+02  0.00000000000E+00 0.  1.
         11    1    3    3    0    0  0.70805080677E+00 -0.30118814662E+01 -0.15537640640E+02  0.15842696829E+02  0.51100000000E-03 0. -1.
        -11    1    3    3    0    0  0.11308921849E+01 -0.17128338751E+02 -0.18895115498E+02  0.25528107949E+02  0.51100000000E-03 0.  1.
        -12    1    3    3    0    0  0.83367365684E+00  0.32619980015E+01 -0.54621799125E+01  0.64164672620E+01  0.00000000000E+00 0.  1.
</event>
<event>
 7    1  0.2714068E-010  0.4778727E+02  0.7816164E-02  0.1312668E+00
        -11   -1    0    0    0    0  0.00000000000E+00  0.00000000000E+00  0.45593999997E+02  0.45594000000E+02  0.51100000000E-03 0.  1.
         11   -1    0    0    0    0 -0.00000000000E+00 -0.00000000000E+00 -0.45593999997E+02  0.45594000000E+02  0.51100000000E-03 0. -1.
    9900012    2    1    2    0    0 -0.20226038012E+02 -0.33278017239E+02  0.19159967076E+02  0.47787269783E+02  0.19999994250E+02 0.  0.
        -12    1    1    2    0    0  0.20226038012E+02  0.33278017239E+02 -0.19159967076E+02  0.43400730217E+02  0.00000000000E+00 0.  1.
         11    1    3    3    0    0  0.10052786775E+01 -0.11835190466E+01 -0.17081768218E+01  0.23084997008E+01  0.51100000000E-03 0.  1.
        -11    1    3    3    0    0 -0.16562283018E+02 -0.29668068525E+02  0.13815054463E+02  0.36679139015E+02  0.51100000000E-03 0. -1.
         12    1    3    3    0    0 -0.46690336713E+01 -0.24264296665E+01  0.70530894350E+01  0.87996310677E+01  0.00000000000E+00 0. -1.
</event>
<event>
 7    1  0.2714068E-010  0.4778727E+02  0.7816164E-02  0.1312668E+00
        -11   -1    0    0    0    0  0.00000000000E+00  0.00000000000E+00  0.45593999997E+02  0.45594000000E+02  0.51100000000E-03 0.  1.
         11   -1    0    0    0    0 -0.00000000000E+00 -0.00000000000E+00 -0.45593999997E+02  0.45594000000E+02  0.51100000000E-03 0. -1.
    9900012    2    1    2    0    0 -0.38184559864E+02  0.63389331667E+01 -0.19631117627E+02  0.47787268843E+02  0.19999989961E+02 0.  0.
        -12    1    1    2    0    0  0.38184559864E+02 -0.63389331667E+01  0.19631117627E+02  0.43400731157E+02  0.00000000000E+00 0.  1.
         11    1    3    3    0    0 -0.14710067433E+02  0.16593631916E+01 -0.10719863406E+01  0.14842126703E+02  0.51100000000E-03 0.  1.
        -11    1    3    3    0    0 -0.19696123281E+02  0.88384904990E+01 -0.15132315380E+02  0.26363671133E+02  0.51100000000E-03 0. -1.
        -12    1    3    3    0    0 -0.37783691507E+01 -0.41589205238E+01 -0.34268159056E+01  0.65814710068E+01  0.00000000000E+00 0.  1.
</event>
<event>
 7    1  0.2714068E-010  0.4778727E+02  0.7816164E-02  0.1312668E+00
        -11   -1    0    0    0    0  0.00000000000E+00  0.00000000000E+00  0.45593999997E+02  0.45594000000E+02  0.51100000000E-03 0. -1.
         11   -1    0    0    0    0 -0.00000000000E+00 -0.00000000000E+00 -0.45593999997E+02  0.45594000000E+02  0.51100000000E-03 0.  1.
    9900012    2    1    2    0    0  0.38699722352E+02 -0.10909165477E+02  0.16338456273E+02  0.47787267807E+02  0.19999985238E+02 0.  0.
        -12    1    1    2    0    0 -0.38699722352E+02  0.10909165477E+02 -0.16338456273E+02  0.43400732193E+02  0.00000000000E+00 0.  1.
         11    1    3    3    0    0  0.82292197247E+01 -0.74200844540E+01  0.82320532662E+01  0.13803782519E+02  0.51100000000E-03 0. -1.
        -11    1    3    3    0    0  0.88378205476E+01  0.44955253908E+01  0.30797944351E+01  0.10382772009E+02  0.51100000000E-03 0.  1.
        -12    1    3    3    0    0  0.21632682080E+02 -0.79846064142E+01  0.50266085716E+01  0.23600713279E+02  0.00000000000E+00 0.  1.
</event>
<event>
 7    1  0.2714068E-010  0.4778727E+02  0.7816164E-02  0.1312668E+00
        -11   -1    0    0    0    0  0.00000000000E+00  0.00000000000E+00  0.45593999997E+02  0.45594000000E+02  0.51100000000E-03 0. -1.
         11   -1    0    0    0    0 -0.00000000000E+00 -0.00000000000E+00 -0.45593999997E+02  0.45594000000E+02  0.51100000000E-03 0.  1.
    9900012    2    1    2    0    0  0.11312747163E+02  0.10249268168E+02  0.40627547875E+02  0.47787269675E+02  0.19999993758E+02 0.  0.
        -12    1    1    2    0    0 -0.11312747163E+02 -0.10249268168E+02 -0.40627547875E+02  0.43400730325E+02  0.00000000000E+00 0.  1.
         11    1    3    3    0    0  0.64731376208E+01  0.11154730074E+02  0.38464470090E+02  0.40569014941E+02  0.51100000000E-03 0. -1.
        -11    1    3    3    0    0  0.20860641045E+00 -0.96980829128E+00 -0.11537831924E+01  0.15215980654E+01  0.51100000000E-03 0.  1.
         12    1    3    3    0    0  0.46310031316E+01  0.64346384686E-01  0.33168609778E+01  0.56966566693E+01  0.00000000000E+00 0. -1.
</event>
<event>
 7    1  0.2714068E-010  0.4778727E+02  0.7816164E-02  0.1312668E+00
        -11   -1    0    0    0    0  0.00000000000E+00  0.00000000000E+00  0.45593999997E+02  0.45594000000E+02  0.51100000000E-03 0.  1.
         11   -1    0    0    0    0 -0.00000000000E+00 -0.00000000000E+00 -0.45593999997E+02  0.45594000000E+02  0.51100000000E-03 0. -1.
    9900012    2    1    2    0    0 -0.48066105262E+01 -0.30690716391E+02 -0.30308408962E+02  0.47787271537E+02  0.20000002246E+02 0.  0.
        -12    1    1    2    0    0  0.48066105262E+01  0.30690716391E+02  0.30308408962E+02  0.43400728463E+02  0.00000000000E+00 0.  1.
         11    1    3    3    0    0 -0.68504804106E+01 -0.17022798684E+02 -0.23053918128E+02  0.29465028393E+02  0.51100000000E-03 0. -1.
        -11    1    3    3    0    0  0.44479089105E+01 -0.12832386792E+02 -0.39361563719E+01  0.14140274810E+02  0.51100000000E-03 0.  1.
        -12    1    3    3    0    0 -0.24040390261E+01 -0.83553091520E+00 -0.33183344618E+01  0.41819683344E+01  0.00000000000E+00 0.  1.
</event>
<event>
 7    1  0.2714068E-010  0.4778729E+02  0.7816164E-02  0.1312668E+00
        -11   -1    0    0    0    0  0.00000000000E+00  0.00000000000E+00  0.45593999997E+02  0.45594000000E+02  0.51100000000E-03 0.  1.
         11   -1    0    0    0    0 -0.00000000000E+00 -0.00000000000E+00 -0.45593999997E+02  0.45594000000E+02  0.51100000000E-03 0. -1.
    9900012    2    1    2    0    0  0.25936130051E+02  0.33780515410E+02 -0.83555660379E+01  0.47787290936E+02  0.20000090695E+02 0.  0.
        -12    1    1    2    0    0 -0.25936130051E+02 -0.33780515410E+02  0.83555660379E+01  0.43400709064E+02  0.00000000000E+00 0.  1.
         11    1    3    3    0    0  0.20735471931E+02  0.24590077985E+02 -0.96489907911E+01  0.33581762239E+02  0.51100000000E-03 0. -1.
        -11    1    3    3    0    0  0.36477410498E+01  0.29921177683E+01  0.49542230015E+01  0.68412798010E+01  0.51100000000E-03 0.  1.
        -12    1    3    3    0    0  0.15529170699E+01  0.61983196566E+01 -0.36607982483E+01  0.73642488963E+01  0.00000000000E+00 0.  1.
</event>
<event>
 7    1  0.2714068E-010  0.4778727E+02  0.7816164E-02  0.1312668E+00
        -11   -1    0    0    0    0  0.00000000000E+00  0.00000000000E+00  0.45593999997E+02  0.45594000000E+02  0.51100000000E-03 0.  1.
         11   -1    0    0    0    0 -0.00000000000E+00 -0.00000000000E+00 -0.45593999997E+02  0.45594000000E+02  0.51100000000E-03 0. -1.
    9900012    2    1    2    0    0  0.30487577811E+02 -0.21918618294E+02 -0.21764767865E+02  0.47787270180E+02  0.19999996059E+02 0.  0.
        -12    1    1    2    0    0 -0.30487577811E+02  0.21918618294E+02  0.21764767865E+02  0.43400729820E+02  0.00000000000E+00 0.  1.
         11    1    3    3    0    0  0.11664913197E+01 -0.42250759947E+01 -0.93923377252E+01  0.10364746855E+02  0.51100000000E-03 0. -1.
        -11    1    3    3    0    0  0.67212781710E+01 -0.31159235669E+01  0.84521168567E+00  0.74564698740E+01  0.51100000000E-03 0.  1.
         12    1    3    3    0    0  0.22599808320E+02 -0.14577618732E+02 -0.13217641825E+02  0.29966053451E+02  0.00000000000E+00 0. -1.
</event>
<event>
 7    1  0.2714068E-010  0.4778727E+02  0.7816164E-02  0.1312668E+00
        -11   -1    0    0    0    0  0.00000000000E+00  0.00000000000E+00  0.45593999997E+02  0.45594000000E+02  0.51100000000E-03 0. -1.
         11   -1    0    0    0    0 -0.00000000000E+00 -0.00000000000E+00 -0.45593999997E+02  0.45594000000E+02  0.51100000000E-03 0.  1.
    9900012    2    1    2    0    0 -0.31265854971E+02  0.23112024839E+02 -0.19284822636E+02  0.47787265406E+02  0.19999974291E+02 0.  0.
        -12    1    1    2    0    0  0.31265854971E+02 -0.23112024839E+02  0.19284822636E+02  0.43400734594E+02  0.00000000000E+00 0.  1.
         11    1    3    3    0    0 -0.29528941166E+02  0.19928283221E+02 -0.21610511357E+02  0.41666641812E+02  0.51100000000E-03 0. -1.
        -11    1    3    3    0    0 -0.25774401245E+01  0.24512053446E+01  0.31363017175E+01  0.47421507737E+01  0.51100000000E-03 0.  1.
         12    1    3    3    0    0  0.84052631933E+00  0.73253627336E+00 -0.81061299643E+00  0.13784728199E+01  0.00000000000E+00 0. -1.
</event>
<event>
 7    1  0.2714068E-010  0.4778727E+02  0.7816164E-02  0.1312668E+00
        -11   -1    0    0    0    0  0.00000000000E+00  0.00000000000E+00  0.45593999997E+02  0.45594000000E+02  0.51100000000E-03 0. -1.
         11   -1    0    0    0    0 -0.00000000000E+00 -0.00000000000E+00 -0.45593999997E+02  0.45594000000E+02  0.51100000000E-03 0.  1.
    9900012    2    1    2    0    0 -0.88749193745E+01  0.35085691983E+01  0.42338504394E+02  0.47787271826E+02  0.20000003562E+02 0.  0.
        -12    1    1    2    0    0  0.88749193745E+01 -0.35085691983E+01 -0.42338504394E+02  0.43400728174E+02  0.00000000000E+00 0.  1.
         11    1    3    3    0    0 -0.10215933272E+01  0.29108133436E+01  0.57453810217E+00  0.31379263119E+01  0.51100000000E-03 0.  1.
        -11    1    3    3    0    0 -0.68987470624E+00 -0.29044666436E+01  0.31552811832E+02  0.31693718437E+02  0.51100000000E-03 0. -1.
        -12    1    3    3    0    0 -0.71634513411E+01  0.35022224983E+01  0.10211154460E+02  0.12955627076E+02  0.00000000000E+00 0.  1.
</event>
<event>
 7    1  0.2714068E-010  0.4778727E+02  0.7816164E-02  0.1312668E+00
        -11   -1    0    0    0    0  0.00000000000E+00  0.00000000000E+00  0.45593999997E+02  0.45594000000E+02  0.51100000000E-03 0.  1.
         11   -1    0    0    0    0 -0.00000000000E+00 -0.00000000000E+00 -0.45593999997E+02  0.45594000000E+02  0.51100000000E-03 0. -1.
    9900012    2    1    2    0    0 -0.36022336046E+02  0.16497376688E+02 -0.17715854488E+02  0.47787266918E+02  0.19999981188E+02 0.  0.
        -12    1    1    2    0    0  0.36022336046E+02 -0.16497376688E+02  0.17715854488E+02  0.43400733082E+02  0.00000000000E+00 0.  1.
         11    1    3    3    0    0 -0.26757093481E+01  0.92695717107E+01 -0.17151707489E+01  0.97992954427E+01  0.51100000000E-03 0. -1.
        -11    1    3    3    0    0 -0.31511953871E+02  0.74497505780E+01 -0.16048292019E+02  0.36139309587E+02  0.51100000000E-03 0.  1.
         12    1    3    3    0    0 -0.18346728264E+01 -0.22194560066E+00  0.47608280097E-01  0.18486618885E+01  0.00000000000E+00 0. -1.
</event>
<event>
 7    1  0.2714068E-010  0.4778729E+02  0.7816164E-02  0.1312668E+00
        -11   -1    0    0    0    0  0.00000000000E+00  0.00000000000E+00  0.45593999997E+02  0.45594000000E+02  0.51100000000E-03 0.  1.
         11   -1    0    0    0    0 -0.00000000000E+00 -0.00000000000E+00 -0.45593999997E+02  0.45594000000E+02  0.51100000000E-03 0. -1.
    9900012    2    1    2    0    0  0.35550606463E+02  0.20935630817E+02 -0.13471271898E+02  0.47787292354E+02  0.20000097161E+02 0.  0.
        -12    1    1    2    0    0 -0.35550606463E+02 -0.20935630817E+02  0.13471271898E+02  0.43400707646E+02  0.00000000000E+00 0.  1.
         11    1    3    3    0    0  0.97425066490E+01  0.56128524611E+01 -0.10352331349E+02  0.15283694357E+02  0.51100000000E-03 0. -1.
        -11    1    3    3    0    0  0.24081947215E+02  0.89017893035E+01 -0.30426114600E+01  0.25854197323E+02  0.51100000000E-03 0.  1.
        -12    1    3    3    0    0  0.17261525989E+01  0.64209890521E+01 -0.76329089022E-01  0.66494006746E+01  0.00000000000E+00 0.  1.
</event>
<event>
 7    1  0.2714068E-010  0.4778727E+02  0.7816164E-02  0.1312668E+00
        -11   -1    0    0    0    0  0.00000000000E+00  0.00000000000E+00  0.45593999997E+02  0.45594000000E+02  0.51100000000E-03 0. -1.
         11   -1    0    0    0    0 -0.00000000000E+00 -0.00000000000E+00 -0.45593999997E+02  0.45594000000E+02  0.51100000000E-03 0.  1.
    9900012    2    1    2    0    0 -0.24114218075E+02 -0.33340306212E+02  0.13804047727E+02  0.47787271143E+02  0.20000000450E+02 0.  0.
        -12    1    1    2    0    0  0.24114218075E+02  0.33340306212E+02 -0.13804047727E+02  0.43400728857E+02  0.00000000000E+00 0.  1.
         11    1    3    3    0    0 -0.18803164283E+02 -0.23295991681E+02  0.16172389751E+02  0.34026583813E+02  0.51100000000E-03 0. -1.
        -11    1    3    3    0    0 -0.52464497518E+01 -0.86823938894E+01 -0.46054046509E+01  0.11140868499E+02  0.51100000000E-03 0.  1.
        -12    1    3    3    0    0 -0.64604040538E-01 -0.13619206417E+01  0.22370626263E+01  0.26198188316E+01  0.00000000000E+00 0.  1.
</event>
<event>
 7    1  0.2714068E-010  0.4778725E+02  0.7816164E-02  0.1312668E+00
        -11   -1    0    0    0    0  0.00000000000E+00  0.00000000000E+00  0.45593999997E+02  0.45594000000E+02  0.51100000000E-03 0.  1.
         11   -1    0    0    0    0 -0.00000000000E+00 -0.00000000000E+00 -0.45593999997E+02  0.45594000000E+02  0.51100000000E-03 0. -1.
    9900012    2    1    2    0    0 -0.14103503166E+02 -0.40733435924E+02  0.50500817612E+01  0.47787251971E+02  0.19999913035E+02 0.  0.
        -12    1    1    2    0    0  0.14103503166E+02  0.40733435924E+02 -0.50500817612E+01  0.43400748029E+02  0.00000000000E+00 0.  1.
         11    1    3    3    0    0 -0.32782782674E+01 -0.18130724074E+02 -0.17944052377E+01  0.18511892239E+02  0.51100000000E-03 0. -1.
        -11    1    3    3    0    0  0.18581170044E+01 -0.47187622066E+01  0.52392918498E+01  0.72917415555E+01  0.51100000000E-03 0.  1.
        -12    1    3    3    0    0 -0.12683341903E+02 -0.17883949643E+02  0.16051951491E+01  0.21983618176E+02  0.00000000000E+00 0.  1.
</event>
<event>
 7    1  0.2714068E-010  0.4778727E+02  0.7816164E-02  0.1312668E+00
        -11   -1    0    0    0    0  0.00000000000E+00  0.00000000000E+00  0.45593999997E+02  0.45594000000E+02  0.51100000000E-03 0. -1.
         11   -1    0    0    0    0 -0.00000000000E+00 -0.00000000000E+00 -0.45593999997E+02  0.45594000000E+02  0.51100000000E-03 0.  1.
    9900012    2    1    2    0    0  0.33828217551E+02  0.26348382540E+02 -0.67110236096E+01  0.47787269556E+02  0.19999993213E+02 0.  0.
        -12    1    1    2    0    0 -0.33828217551E+02 -0.26348382540E+02  0.67110236096E+01  0.43400730444E+02  0.00000000000E+00 0.  1.
         11    1    3    3    0    0  0.97036919581E+01  0.18176324578E+02 -0.41048958573E+01  0.21009297538E+02  0.51100000000E-03 0. -1.
        -11    1    3    3    0    0  0.17969011585E+02  0.76125707293E+01 -0.50070693238E+01  0.20147142575E+02  0.51100000000E-03 0.  1.
         12    1    3    3    0    0  0.61555140083E+01  0.55948723253E+00  0.24009415715E+01  0.66308294428E+01  0.00000000000E+00 0. -1.
</event>
<event>
 7    1  0.2714068E-010  0.4778727E+02  0.7816164E-02  0.1312668E+00
        -11   -1    0    0    0    0  0.00000000000E+00  0.00000000000E+00  0.45593999997E+02  0.45594000000E+02  0.51100000000E-03 0.  1.
         11   -1    0    0    0    0 -0.00000000000E+00 -0.00000000000E+00 -0.45593999997E+02  0.45594000000E+02  0.51100000000E-03 0. -1.
    9900012    2    1    2    0    0  0.59345178585E+01  0.39005444586E+02 -0.18082593194E+02  0.47787269751E+02  0.19999994103E+02 0.  0.
        -12    1    1    2    0    0 -0.59345178585E+01 -0.39005444586E+02  0.18082593194E+02  0.43400730249E+02  0.00000000000E+00 0.  1.
         11    1    3    3    0    0  0.24511852334E+01 -0.30379727854E+00 -0.45769354581E+01  0.52008595716E+01  0.51100000000E-03 0.  1.
        -11    1    3    3    0    0 -0.70373970129E+00  0.21769704806E+02 -0.38069834322E+01  0.22111273595E+02  0.51100000000E-03 0. -1.
        -12    1    3    3    0    0  0.41870723264E+01  0.17539537058E+02 -0.96986743033E+01  0.20475136584E+02  0.00000000000E+00 0.  1.
</event>
<event>
 7    1  0.2714068E-010  0.4778728E+02  0.7816164E-02  0.1312668E+00
        -11   -1    0    0    0    0  0.00000000000E+00  0.00000000000E+00  0.45593999997E+02  0.45594000000E+02  0.51100000000E-03 0. -1.
         11   -1    0    0    0    0 -0.00000000000E+00 -0.00000000000E+00 -0.45593999997E+02  0.45594000000E+02  0.51100000000E-03 0.  1.
    9900012    2    1    2    0    0 -0.43006805769E+02  0.57891057804E+01  0.72346514401E+00  0.47787280075E+02  0.20000041176E+02 0.  0.
        -12    1    1    2    0    0  0.43006805769E+02 -0.57891057804E+01 -0.72346514401E+00  0.43400719925E+02  0.00000000000E+00 0.  1.
         11    1    3    3    0    0 -0.20735892731E+02  0.10751484442E+02  0.76633104627E+00  0.23370043402E+02  0.51100000000E-03 0. -1.
        -11    1    3    3    0    0 -0.20136162824E+02 -0.25886722330E+01  0.23361676795E+01  0.20435849797E+02  0.51100000000E-03 0.  1.
        -12    1    3    3    0    0 -0.21347502134E+01 -0.23737064287E+01 -0.23790335818E+01  0.39813868773E+01  0.00000000000E+00 0.  1.
</event>
<event>
 7    1  0.2714068E-010  0.4778727E+02  0.7816164E-02  0.1312668E+00
        -11   -1    0    0    0    0  0.00000000000E+00  0.00000000000E+00  0.45593999997E+02  0.45594000000E+02  0.51100000000E-03 0.  1.
         11   -1    0    0    0    0 -0.00000000000E+00 -0.00000000000E+00 -0.45593999997E+02  0.45594000000E+02  0.51100000000E-03 0. -1.
    9900012    2    1    2    0    0  0.22827441834E+01 -0.11220064525E+02 -0.41863140998E+02  0.47787270246E+02  0.19999996359E+02 0.  0.
        -12    1    1    2    0    0 -0.22827441834E+01  0.11220064525E+02  0.41863140998E+02  0.43400729754E+02  0.00000000000E+00 0.  1.
         11    1    3    3    0    0  0.67069867791E+01 -0.74763662767E+01 -0.18709662311E+02  0.21235140414E+02  0.51100000000E-03 0.  1.
        -11    1    3    3    0    0 -0.58170478003E+01 -0.71389151242E+01 -0.18085230450E+02  0.20294770631E+02  0.51100000000E-03 0. -1.
         12    1    3    3    0    0  0.13928052046E+01  0.33952168763E+01 -0.50682482375E+01  0.62573592011E+01  0.00000000000E+00 0. -1.
</event>
<event>
 7    1  0.2714068E-010  0.4778727E+02  0.7816164E-02  0.1312668E+00
        -11   -1    0    0    0    0  0.00000000000E+00  0.00000000000E+00  0.45593999997E+02  0.45594000000E+02  0.51100000000E-03 0.  1.
         11   -1    0    0    0    0 -0.00000000000E+00 -0.00000000000E+00 -0.45593999997E+02  0.45594000000E+02  0.51100000000E-03 0. -1.
    9900012    2    1    2    0    0  0.77416409244E-01  0.30135618235E+02 -0.31232384184E+02  0.47787270726E+02  0.19999998550E+02 0.  0.
        -12    1    1    2    0    0 -0.77416409244E-01 -0.30135618235E+02  0.31232384184E+02  0.43400729274E+02  0.00000000000E+00 0.  1.
         11    1    3    3    0    0  0.27790326025E+01  0.12595724166E+02 -0.99701760120E+01  0.16302751284E+02  0.51100000000E-03 0. -1.
        -11    1    3    3    0    0  0.45386775751E+01  0.10753300414E+02 -0.17144442160E+02  0.20740418539E+02  0.51100000000E-03 0.  1.
        -12    1    3    3    0    0 -0.72402937684E+01  0.67865936555E+01 -0.41177660115E+01  0.10744100903E+02  0.00000000000E+00 0.  1.
</event>
<event>
 7    1  0.2714068E-010  0.4778730E+02  0.7816164E-02  0.1312668E+00
        -11   -1    0    0    0    0  0.00000000000E+00  0.00000000000E+00  0.45593999997E+02  0.45594000000E+02  0.51100000000E-03 0.  1.
         11   -1    0    0    0    0 -0.00000000000E+00 -0.00000000000E+00 -0.45593999997E+02  0.45594000000E+02  0.51100000000E-03 0. -1.
    9900012    2    1    2    0    0 -0.31699044970E+01 -0.37981899516E+02 -0.20759290609E+02  0.47787295720E+02  0.20000112508E+02 0.  0.
        -12    1    1    2    0    0  0.31699044970E+01  0.37981899516E+02  0.20759290609E+02  0.43400704280E+02  0.00000000000E+00 0.  1.
         11    1    3    3    0    0  0.22893672120E+01 -0.17649520323E+00 -0.39789233149E+01  0.45939290150E+01  0.51100000000E-03 0. -1.
        -11    1    3    3    0    0 -0.52773661687E+01 -0.29937552763E+02 -0.80654893435E+01  0.31450910603E+02  0.51100000000E-03 0.  1.
         12    1    3    3    0    0 -0.18190554035E+00 -0.78678515498E+01 -0.87148779504E+01  0.11742456103E+02  0.00000000000E+00 0. -1.
</event>
<event>
 7    1  0.2714068E-010  0.4778727E+02  0.7816164E-02  0.1312668E+00
        -11   -1    0    0    0    0  0.00000000000E+00  0.00000000000E+00  0.45593999997E+02  0.45594000000E+02  0.51100000000E-03 0.  1.
         11   -1    0    0    0    0 -0.00000000000E+00 -0.00000000000E+00 -0.45593999997E+02  0.45594000000E+02  0.51100000000E-03 0. -1.
    9900012    2    1    2    0    0 -0.20581818309E+02  0.93642420129E+01 -0.37044875317E+02  0.47787273501E+02  0.20000011202E+02 0.  0.
        -12    1    1    2    0    0  0.20581818309E+02 -0.93642420129E+01  0.37044875317E+02  0.43400726499E+02  0.00000000000E+00 0.  1.
         11    1    3    3    0    0 -0.23587706343E+01  0.32499141098E+00 -0.18110478860E+02  0.18266331408E+02  0.51100000000E-03 0. -1.
        -11    1    3    3    0    0 -0.28965209283E+01  0.16470083676E+01 -0.94935514701E+01  0.10061311536E+02  0.51100000000E-03 0.  1.
         12    1    3    3    0    0 -0.15326526746E+02  0.73922422343E+01 -0.94408449869E+01  0.19459630557E+02  0.00000000000E+00 0. -1.
</event>
<event>
 7    1  0.2714068E-010  0.4778727E+02  0.7816164E-02  0.1312668E+00
        -11   -1    0    0    0    0  0.00000000000E+00  0.00000000000E+00  0.45593999997E+02  0.45594000000E+02  0.51100000000E-03 0.  1.
         11   -1    0    0    0    0 -0.00000000000E+00 -0.00000000000E+00 -0.45593999997E+02  0.45594000000E+02  0.51100000000E-03 0. -1.
    9900012    2    1    2    0    0  0.54443290323E+01 -0.38382230932E+02 -0.19513759364E+02  0.47787272190E+02  0.20000005222E+02 0.  0.
        -12    1    1    2    0    0 -0.54443290323E+01  0.38382230932E+02  0.19513759364E+02  0.43400727810E+02  0.00000000000E+00 0.  1.
         11    1    3    3    0    0  0.72693311092E+01 -0.25092510658E+02 -0.20433038299E+02  0.33166041673E+02  0.51100000000E-03 0. -1.
        -11    1    3    3    0    0 -0.14687073773E+01 -0.12605334413E+02  0.24334439860E+01  0.12921811286E+02  0.51100000000E-03 0.  1.
         12    1    3    3    0    0 -0.35629469949E+00 -0.68438586175E+00 -0.15141650505E+01  0.16994192304E+01  0.00000000000E+00 0. -1.
</event>
<event>
 7    1  0.2714068E-010  0.4778727E+02  0.7816164E-02  0.1312668E+00
        -11   -1    0    0    0    0  0.00000000000E+00  0.00000000000E+00  0.45593999997E+02  0.45594000000E+02  0.51100000000E-03 0. -1.
         11   -1    0    0    0    0 -0.00000000000E+00 -0.00000000000E+00 -0.45593999997E+02  0.45594000000E+02  0.51100000000E-03 0.  1.
    9900012    2    1    2    0    0  0.41232464938E+02  0.97972360538E+01 -0.93552742797E+01  0.47787272402E+02  0.20000006192E+02 0.  0.
        -12    1    1    2    0    0 -0.41232464938E+02 -0.97972360538E+01  0.93552742797E+01  0.43400727598E+02  0.00000000000E+00 0.  1.
         11    1    3    3    0    0  0.19554180497E+02  0.12288514574E+02 -0.45076741447E+01  0.23530675550E+02  0.51100000000E-03 0. -1.
        -11    1    3    3    0    0  0.34538433715E+01 -0.82031425204E-01 -0.47497692024E+01  0.58733355878E+01  0.51100000000E-03 0.  1.
         12    1    3    3    0    0  0.18224441069E+02 -0.24092470954E+01 -0.97830932570E-01  0.18383261265E+02  0.00000000000E+00 0. -1.
</event>
<event>
 7    1  0.2714068E-010  0.4778729E+02  0.7816164E-02  0.1312668E+00
        -11   -1    0    0    0    0  0.00000000000E+00  0.00000000000E+00  0.45593999997E+02  0.45594000000E+02  0.51100000000E-03 0.  1.
         11   -1    0    0    0    0 -0.00000000000E+00 -0.00000000000E+00 -0.45593999997E+02  0.45594000000E+02  0.51100000000E-03 0. -1.
    9900012    2    1    2    0    0 -0.34427322409E+02  0.60936959512E+01 -0.25714738044E+02  0.47787292502E+02  0.20000097834E+02 0.  0.
        -12    1    1    2    0    0  0.34427322409E+02 -0.60936959512E+01  0.25714738044E+02  0.43400707498E+02  0.00000000000E+00 0.  1.
         11    1    3    3    0    0 -0.18727605240E+02  0.54945321767E+01 -0.16465294842E+02  0.25534663036E+02  0.51100000000E-03 0. -1.
        -11    1    3    3    0    0  0.17193105940E+01  0.12623381126E+01 -0.31105342322E+01  0.37715977914E+01  0.51100000000E-03 0.  1.
        -12    1    3    3    0    0 -0.17419027764E+02 -0.66317433809E+00 -0.61389089701E+01  0.18481031675E+02  0.00000000000E+00 0.  1.
</event>
<event>
 7    1  0.2714068E-010  0.4778727E+02  0.7816164E-02  0.1312668E+00
        -11   -1    0    0    0    0  0.00000000000E+00  0.00000000000E+00  0.45593999997E+02  0.45594000000E+02  0.51100000000E-03 0. -1.
         11   -1    0    0    0    0 -0.00000000000E+00 -0.00000000000E+00 -0.45593999997E+02  0.45594000000E+02  0.51100000000E-03 0.  1.
    9900012    2    1    2    0    0 -0.13282657050E+02 -0.40353523059E+02 -0.88762323764E+01  0.47787270712E+02  0.19999998483E+02 0.  0.
        -12    1    1    2    0    0  0.13282657050E+02  0.40353523059E+02  0.88762323764E+01  0.43400729288E+02  0.00000000000E+00 0.  1.
         11    1    3    3    0    0  0.36805800770E+01 -0.11128585871E+02 -0.38309776895E+01  0.12331605066E+02  0.51100000000E-03 0. -1.
        -11    1    3    3    0    0 -0.11594521797E+02 -0.11958226472E+02  0.97055557892E-01  0.16656576362E+02  0.51100000000E-03 0.  1.
         12    1    3    3    0    0 -0.53687153299E+01 -0.17266710716E+02 -0.51423102448E+01  0.18799089284E+02  0.00000000000E+00 0. -1.
</event>
<event>
 7    1  0.2714068E-010  0.4778727E+02  0.7816164E-02  0.1312668E+00
        -11   -1    0    0    0    0  0.00000000000E+00  0.00000000000E+00  0.45593999997E+02  0.45594000000E+02  0.51100000000E-03 0.  1.
         11   -1    0    0    0    0 -0.00000000000E+00 -0.00000000000E+00 -0.45593999997E+02  0.45594000000E+02  0.51100000000E-03 0. -1.
    9900012    2    1    2    0    0  0.39695314727E+02 -0.42983974989E+01 -0.17012613866E+02  0.47787271171E+02  0.20000000576E+02 0.  0.
        -12    1    1    2    0    0 -0.39695314727E+02  0.42983974989E+01  0.17012613866E+02  0.43400728829E+02  0.00000000000E+00 0.  1.
         11    1    3    3    0    0  0.17117162598E+02 -0.39298439724E+00 -0.17933469114E+01  0.17215335766E+02  0.51100000000E-03 0. -1.
        -11    1    3    3    0    0 -0.12121819438E+01 -0.29321421644E+00 -0.36792251351E+01  0.38848497394E+01  0.51100000000E-03 0.  1.
        -12    1    3    3    0    0  0.23790334073E+02 -0.36121988852E+01 -0.11540041819E+02  0.26687085665E+02  0.00000000000E+00 0.  1.
</event>
<event>
 7    1  0.2714068E-010  0.4778727E+02  0.7816164E-02  0.1312668E+00
        -11   -1    0    0    0    0  0.00000000000E+00  0.00000000000E+00  0.45593999997E+02  0.45594000000E+02  0.51100000000E-03 0. -1.
         11   -1    0    0    0    0 -0.00000000000E+00 -0.00000000000E+00 -0.45593999997E+02  0.45594000000E+02  0.51100000000E-03 0.  1.
    9900012    2    1    2    0    0 -0.34904705323E+02 -0.24635221571E+02 -0.76413853322E+01  0.47787269991E+02  0.19999995195E+02 0.  0.
        -12    1    1    2    0    0  0.34904705323E+02  0.24635221571E+02  0.76413853322E+01  0.43400730009E+02  0.00000000000E+00 0.  1.
         11    1    3    3    0    0 -0.35157816094E+01 -0.10303244139E+02 -0.73755251362E+01  0.13149750242E+02  0.51100000000E-03 0. -1.
        -11    1    3    3    0    0 -0.19358169040E+02 -0.75800695736E+01  0.76269801112E+00  0.20803313963E+02  0.51100000000E-03 0.  1.
         12    1    3    3    0    0 -0.12030754674E+02 -0.67519078576E+01 -0.10285582071E+01  0.13834205786E+02  0.00000000000E+00 0. -1.
</event>
<event>
 7    1  0.2714068E-010  0.4778727E+02  0.7816164E-02  0.1312668E+00
        -11   -1    0    0    0    0  0.00000000000E+00  0.00000000000E+00  0.45593999997E+02  0.45594000000E+02  0.51100000000E-03 0.  1.
         11   -1    0    0    0    0 -0.00000000000E+00 -0.00000000000E+00 -0.45593999997E+02  0.45594000000E+02  0.51100000000E-03 0. -1.
    9900012    2    1    2    0    0  0.18831356473E+02  0.33902699319E+02 -0.19483595516E+02  0.47787268417E+02  0.19999988019E+02 0.  0.
        -12    1    1    2    0    0 -0.18831356473E+02 -0.33902699319E+02  0.19483595516E+02  0.43400731583E+02  0.00000000000E+00 0.  1.
         11    1    3    3    0    0  0.55510635421E+01  0.97659714918E+01 -0.35396132736E+01  0.11777833757E+02  0.51100000000E-03 0. -1.
        -11    1    3    3    0    0  0.16282656174E+02  0.14997646270E+02 -0.14008078546E+02  0.26196956895E+02  0.51100000000E-03 0.  1.
        -12    1    3    3    0    0 -0.30023632437E+01  0.91390815569E+01 -0.19359036964E+01  0.98124777642E+01  0.00000000000E+00 0.  1.
</event>
<event>
 7    1  0.2714068E-010  0.4778727E+02  0.7816164E-02  0.1312668E+00
        -11   -1    0    0    0    0  0.00000000000E+00  0.00000000000E+00  0.45593999997E+02  0.45594000000E+02  0.51100000000E-03 0. -1.
         11   -1    0    0    0    0 -0.00000000000E+00 -0.00000000000E+00 -0.45593999997E+02  0.45594000000E+02  0.51100000000E-03 0.  1.
    9900012    2    1    2    0    0  0.92512289289E+01  0.32497690306E+02  0.27238539293E+02  0.47787272648E+02  0.20000007310E+02 0.  0.
        -12    1    1    2    0    0 -0.92512289289E+01 -0.32497690306E+02 -0.27238539293E+02  0.43400727352E+02  0.00000000000E+00 0.  1.
         11    1    3    3    0    0  0.38730810108E+00  0.19027145151E+02  0.66652961395E+01  0.20164534040E+02  0.51100000000E-03 0. -1.
        -11    1    3    3    0    0  0.24884915132E+01  0.17275974895E+01 -0.72515718750E-01  0.30302544262E+01  0.51100000000E-03 0.  1.
         12    1    3    3    0    0  0.63754293146E+01  0.11742947665E+02  0.20645758872E+02  0.24592484182E+02  0.00000000000E+00 0. -1.
</event>
<event>
 7    1  0.2714068E-010  0.4778727E+02  0.7816164E-02  0.1312668E+00
        -11   -1    0    0    0    0  0.00000000000E+00  0.00000000000E+00  0.45593999997E+02  0.45594000000E+02  0.51100000000E-03 0.  1.
         11   -1    0    0    0    0 -0.00000000000E+00 -0.00000000000E+00 -0.45593999997E+02  0.45594000000E+02  0.51100000000E-03 0. -1.
    9900012    2    1    2    0    0  0.31968663413E+02 -0.23894411212E+02 -0.17049498249E+02  0.47787265927E+02  0.19999976665E+02 0.  0.
        -12    1    1    2    0    0 -0.31968663413E+02  0.23894411212E+02  0.17049498249E+02  0.43400734073E+02  0.00000000000E+00 0.  1.
         11    1    3    3    0    0  0.22742640524E+02 -0.17427848178E+02 -0.13111615971E+02  0.31509872481E+02  0.51100000000E-03 0. -1.
        -11    1    3    3    0    0  0.34151334560E+01  0.23452076735E+01 -0.39470884532E+01  0.57221187573E+01  0.51100000000E-03 0.  1.
        -12    1    3    3    0    0  0.58108894331E+01 -0.88117707071E+01  0.92061747936E-02  0.10555274689E+02  0.00000000000E+00 0.  1.
</event>
<event>
 7    1  0.2714068E-010  0.4778728E+02  0.7816164E-02  0.1312668E+00
        -11   -1    0    0    0    0  0.00000000000E+00  0.00000000000E+00  0.45593999997E+02  0.45594000000E+02  0.51100000000E-03 0.  1.
         11   -1    0    0    0    0 -0.00000000000E+00 -0.00000000000E+00 -0.45593999997E+02  0.45594000000E+02  0.51100000000E-03 0. -1.
    9900012    2    1    2    0    0 -0.31364503240E+02 -0.24484401320E+02 -0.17332193105E+02  0.47787275475E+02  0.20000020198E+02 0.  0.
        -12    1    1    2    0    0  0.31364503240E+02  0.24484401320E+02  0.17332193105E+02  0.43400724525E+02  0.00000000000E+00 0.  1.
         11    1    3    3    0    0 -0.99261833217E+01 -0.59951097090E-01 -0.43808652126E+01  0.10850100909E+02  0.51100000000E-03 0. -1.
        -11    1    3    3    0    0 -0.12245374363E+02 -0.19142458418E+02 -0.40254577675E+01  0.23077851245E+02  0.51100000000E-03 0.  1.
        -12    1    3    3    0    0 -0.91929455554E+01 -0.52819918048E+01 -0.89258701250E+01  0.13859323320E+02  0.00000000000E+00 0.  1.
</event>
<event>
 7    1  0.2714068E-010  0.4778727E+02  0.7816164E-02  0.1312668E+00
        -11   -1    0    0    0    0  0.00000000000E+00  0.00000000000E+00  0.45593999997E+02  0.45594000000E+02  0.51100000000E-03 0. -1.
         11   -1    0    0    0    0 -0.00000000000E+00 -0.00000000000E+00 -0.45593999997E+02  0.45594000000E+02  0.51100000000E-03 0.  1.
    9900012    2    1    2    0    0  0.87935273225E+01  0.10417359562E+02  0.41204076305E+02  0.47787269509E+02  0.19999992999E+02 0.  0.
        -12    1    1    2    0    0 -0.87935273225E+01 -0.10417359562E+02 -0.41204076305E+02  0.43400730491E+02  0.00000000000E+00 0.  1.
         11    1    3    3    0    0  0.40460709451E+01  0.10811897331E+02  0.34605977336E+02  0.36480700126E+02  0.51100000000E-03 0. -1.
        -11    1    3    3    0    0  0.47251131539E+01 -0.22978138478E+01  0.94094971198E+00  0.53377925604E+01  0.51100000000E-03 0.  1.
        -12    1    3    3    0    0  0.22343223543E-01  0.19032760783E+01  0.56571492568E+01  0.59687768231E+01  0.00000000000E+00 0.  1.
</event>
<event>
 7    1  0.2714068E-010  0.4778727E+02  0.7816164E-02  0.1312668E+00
        -11   -1    0    0    0    0  0.00000000000E+00  0.00000000000E+00  0.45593999997E+02  0.45594000000E+02  0.51100000000E-03 0.  1.
         11   -1    0    0    0    0 -0.00000000000E+00 -0.00000000000E+00 -0.45593999997E+02  0.45594000000E+02  0.51100000000E-03 0. -1.
    9900012    2    1    2    0    0  0.38887943238E+02 -0.17658718744E+02  0.77149781650E+01  0.47787269994E+02  0.19999995212E+02 0.  0.
        -12    1    1    2    0    0 -0.38887943238E+02  0.17658718744E+02 -0.77149781650E+01  0.43400730006E+02  0.00000000000E+00 0.  1.
         11    1    3    3    0    0  0.13310111173E+02  0.13699746399E+01 -0.62830083223E+00  0.13395172719E+02  0.51100000000E-03 0. -1.
        -11    1    3    3    0    0  0.17017284563E+02 -0.13756527780E+02  0.93227830862E+00  0.21902035831E+02  0.51100000000E-03 0.  1.
        -12    1    3    3    0    0  0.85605475014E+01 -0.52721656040E+01  0.74110006886E+01  0.12490061444E+02  0.00000000000E+00 0.  1.
</event>
<event>
 7    1  0.2714068E-010  0.4778730E+02  0.7816164E-02  0.1312668E+00
        -11   -1    0    0    0    0  0.00000000000E+00  0.00000000000E+00  0.45593999997E+02  0.45594000000E+02  0.51100000000E-03 0. -1.
         11   -1    0    0    0    0 -0.00000000000E+00 -0.00000000000E+00 -0.45593999997E+02  0.45594000000E+02  0.51100000000E-03 0.  1.
    9900012    2    1    2    0    0  0.18842231210E+02 -0.27635610178E+02  0.27656170708E+02  0.47787304095E+02  0.20000150689E+02 0.  0.
        -12    1    1    2    0    0 -0.18842231210E+02  0.27635610178E+02 -0.27656170708E+02  0.43400695905E+02  0.00000000000E+00 0.  1.
         11    1    3    3    0    0  0.12342116442E+02 -0.11069800731E+02  0.17421393449E+02  0.24049392434E+02  0.51100000000E-03 0. -1.
        -11    1    3    3    0    0 -0.15684770476E+01 -0.94885630525E+01  0.11677134949E+01  0.96879566533E+01  0.51100000000E-03 0.  1.
         12    1    3    3    0    0  0.80685918151E+01 -0.70772463944E+01  0.90670637639E+01  0.14049955007E+02  0.00000000000E+00 0. -1.
</event>
<event>
 7    1  0.2714068E-010  0.4778727E+02  0.7816164E-02  0.1312668E+00
        -11   -1    0    0    0    0  0.00000000000E+00  0.00000000000E+00  0.45593999997E+02  0.45594000000E+02  0.51100000000E-03 0.  1.
         11   -1    0    0    0    0 -0.00000000000E+00 -0.00000000000E+00 -0.45593999997E+02  0.45594000000E+02  0.51100000000E-03 0. -1.
    9900012    2    1    2    0    0  0.15423672470E+02 -0.33220769359E+02 -0.23283337842E+02  0.47787274081E+02  0.20000013844E+02 0.  0.
        -12    1    1    2    0    0 -0.15423672470E+02  0.33220769359E+02  0.23283337842E+02  0.43400725919E+02  0.00000000000E+00 0.  1.
         11    1    3    3    0    0  0.11735254690E+02 -0.23831650367E+02 -0.21544831081E+02  0.34202975140E+02  0.51100000000E-03 0. -1.
        -11    1    3    3    0    0  0.34469591639E+01 -0.44456814658E-01 -0.24197407638E+01  0.42117276160E+01  0.51100000000E-03 0.  1.
         12    1    3    3    0    0  0.24145861600E+00 -0.93446621773E+01  0.68123400315E+00  0.93725713248E+01  0.00000000000E+00 0. -1.
</event>
<event>
 7    1  0.2714068E-010  0.4778727E+02  0.7816164E-02  0.1312668E+00
        -11   -1    0    0    0    0  0.00000000000E+00  0.00000000000E+00  0.45593999997E+02  0.45594000000E+02  0.51100000000E-03 0. -1.
         11   -1    0    0    0    0 -0.00000000000E+00 -0.00000000000E+00 -0.45593999997E+02  0.45594000000E+02  0.51100000000E-03 0.  1.
    9900012    2    1    2    0    0 -0.26515144123E+02 -0.17411580261E+02  0.29621062425E+02  0.47787270349E+02  0.19999996830E+02 0.  0.
        -12    1    1    2    0    0  0.26515144123E+02  0.17411580261E+02 -0.29621062425E+02  0.43400729651E+02  0.00000000000E+00 0.  1.
         11    1    3    3    0    0 -0.16827937789E+02 -0.13997381819E+02  0.22903832287E+02  0.31681094074E+02  0.51100000000E-03 0. -1.
        -11    1    3    3    0    0 -0.28961339861E+01  0.84832021874E+00 -0.24789676520E+01  0.39054474955E+01  0.51100000000E-03 0.  1.
        -12    1    3    3    0    0 -0.67910723475E+01 -0.42625186610E+01  0.91961977901E+01  0.12200728780E+02  0.00000000000E+00 0.  1.
</event>
<event>
 7    1  0.2714068E-010  0.4778727E+02  0.7816164E-02  0.1312668E+00
        -11   -1    0    0    0    0  0.00000000000E+00  0.00000000000E+00  0.45593999997E+02  0.45594000000E+02  0.51100000000E-03 0. -1.
         11   -1    0    0    0    0 -0.00000000000E+00 -0.00000000000E+00 -0.45593999997E+02  0.45594000000E+02  0.51100000000E-03 0.  1.
    9900012    2    1    2    0    0 -0.73525373647E+01  0.16178703223E+02  0.39595622852E+02  0.47787267371E+02  0.19999983253E+02 0.  0.
        -12    1    1    2    0    0  0.73525373647E+01 -0.16178703223E+02 -0.39595622852E+02  0.43400732629E+02  0.00000000000E+00 0.  1.
         11    1    3    3    0    0  0.34770487865E+00  0.63075679434E+01  0.29176492465E+02  0.29852537997E+02  0.51100000000E-03 0. -1.
        -11    1    3    3    0    0 -0.74632278224E+01  0.10398838115E+02  0.11168964361E+02  0.16987682856E+02  0.51100000000E-03 0.  1.
        -12    1    3    3    0    0 -0.23701442098E+00 -0.52770283544E+00 -0.74983397415E+00  0.94704651790E+00  0.00000000000E+00 0.  1.
</event>
<event>
 7    1  0.2714068E-010  0.4778727E+02  0.7816164E-02  0.1312668E+00
        -11   -1    0    0    0    0  0.00000000000E+00  0.00000000000E+00  0.45593999997E+02  0.45594000000E+02  0.51100000000E-03 0. -1.
         11   -1    0    0    0    0 -0.00000000000E+00 -0.00000000000E+00 -0.45593999997E+02  0.45594000000E+02  0.51100000000E-03 0.  1.
    9900012    2    1    2    0    0 -0.28713786259E+02  0.38635307177E+01  0.32314310490E+02  0.47787273584E+02  0.20000011579E+02 0.  0.
        -12    1    1    2    0    0  0.28713786259E+02 -0.38635307177E+01 -0.32314310490E+02  0.43400726416E+02  0.00000000000E+00 0.  1.
         11    1    3    3    0    0 -0.80139060070E+01 -0.11574915795E+01  0.17392012509E+02  0.19184487891E+02  0.51100000000E-03 0. -1.
        -11    1    3    3    0    0 -0.21595171937E+02  0.64107852624E+01  0.12788724524E+02  0.25903688808E+02  0.51100000000E-03 0.  1.
        -12    1    3    3    0    0  0.89529168423E+00 -0.13897629652E+01  0.21335734574E+01  0.26990968856E+01  0.00000000000E+00 0.  1.
</event>
<event>
 7    1  0.2714068E-010  0.4778726E+02  0.7816164E-02  0.1312668E+00
        -11   -1    0    0    0    0  0.00000000000E+00  0.00000000000E+00  0.45593999997E+02  0.45594000000E+02  0.51100000000E-03 0.  1.
         11   -1    0    0    0    0 -0.00000000000E+00 -0.00000000000E+00 -0.45593999997E+02  0.45594000000E+02  0.51100000000E-03 0. -1.
    9900012    2    1    2    0    0 -0.11528678403E+02 -0.19676278094E+02 -0.36926386790E+02  0.47787258224E+02  0.19999941546E+02 0.  0.
        -12    1    1    2    0    0  0.11528678403E+02  0.19676278094E+02  0.36926386790E+02  0.43400741776E+02  0.00000000000E+00 0.  1.
         11    1    3    3    0    0 -0.10492718056E+02 -0.14638012455E+02 -0.18654154662E+02  0.25929636080E+02  0.51100000000E-03 0. -1.
        -11    1    3    3    0    0 -0.40179051544E+01  0.88126458004E+00 -0.12176711778E+02  0.12852723411E+02  0.51100000000E-03 0.  1.
         12    1    3    3    0    0  0.29819448075E+01 -0.59195302192E+01 -0.60955203495E+01  0.90048987325E+01  0.00000000000E+00 0. -1.
</event>
<event>
 7    1  0.2714068E-010  0.4778727E+02  0.7816164E-02  0.1312668E+00
        -11   -1    0    0    0    0  0.00000000000E+00  0.00000000000E+00  0.45593999997E+02  0.45594000000E+02  0.51100000000E-03 0.  1.
         11   -1    0    0    0    0 -0.00000000000E+00 -0.00000000000E+00 -0.45593999997E+02  0.45594000000E+02  0.51100000000E-03 0. -1.
    9900012    2    1    2    0    0  0.29171536986E+02  0.47376297274E+01 -0.31783636936E+02  0.47787270945E+02  0.19999999548E+02 0.  0.
        -12    1    1    2    0    0 -0.29171536986E+02 -0.47376297274E+01  0.31783636936E+02  0.43400729055E+02  0.00000000000E+00 0.  1.
         11    1    3    3    0    0  0.16480606149E+01 -0.44049869640E+00 -0.11606382767E+01  0.20633042341E+01  0.51100000000E-03 0. -1.
        -11    1    3    3    0    0  0.32910111683E+01 -0.57933577215E+01 -0.27888381653E+01  0.72229749254E+01  0.51100000000E-03 0.  1.
        -12    1    3    3    0    0  0.24232465203E+02  0.10971486145E+02 -0.27834160494E+02  0.38500991786E+02  0.00000000000E+00 0.  1.
</event>
<event>
 7    1  0.2714068E-010  0.4778727E+02  0.7816164E-02  0.1312668E+00
        -11   -1    0    0    0    0  0.00000000000E+00  0.00000000000E+00  0.45593999997E+02  0.45594000000E+02  0.51100000000E-03 0.  1.
         11   -1    0    0    0    0 -0.00000000000E+00 -0.00000000000E+00 -0.45593999997E+02  0.45594000000E+02  0.51100000000E-03 0. -1.
    9900012    2    1    2    0    0  0.35686024546E+01  0.21111935570E+02 -0.37751480410E+02  0.47787273968E+02  0.20000013329E+02 0.  0.
        -12    1    1    2    0    0 -0.35686024546E+01 -0.21111935570E+02  0.37751480410E+02  0.43400726032E+02  0.00000000000E+00 0.  1.
         11    1    3    3    0    0  0.11519456444E+02  0.91111032107E+01 -0.18054653309E+02  0.23274032415E+02  0.51100000000E-03 0. -1.
        -11    1    3    3    0    0 -0.62678023395E+01  0.10905856605E+02 -0.17215876632E+02  0.21321572712E+02  0.51100000000E-03 0.  1.
         12    1    3    3    0    0 -0.16830516502E+01  0.10949757544E+01 -0.24809504691E+01  0.31916688409E+01  0.00000000000E+00 0. -1.
</event>
<event>
 7    1  0.2714068E-010  0.4778728E+02  0.7816164E-02  0.1312668E+00
        -11   -1    0    0    0    0  0.00000000000E+00  0.00000000000E+00  0.45593999997E+02  0.45594000000E+02  0.51100000000E-03 0. -1.
         11   -1    0    0    0    0 -0.00000000000E+00 -0.00000000000E+00 -0.45593999997E+02  0.45594000000E+02  0.51100000000E-03 0.  1.
    9900012    2    1    2    0    0 -0.30193585534E+02 -0.16159625175E+02 -0.26661512849E+02  0.47787281565E+02  0.20000047969E+02 0.  0.
        -12    1    1    2    0    0  0.30193585534E+02  0.16159625175E+02  0.26661512849E+02  0.43400718435E+02  0.00000000000E+00 0.  1.
         11    1    3    3    0    0 -0.10076010140E+02 -0.10648073902E+02 -0.86219145677E+01  0.17007200511E+02  0.51100000000E-03 0. -1.
        -11    1    3    3    0    0 -0.47984113670E+01 -0.78907445202E+01 -0.48808938837E+01  0.10445655848E+02  0.51100000000E-03 0.  1.
         12    1    3    3    0    0 -0.15319164028E+02  0.23791932472E+01 -0.13158704398E+02  0.20334425206E+02  0.00000000000E+00 0. -1.
</event>
<event>
 7    1  0.2714068E-010  0.4778727E+02  0.7816164E-02  0.1312668E+00
        -11   -1    0    0    0    0  0.00000000000E+00  0.00000000000E+00  0.45593999997E+02  0.45594000000E+02  0.51100000000E-03 0. -1.
         11   -1    0    0    0    0 -0.00000000000E+00 -0.00000000000E+00 -0.45593999997E+02  0.45594000000E+02  0.51100000000E-03 0.  1.
    9900012    2    1    2    0    0  0.21106360595E+02 -0.33940060800E+02  0.16917960258E+02  0.47787267702E+02  0.19999984761E+02 0.  0.
        -12    1    1    2    0    0 -0.21106360595E+02  0.33940060800E+02 -0.16917960258E+02  0.43400732298E+02  0.00000000000E+00 0.  1.
         11    1    3    3    0    0  0.57781978184E+01 -0.96377145042E+01  0.13328668839E+02  0.17433488583E+02  0.51100000000E-03 0. -1.
        -11    1    3    3    0    0  0.45310144498E+01 -0.10298173364E+02 -0.27265107670E+01  0.11576542135E+02  0.51100000000E-03 0.  1.
         12    1    3    3    0    0  0.10797148327E+02 -0.14004172932E+02  0.63158021864E+01  0.18777236984E+02  0.00000000000E+00 0. -1.
</event>
<event>
 7    1  0.2714068E-010  0.4778727E+02  0.7816164E-02  0.1312668E+00
        -11   -1    0    0    0    0  0.00000000000E+00  0.00000000000E+00  0.45593999997E+02  0.45594000000E+02  0.51100000000E-03 0.  1.
         11   -1    0    0    0    0 -0.00000000000E+00 -0.00000000000E+00 -0.45593999997E+02  0.45594000000E+02  0.51100000000E-03 0. -1.
    9900012    2    1    2    0    0 -0.11896209033E+02  0.34548268044E+02 -0.23420525398E+02  0.47787267009E+02  0.19999981601E+02 0.  0.
        -12    1    1    2    0    0  0.11896209033E+02 -0.34548268044E+02  0.23420525398E+02  0.43400732991E+02  0.00000000000E+00 0.  1.
         11    1    3    3    0    0 -0.12256708521E+02  0.22268532458E+02 -0.66393368942E+01  0.26271567069E+02  0.51100000000E-03 0. -1.
        -11    1    3    3    0    0  0.38210006772E+00  0.39394708170E+01 -0.10039052048E+02  0.10791107314E+02  0.51100000000E-03 0.  1.
         12    1    3    3    0    0 -0.21600579853E-01  0.83402647689E+01 -0.67421364561E+01  0.10724592626E+02  0.00000000000E+00 0. -1.
</event>
<event>
 7    1  0.2714068E-010  0.4778727E+02  0.7816164E-02  0.1312668E+00
        -11   -1    0    0    0    0  0.00000000000E+00  0.00000000000E+00  0.45593999997E+02  0.45594000000E+02  0.51100000000E-03 0.  1.
         11   -1    0    0    0    0 -0.00000000000E+00 -0.00000000000E+00 -0.45593999997E+02  0.45594000000E+02  0.51100000000E-03 0. -1.
    9900012    2    1    2    0    0 -0.33680818683E+02  0.22038391886E+02 -0.16233758069E+02  0.47787272297E+02  0.20000005713E+02 0.  0.
        -12    1    1    2    0    0  0.33680818683E+02 -0.22038391886E+02  0.16233758069E+02  0.43400727703E+02  0.00000000000E+00 0.  1.
         11    1    3    3    0    0 -0.20658364778E+02  0.79538067615E+01 -0.77348478840E+01  0.23449071396E+02  0.51100000000E-03 0. -1.
        -11    1    3    3    0    0  0.13468939329E+01  0.23217704387E+01  0.16749979502E+01  0.31639152376E+01  0.51100000000E-03 0.  1.
         12    1    3    3    0    0 -0.14369347837E+02  0.11762814686E+02 -0.10173908136E+02  0.21174285663E+02  0.00000000000E+00 0. -1.
</event>
<event>
 7    1  0.2714068E-010  0.4778727E+02  0.7816164E-02  0.1312668E+00
        -11   -1    0    0    0    0  0.00000000000E+00  0.00000000000E+00  0.45593999997E+02  0.45594000000E+02  0.51100000000E-03 0. -1.
         11   -1    0    0    0    0 -0.00000000000E+00 -0.00000000000E+00 -0.45593999997E+02  0.45594000000E+02  0.51100000000E-03 0.  1.
    9900012    2    1    2    0    0  0.18068013021E+02 -0.97095258965E+01  0.38247814492E+02  0.47787270731E+02  0.19999998573E+02 0.  0.
        -12    1    1    2    0    0 -0.18068013021E+02  0.97095258965E+01 -0.38247814492E+02  0.43400729269E+02  0.00000000000E+00 0.  1.
         11    1    3    3    0    0  0.45856392677E+01 -0.11994224759E+02  0.14101134136E+02  0.19071746099E+02  0.51100000000E-03 0. -1.
        -11    1    3    3    0    0 -0.59377693166E+00 -0.57748247327E+00  0.30807713443E+00  0.88372441031E+00  0.51100000000E-03 0.  1.
         12    1    3    3    0    0  0.14076150685E+02  0.28621813355E+01  0.23838603221E+02  0.27831800222E+02  0.00000000000E+00 0. -1.
</event>
<event>
 7    1  0.2714068E-010  0.4778727E+02  0.7816164E-02  0.1312668E+00
        -11   -1    0    0    0    0  0.00000000000E+00  0.00000000000E+00  0.45593999997E+02  0.45594000000E+02  0.51100000000E-03 0.  1.
         11   -1    0    0    0    0 -0.00000000000E+00 -0.00000000000E+00 -0.45593999997E+02  0.45594000000E+02  0.51100000000E-03 0. -1.
    9900012    2    1    2    0    0 -0.21610226062E+02 -0.79577842809E+01 -0.36787156972E+02  0.47787272826E+02  0.20000008124E+02 0.  0.
        -12    1    1    2    0    0  0.21610226062E+02  0.79577842809E+01  0.36787156972E+02  0.43400727174E+02  0.00000000000E+00 0.  1.
         11    1    3    3    0    0 -0.72694334557E+01 -0.84351666678E+01 -0.18158993315E+02  0.21301308363E+02  0.51100000000E-03 0. -1.
        -11    1    3    3    0    0 -0.10701534483E+02  0.47430942128E+01 -0.71634478915E+01  0.13723511539E+02  0.51100000000E-03 0.  1.
        -12    1    3    3    0    0 -0.36392581237E+01 -0.42657118260E+01 -0.11464715765E+02  0.12762452925E+02  0.00000000000E+00 0.  1.
</event>
<event>
 7    1  0.2714068E-010  0.4778727E+02  0.7816164E-02  0.1312668E+00
        -11   -1    0    0    0    0  0.00000000000E+00  0.00000000000E+00  0.45593999997E+02  0.45594000000E+02  0.51100000000E-03 0.  1.
         11   -1    0    0    0    0 -0.00000000000E+00 -0.00000000000E+00 -0.45593999997E+02  0.45594000000E+02  0.51100000000E-03 0. -1.
    9900012    2    1    2    0    0 -0.20089107031E+02 -0.13682894501E+02 -0.35955935065E+02  0.47787273167E+02  0.20000009680E+02 0.  0.
        -12    1    1    2    0    0  0.20089107031E+02  0.13682894501E+02  0.35955935065E+02  0.43400726833E+02  0.00000000000E+00 0.  1.
         11    1    3    3    0    0 -0.18061188916E+02 -0.43703721109E+01 -0.22594967357E+02  0.29254730345E+02  0.51100000000E-03 0.  1.
        -11    1    3    3    0    0 -0.21439018601E+01 -0.89421300380E+01 -0.56097145917E+01  0.10771578476E+02  0.51100000000E-03 0. -1.
        -12    1    3    3    0    0  0.11598374482E+00 -0.37039235221E+00 -0.77512531156E+01  0.77609643464E+01  0.00000000000E+00 0.  1.
</event>
<event>
 7    1  0.2714068E-010  0.4778727E+02  0.7816164E-02  0.1312668E+00
        -11   -1    0    0    0    0  0.00000000000E+00  0.00000000000E+00  0.45593999997E+02  0.45594000000E+02  0.51100000000E-03 0.  1.
         11   -1    0    0    0    0 -0.00000000000E+00 -0.00000000000E+00 -0.45593999997E+02  0.45594000000E+02  0.51100000000E-03 0. -1.
    9900012    2    1    2    0    0 -0.17656808221E+02 -0.16379178603E+02 -0.36105161714E+02  0.47787273386E+02  0.20000010676E+02 0.  0.
        -12    1    1    2    0    0  0.17656808221E+02  0.16379178603E+02  0.36105161714E+02  0.43400726614E+02  0.00000000000E+00 0.  1.
         11    1    3    3    0    0 -0.16942367905E+02 -0.51653190988E+01 -0.27898633802E+02  0.33046302666E+02  0.51100000000E-03 0. -1.
        -11    1    3    3    0    0 -0.55464529359E+00 -0.91532473446E+01 -0.39014672092E+01  0.99654912070E+01  0.51100000000E-03 0.  1.
         12    1    3    3    0    0 -0.15979502190E+00 -0.20606121595E+01 -0.43050607028E+01  0.47754795126E+01  0.00000000000E+00 0. -1.
</event>
<event>
 7    1  0.2714068E-010  0.4778727E+02  0.7816164E-02  0.1312668E+00
        -11   -1    0    0    0    0  0.00000000000E+00  0.00000000000E+00  0.45593999997E+02  0.45594000000E+02  0.51100000000E-03 0.  1.
         11   -1    0    0    0    0 -0.00000000000E+00 -0.00000000000E+00 -0.45593999997E+02  0.45594000000E+02  0.51100000000E-03 0. -1.
    9900012    2    1    2    0    0 -0.25637429146E+02 -0.65141351693E+01 -0.34408016396E+02  0.47787270484E+02  0.19999997446E+02 0.  0.
        -12    1    1    2    0    0  0.25637429146E+02  0.65141351693E+01  0.34408016396E+02  0.43400729516E+02  0.00000000000E+00 0.  1.
         11    1    3    3    0    0 -0.16407705971E+02 -0.80238839686E+01 -0.12212911180E+02  0.21971589130E+02  0.51100000000E-03 0. -1.
        -11    1    3    3    0    0 -0.10465927706E+02 -0.44608864999E+00 -0.20224746427E+02  0.22776632897E+02  0.51100000000E-03 0.  1.
         12    1    3    3    0    0  0.12362045302E+01  0.19558374492E+01 -0.19703587888E+01  0.30390484571E+01  0.00000000000E+00 0. -1.
</event>
<event>
 7    1  0.2714068E-010  0.4778727E+02  0.7816164E-02  0.1312668E+00
        -11   -1    0    0    0    0  0.00000000000E+00  0.00000000000E+00  0.45593999997E+02  0.45594000000E+02  0.51100000000E-03 0.  1.
         11   -1    0    0    0    0 -0.00000000000E+00 -0.00000000000E+00 -0.45593999997E+02  0.45594000000E+02  0.51100000000E-03 0. -1.
    9900012    2    1    2    0    0  0.39226903762E+02  0.18082767060E+02 -0.42292849820E+01  0.47787270804E+02  0.19999998903E+02 0.  0.
        -12    1    1    2    0    0 -0.39226903762E+02 -0.18082767060E+02  0.42292849820E+01  0.43400729196E+02  0.00000000000E+00 0.  1.
         11    1    3    3    0    0  0.15354390253E+02  0.52538407466E+01 -0.60338865509E+01  0.17313807490E+02  0.51100000000E-03 0. -1.
        -11    1    3    3    0    0  0.68330465795E-01  0.67978816000E+00  0.36225566583E+01  0.36864207571E+01  0.51100000000E-03 0.  1.
        -12    1    3    3    0    0  0.23804183043E+02  0.12149138153E+02 -0.18179550894E+01  0.26787042556E+02  0.00000000000E+00 0.  1.
</event>
<event>
 7    1  0.2714068E-010  0.4778733E+02  0.7816164E-02  0.1312667E+00
        -11   -1    0    0    0    0  0.00000000000E+00  0.00000000000E+00  0.45593999997E+02  0.45594000000E+02  0.51100000000E-03 0. -1.
         11   -1    0    0    0    0 -0.00000000000E+00 -0.00000000000E+00 -0.45593999997E+02  0.45594000000E+02  0.51100000000E-03 0.  1.
    9900012    2    1    2    0    0  0.17838186135E+02  0.39555762152E+02  0.87116162050E+00  0.47787330344E+02  0.20000270369E+02 0.  0.
        -12    1    1    2    0    0 -0.17838186135E+02 -0.39555762152E+02 -0.87116162050E+00  0.43400669656E+02  0.00000000000E+00 0.  1.
         11    1    3    3    0    0  0.11924579554E+02  0.21149101402E+02 -0.12414660779E+00  0.24279528420E+02  0.51100000000E-03 0. -1.
        -11    1    3    3    0    0 -0.21617644765E+00 -0.12971232459E+01  0.24926991594E+01  0.28182991913E+01  0.51100000000E-03 0.  1.
        -12    1    3    3    0    0  0.61297830284E+01  0.19703783996E+02 -0.14973909311E+01  0.20689502733E+02  0.00000000000E+00 0.  1.
</event>
<event>
 7    1  0.2714068E-010  0.4778727E+02  0.7816164E-02  0.1312668E+00
        -11   -1    0    0    0    0  0.00000000000E+00  0.00000000000E+00  0.45593999997E+02  0.45594000000E+02  0.51100000000E-03 0.  1.
         11   -1    0    0    0    0 -0.00000000000E+00 -0.00000000000E+00 -0.45593999997E+02  0.45594000000E+02  0.51100000000E-03 0. -1.
    9900012    2    1    2    0    0  0.35996608761E+02  0.12870480852E+02 -0.20547948048E+02  0.47787270874E+02  0.19999999223E+02 0.  0.
        -12    1    1    2    0    0 -0.35996608761E+02 -0.12870480852E+02  0.20547948048E+02  0.43400729126E+02  0.00000000000E+00 0.  1.
         11    1    3    3    0    0  0.13579431825E+02  0.88961924259E+01 -0.14515684201E+02  0.21777242627E+02  0.51100000000E-03 0. -1.
        -11    1    3    3    0    0  0.82712229844E+01 -0.38552952215E+01 -0.18814549922E+01  0.93175267132E+01  0.51100000000E-03 0.  1.
         12    1    3    3    0    0  0.14145953951E+02  0.78295836480E+01 -0.41508088556E+01  0.16692501534E+02  0.00000000000E+00 0. -1.
</event>
<event>
 7    1  0.2714068E-010  0.4778725E+02  0.7816164E-02  0.1312668E+00
        -11   -1    0    0    0    0  0.00000000000E+00  0.00000000000E+00  0.45593999997E+02  0.45594000000E+02  0.51100000000E-03 0. -1.
         11   -1    0    0    0    0 -0.00000000000E+00 -0.00000000000E+00 -0.45593999997E+02  0.45594000000E+02  0.51100000000E-03 0.  1.
    9900012    2    1    2    0    0 -0.17503586683E+02 -0.32792540531E+02  0.22403102285E+02  0.47787248242E+02  0.19999896033E+02 0.  0.
        -12    1    1    2    0    0  0.17503586683E+02  0.32792540531E+02 -0.22403102285E+02  0.43400751758E+02  0.00000000000E+00 0.  1.
         11    1    3    3    0    0 -0.20094691384E+02 -0.18892787779E+02  0.16958618642E+02  0.32377906023E+02  0.51100000000E-03 0. -1.
        -11    1    3    3    0    0  0.43107491880E+00 -0.60820293320E+01  0.10576363295E+01  0.61883359029E+01  0.51100000000E-03 0.  1.
         12    1    3    3    0    0  0.21600297830E+01 -0.78177234202E+01  0.43868473127E+01  0.92210063162E+01  0.00000000000E+00 0. -1.
</event>
<event>
 7    1  0.2714068E-010  0.4778728E+02  0.7816164E-02  0.1312668E+00
        -11   -1    0    0    0    0  0.00000000000E+00  0.00000000000E+00  0.45593999997E+02  0.45594000000E+02  0.51100000000E-03 0.  1.
         11   -1    0    0    0    0 -0.00000000000E+00 -0.00000000000E+00 -0.45593999997E+02  0.45594000000E+02  0.51100000000E-03 0. -1.
    9900012    2    1    2    0    0  0.35316473442E+02  0.22235744129E+02 -0.11913901391E+02  0.47787278120E+02  0.20000032260E+02 0.  0.
        -12    1    1    2    0    0 -0.35316473442E+02 -0.22235744129E+02  0.11913901391E+02  0.43400721880E+02  0.00000000000E+00 0.  1.
         11    1    3    3    0    0  0.18042177674E+02  0.11730743850E+02 -0.52404820974E+01  0.22149338125E+02  0.51100000000E-03 0. -1.
        -11    1    3    3    0    0  0.53566450945E+01 -0.18139045275E+01 -0.63381621046E+01  0.84944802918E+01  0.51100000000E-03 0.  1.
        -12    1    3    3    0    0  0.11917650674E+02  0.12318904806E+02 -0.33525718916E+00  0.17143459703E+02  0.00000000000E+00 0.  1.
</event>
<event>
 7    1  0.2714068E-010  0.4778727E+02  0.7816164E-02  0.1312668E+00
        -11   -1    0    0    0    0  0.00000000000E+00  0.00000000000E+00  0.45593999997E+02  0.45594000000E+02  0.51100000000E-03 0.  1.
         11   -1    0    0    0    0 -0.00000000000E+00 -0.00000000000E+00 -0.45593999997E+02  0.45594000000E+02  0.51100000000E-03 0. -1.
    9900012    2    1    2    0    0  0.16295648877E+02  0.14238319192E+02 -0.37621073925E+02  0.47787272944E+02  0.20000008661E+02 0.  0.
        -12    1    1    2    0    0 -0.16295648877E+02 -0.14238319192E+02  0.37621073925E+02  0.43400727056E+02  0.00000000000E+00 0.  1.
         11    1    3    3    0    0  0.59001259495E+01  0.17053213054E+02 -0.26412577572E+02  0.31988244965E+02  0.51100000000E-03 0. -1.
        -11    1    3    3    0    0  0.81472440554E+01 -0.17460115351E+01 -0.10045398249E+02  0.13051289907E+02  0.51100000000E-03 0.  1.
         12    1    3    3    0    0  0.22482788723E+01 -0.10688823270E+01 -0.11630981033E+01  0.27477380724E+01  0.00000000000E+00 0. -1.
</event>
<event>
 7    1  0.2714068E-010  0.4778727E+02  0.7816164E-02  0.1312668E+00
        -11   -1    0    0    0    0  0.00000000000E+00  0.00000000000E+00  0.45593999997E+02  0.45594000000E+02  0.51100000000E-03 0.  1.
         11   -1    0    0    0    0 -0.00000000000E+00 -0.00000000000E+00 -0.45593999997E+02  0.45594000000E+02  0.51100000000E-03 0. -1.
    9900012    2    1    2    0    0  0.11316880460E+02 -0.19092709052E+02 -0.37296382907E+02  0.47787268437E+02  0.19999988111E+02 0.  0.
        -12    1    1    2    0    0 -0.11316880460E+02  0.19092709052E+02  0.37296382907E+02  0.43400731563E+02  0.00000000000E+00 0.  1.
         11    1    3    3    0    0  0.51892133129E+01  0.42514084118E+00 -0.63953073693E+01  0.82467348781E+01  0.51100000000E-03 0. -1.
        -11    1    3    3    0    0 -0.41078192423E+01 -0.75037960705E+01 -0.78945692393E+01  0.11640676876E+02  0.51100000000E-03 0.  1.
        -12    1    3    3    0    0  0.10235486390E+02 -0.12014053822E+02 -0.23006506298E+02  0.27899856683E+02  0.00000000000E+00 0.  1.
</event>
<event>
 7    1  0.2714068E-010  0.4778727E+02  0.7816164E-02  0.1312668E+00
        -11   -1    0    0    0    0  0.00000000000E+00  0.00000000000E+00  0.45593999997E+02  0.45594000000E+02  0.51100000000E-03 0.  1.
         11   -1    0    0    0    0 -0.00000000000E+00 -0.00000000000E+00 -0.45593999997E+02  0.45594000000E+02  0.51100000000E-03 0. -1.
    9900012    2    1    2    0    0  0.35204596772E+02  0.25128881941E+02  0.35775727529E+01  0.47787269957E+02  0.19999995041E+02 0.  0.
        -12    1    1    2    0    0 -0.35204596772E+02 -0.25128881941E+02 -0.35775727529E+01  0.43400730043E+02  0.00000000000E+00 0.  1.
         11    1    3    3    0    0  0.34011949561E+02  0.16941986243E+02  0.17816919999E+01  0.38039690291E+02  0.51100000000E-03 0. -1.
        -11    1    3    3    0    0  0.12737699183E+01  0.47035738044E+01 -0.13464933335E+01  0.50556048992E+01  0.51100000000E-03 0.  1.
         12    1    3    3    0    0 -0.81122707477E-01  0.34833218940E+01  0.31423740866E+01  0.46919747666E+01  0.00000000000E+00 0. -1.
</event>
<event>
 7    1  0.2714068E-010  0.4778727E+02  0.7816164E-02  0.1312668E+00
        -11   -1    0    0    0    0  0.00000000000E+00  0.00000000000E+00  0.45593999997E+02  0.45594000000E+02  0.51100000000E-03 0. -1.
         11   -1    0    0    0    0 -0.00000000000E+00 -0.00000000000E+00 -0.45593999997E+02  0.45594000000E+02  0.51100000000E-03 0.  1.
    9900012    2    1    2    0    0 -0.23827330186E+02  0.23262288280E+02  0.27834283196E+02  0.47787273729E+02  0.20000012239E+02 0.  0.
        -12    1    1    2    0    0  0.23827330186E+02 -0.23262288280E+02 -0.27834283196E+02  0.43400726271E+02  0.00000000000E+00 0.  1.
         11    1    3    3    0    0 -0.91832481819E+01  0.83424674029E+01  0.18692019510E+02  0.22434803391E+02  0.51100000000E-03 0. -1.
        -11    1    3    3    0    0 -0.29734373432E+01  0.90969339766E+01  0.26279163709E+00  0.95741629981E+01  0.51100000000E-03 0.  1.
         12    1    3    3    0    0 -0.11670644661E+02  0.58228869010E+01  0.88794720483E+01  0.15778307340E+02  0.00000000000E+00 0. -1.
</event>
<event>
 7    1  0.2714068E-010  0.4778726E+02  0.7816164E-02  0.1312668E+00
        -11   -1    0    0    0    0  0.00000000000E+00  0.00000000000E+00  0.45593999997E+02  0.45594000000E+02  0.51100000000E-03 0.  1.
         11   -1    0    0    0    0 -0.00000000000E+00 -0.00000000000E+00 -0.45593999997E+02  0.45594000000E+02  0.51100000000E-03 0. -1.
    9900012    2    1    2    0    0 -0.37536283269E+02  0.11384399377E+02 -0.18575446478E+02  0.47787258962E+02  0.19999944909E+02 0.  0.
        -12    1    1    2    0    0  0.37536283269E+02 -0.11384399377E+02  0.18575446478E+02  0.43400741038E+02  0.00000000000E+00 0.  1.
         11    1    3    3    0    0 -0.33832773554E+02  0.10182038982E+02 -0.11438386278E+02  0.37137139969E+02  0.51100000000E-03 0. -1.
        -11    1    3    3    0    0 -0.69503569770E+00  0.38066210633E+01 -0.41535816221E+01  0.56767666055E+01  0.51100000000E-03 0.  1.
         12    1    3    3    0    0 -0.30084740169E+01 -0.26042606677E+01 -0.29834785784E+01  0.49733523869E+01  0.00000000000E+00 0. -1.
</event>
<event>
 7    1  0.2714068E-010  0.4778727E+02  0.7816164E-02  0.1312668E+00
        -11   -1    0    0    0    0  0.00000000000E+00  0.00000000000E+00  0.45593999997E+02  0.45594000000E+02  0.51100000000E-03 0.  1.
         11   -1    0    0    0    0 -0.00000000000E+00 -0.00000000000E+00 -0.45593999997E+02  0.45594000000E+02  0.51100000000E-03 0. -1.
    9900012    2    1    2    0    0  0.40128792510E+02 -0.16184158349E+02 -0.33728714340E+01  0.47787271532E+02  0.20000002225E+02 0.  0.
        -12    1    1    2    0    0 -0.40128792510E+02  0.16184158349E+02  0.33728714340E+01  0.43400728468E+02  0.00000000000E+00 0.  1.
         11    1    3    3    0    0  0.17882812417E+02 -0.15629635894E+02  0.28311164694E+01  0.23918522505E+02  0.51100000000E-03 0. -1.
        -11    1    3    3    0    0  0.77512352443E+01  0.25695948758E+01 -0.29943865970E+01  0.86977478115E+01  0.51100000000E-03 0.  1.
         12    1    3    3    0    0  0.14494744849E+02 -0.31241173314E+01 -0.32096013064E+01  0.15171001216E+02  0.00000000000E+00 0. -1.
</event>
<event>
 7    1  0.2714068E-010  0.4778727E+02  0.7816164E-02  0.1312668E+00
        -11   -1    0    0    0    0  0.00000000000E+00  0.00000000000E+00  0.45593999997E+02  0.45594000000E+02  0.51100000000E-03 0.  1.
         11   -1    0    0    0    0 -0.00000000000E+00 -0.00000000000E+00 -0.45593999997E+02  0.45594000000E+02  0.51100000000E-03 0. -1.
    9900012    2    1    2    0    0  0.25647827677E+02  0.19479980989E+02 -0.29091965680E+02  0.47787272000E+02  0.20000004355E+02 0.  0.
        -12    1    1    2    0    0 -0.25647827677E+02 -0.19479980989E+02  0.29091965680E+02  0.43400728000E+02  0.00000000000E+00 0.  1.
         11    1    3    3    0    0  0.11348896703E+02  0.11844499736E+02 -0.21813979937E+02  0.27293577107E+02  0.51100000000E-03 0. -1.
        -11    1    3    3    0    0  0.98291675810E+01  0.43667952949E+01 -0.96684015594E+01  0.14462345088E+02  0.51100000000E-03 0.  1.
         12    1    3    3    0    0  0.44697633928E+01  0.32686859580E+01  0.23904158166E+01  0.60313498038E+01  0.00000000000E+00 0. -1.
</event>
<event>
 7    1  0.2714068E-010  0.4778727E+02  0.7816164E-02  0.1312668E+00
        -11   -1    0    0    0    0  0.00000000000E+00  0.00000000000E+00  0.45593999997E+02  0.45594000000E+02  0.51100000000E-03 0. -1.
         11   -1    0    0    0    0 -0.00000000000E+00 -0.00000000000E+00 -0.45593999997E+02  0.45594000000E+02  0.51100000000E-03 0.  1.
    9900012    2    1    2    0    0 -0.11458697341E+02 -0.19089411119E+02  0.37254740049E+02  0.47787273995E+02  0.20000013454E+02 0.  0.
        -12    1    1    2    0    0  0.11458697341E+02  0.19089411119E+02 -0.37254740049E+02  0.43400726005E+02  0.00000000000E+00 0.  1.
         11    1    3    3    0    0 -0.30854350339E+01 -0.18758424663E+02  0.26638166595E+02  0.32725988526E+02  0.51100000000E-03 0. -1.
        -11    1    3    3    0    0 -0.57794310878E+01  0.13031748669E+01  0.25839108412E+01  0.64634885262E+01  0.51100000000E-03 0.  1.
         12    1    3    3    0    0 -0.25938312197E+01 -0.16341613228E+01  0.80326626126E+01  0.85977969429E+01  0.00000000000E+00 0. -1.
</event>
<event>
 7    1  0.2714068E-010  0.4778727E+02  0.7816164E-02  0.1312668E+00
        -11   -1    0    0    0    0  0.00000000000E+00  0.00000000000E+00  0.45593999997E+02  0.45594000000E+02  0.51100000000E-03 0.  1.
         11   -1    0    0    0    0 -0.00000000000E+00 -0.00000000000E+00 -0.45593999997E+02  0.45594000000E+02  0.51100000000E-03 0. -1.
    9900012    2    1    2    0    0 -0.11220626566E+01 -0.17343181964E+00 -0.43385875046E+02  0.47787271242E+02  0.20000000900E+02 0.  0.
        -12    1    1    2    0    0  0.11220626566E+01  0.17343181964E+00  0.43385875046E+02  0.43400728758E+02  0.00000000000E+00 0.  1.
         11    1    3    3    0    0 -0.55752589990E+01 -0.54466560127E+01 -0.30099777848E+02  0.31092542536E+02  0.51100000000E-03 0. -1.
        -11    1    3    3    0    0  0.18856641614E+01  0.48937146300E+01 -0.29073965169E+01  0.59964261837E+01  0.51100000000E-03 0.  1.
        -12    1    3    3    0    0  0.25675321810E+01  0.37950956301E+00 -0.10378700682E+02  0.10698302522E+02  0.00000000000E+00 0.  1.
</event>
<event>
 7    1  0.2714068E-010  0.4778727E+02  0.7816164E-02  0.1312668E+00
        -11   -1    0    0    0    0  0.00000000000E+00  0.00000000000E+00  0.45593999997E+02  0.45594000000E+02  0.51100000000E-03 0.  1.
         11   -1    0    0    0    0 -0.00000000000E+00 -0.00000000000E+00 -0.45593999997E+02  0.45594000000E+02  0.51100000000E-03 0. -1.
    9900012    2    1    2    0    0  0.36692263491E+02 -0.22159978480E+02 -0.67997171840E+01  0.47787274199E+02  0.20000014381E+02 0.  0.
        -12    1    1    2    0    0 -0.36692263491E+02  0.22159978480E+02  0.67997171840E+01  0.43400725801E+02  0.00000000000E+00 0.  1.
         11    1    3    3    0    0  0.67891230895E+01  0.25501201293E+01 -0.38485354146E+01  0.82101479948E+01  0.51100000000E-03 0. -1.
        -11    1    3    3    0    0  0.24434153611E+01 -0.43136705543E+00 -0.14902273100E+01  0.28943278771E+01  0.51100000000E-03 0.  1.
         12    1    3    3    0    0  0.27459725040E+02 -0.24278731554E+02 -0.14609544594E+01  0.36682798327E+02  0.00000000000E+00 0. -1.
</event>
<event>
 7    1  0.2714068E-010  0.4778728E+02  0.7816164E-02  0.1312668E+00
        -11   -1    0    0    0    0  0.00000000000E+00  0.00000000000E+00  0.45593999997E+02  0.45594000000E+02  0.51100000000E-03 0.  1.
         11   -1    0    0    0    0 -0.00000000000E+00 -0.00000000000E+00 -0.45593999997E+02  0.45594000000E+02  0.51100000000E-03 0. -1.
    9900012    2    1    2    0    0  0.32084294684E+02 -0.44575693725E+01 -0.28885132432E+02  0.47787276899E+02  0.20000026692E+02 0.  0.
        -12    1    1    2    0    0 -0.32084294684E+02  0.44575693725E+01  0.28885132432E+02  0.43400723101E+02  0.00000000000E+00 0.  1.
         11    1    3    3    0    0  0.14828211272E+02 -0.80742700672E+01 -0.10237312506E+02  0.19745183064E+02  0.51100000000E-03 0. -1.
        -11    1    3    3    0    0  0.38608866375E+01  0.57724737685E+01 -0.37513723420E+01  0.78930788509E+01  0.51100000000E-03 0.  1.
        -12    1    3    3    0    0  0.13395196775E+02 -0.21557730739E+01 -0.14896447584E+02  0.20149014984E+02  0.00000000000E+00 0.  1.
</event>
<event>
 7    1  0.2714068E-010  0.4778725E+02  0.7816164E-02  0.1312668E+00
        -11   -1    0    0    0    0  0.00000000000E+00  0.00000000000E+00  0.45593999997E+02  0.45594000000E+02  0.51100000000E-03 0.  1.
         11   -1    0    0    0    0 -0.00000000000E+00 -0.00000000000E+00 -0.45593999997E+02  0.45594000000E+02  0.51100000000E-03 0. -1.
    9900012    2    1    2    0    0  0.26326218222E+01  0.39006669425E+02 -0.18846057049E+02  0.47787253191E+02  0.19999918598E+02 0.  0.
        -12    1    1    2    0    0 -0.26326218222E+01 -0.39006669425E+02  0.18846057049E+02  0.43400746809E+02  0.00000000000E+00 0.  1.
         11    1    3    3    0    0  0.34252453002E+01  0.19588842765E+02 -0.17160056714E+02  0.26266377994E+02  0.51100000000E-03 0. -1.
        -11    1    3    3    0    0 -0.39983765422E+01  0.16285369175E+02 -0.10879865428E+00  0.16769379880E+02  0.51100000000E-03 0.  1.
        -12    1    3    3    0    0  0.32057530641E+01  0.31324574855E+01 -0.15772016806E+01  0.47514953171E+01  0.00000000000E+00 0.  1.
</event>
<event>
 7    1  0.2714068E-010  0.4778727E+02  0.7816164E-02  0.1312668E+00
        -11   -1    0    0    0    0  0.00000000000E+00  0.00000000000E+00  0.45593999997E+02  0.45594000000E+02  0.51100000000E-03 0. -1.
         11   -1    0    0    0    0 -0.00000000000E+00 -0.00000000000E+00 -0.45593999997E+02  0.45594000000E+02  0.51100000000E-03 0.  1.
    9900012    2    1    2    0    0 -0.22470526001E+02  0.33412581091E+02  0.16195626239E+02  0.47787269324E+02  0.19999992158E+02 0.  0.
        -12    1    1    2    0    0  0.22470526001E+02 -0.33412581091E+02 -0.16195626239E+02  0.43400730676E+02  0.00000000000E+00 0.  1.
         11    1    3    3    0    0 -0.42641946459E+01  0.51542267187E+01  0.10666017290E+02  0.12590207867E+02  0.51100000000E-03 0. -1.
        -11    1    3    3    0    0 -0.66772488981E+01  0.13023195600E+02 -0.17752004643E+01  0.14742476503E+02  0.51100000000E-03 0.  1.
        -12    1    3    3    0    0 -0.11529082457E+02  0.15235158773E+02  0.73048094134E+01  0.20454584955E+02  0.00000000000E+00 0.  1.
</event>
<event>
 7    1  0.2714068E-010  0.4778727E+02  0.7816164E-02  0.1312668E+00
        -11   -1    0    0    0    0  0.00000000000E+00  0.00000000000E+00  0.45593999997E+02  0.45594000000E+02  0.51100000000E-03 0.  1.
         11   -1    0    0    0    0 -0.00000000000E+00 -0.00000000000E+00 -0.45593999997E+02  0.45594000000E+02  0.51100000000E-03 0. -1.
    9900012    2    1    2    0    0 -0.30525900939E+02 -0.30640793778E+02 -0.35964514153E+01  0.47787270349E+02  0.19999996827E+02 0.  0.
        -12    1    1    2    0    0  0.30525900939E+02  0.30640793778E+02  0.35964514153E+01  0.43400729651E+02  0.00000000000E+00 0.  1.
         11    1    3    3    0    0 -0.18972053809E+02 -0.13468402318E+02 -0.96551944272E+01  0.25190463799E+02  0.51100000000E-03 0. -1.
        -11    1    3    3    0    0 -0.46378662945E+01 -0.12690641849E+02  0.33331086789E+01  0.13916601885E+02  0.51100000000E-03 0.  1.
         12    1    3    3    0    0 -0.69159808356E+01 -0.44817496112E+01  0.27256343331E+01  0.86802046642E+01  0.00000000000E+00 0. -1.
</event>
<event>
 7    1  0.2714068E-010  0.4778728E+02  0.7816164E-02  0.1312668E+00
        -11   -1    0    0    0    0  0.00000000000E+00  0.00000000000E+00  0.45593999997E+02  0.45594000000E+02  0.51100000000E-03 0.  1.
         11   -1    0    0    0    0 -0.00000000000E+00 -0.00000000000E+00 -0.45593999997E+02  0.45594000000E+02  0.51100000000E-03 0. -1.
    9900012    2    1    2    0    0  0.38941389971E+02 -0.91478257008E+01 -0.16837692501E+02  0.47787280459E+02  0.20000042926E+02 0.  0.
        -12    1    1    2    0    0 -0.38941389971E+02  0.91478257008E+01  0.16837692501E+02  0.43400719541E+02  0.00000000000E+00 0.  1.
         11    1    3    3    0    0  0.19159837820E+02  0.15080622104E+01 -0.29785653226E+01  0.19448534356E+02  0.51100000000E-03 0. -1.
        -11    1    3    3    0    0  0.19146352389E+02 -0.92321591857E+01 -0.15320597732E+02  0.26201837496E+02  0.51100000000E-03 0.  1.
         12    1    3    3    0    0  0.63519976088E+00 -0.14237287256E+01  0.14614705534E+01  0.21369086080E+01  0.00000000000E+00 0. -1.
</event>
<event>
 7    1  0.2714068E-010  0.4778727E+02  0.7816164E-02  0.1312668E+00
        -11   -1    0    0    0    0  0.00000000000E+00  0.00000000000E+00  0.45593999997E+02  0.45594000000E+02  0.51100000000E-03 0.  1.
         11   -1    0    0    0    0 -0.00000000000E+00 -0.00000000000E+00 -0.45593999997E+02  0.45594000000E+02  0.51100000000E-03 0. -1.
    9900012    2    1    2    0    0 -0.17134406504E+02 -0.10085244937E+02 -0.38578794555E+02  0.47787269119E+02  0.19999991223E+02 0.  0.
        -12    1    1    2    0    0  0.17134406504E+02  0.10085244937E+02  0.38578794555E+02  0.43400730881E+02  0.00000000000E+00 0.  1.
         11    1    3    3    0    0  0.38652222828E+01 -0.29787168117E+01 -0.10483396232E+02  0.11563489696E+02  0.51100000000E-03 0. -1.
        -11    1    3    3    0    0 -0.15928107921E+02 -0.63471229579E+01 -0.24720623186E+02  0.30084876645E+02  0.51100000000E-03 0.  1.
        -12    1    3    3    0    0 -0.50715208654E+01 -0.75940516740E+00 -0.33747751372E+01  0.61389027784E+01  0.00000000000E+00 0.  1.
</event>
<event>
 7    1  0.2714068E-010  0.4778727E+02  0.7816164E-02  0.1312668E+00
        -11   -1    0    0    0    0  0.00000000000E+00  0.00000000000E+00  0.45593999997E+02  0.45594000000E+02  0.51100000000E-03 0. -1.
         11   -1    0    0    0    0 -0.00000000000E+00 -0.00000000000E+00 -0.45593999997E+02  0.45594000000E+02  0.51100000000E-03 0.  1.
    9900012    2    1    2    0    0  0.96873097683E+00  0.43389280157E+02 -0.23422684173E+00  0.47787274955E+02  0.20000017830E+02 0.  0.
        -12    1    1    2    0    0 -0.96873097683E+00 -0.43389280157E+02  0.23422684173E+00  0.43400725045E+02  0.00000000000E+00 0.  1.
         11    1    3    3    0    0  0.45045984702E+01  0.15513811438E+01 -0.18179083682E+01  0.50993119072E+01  0.51100000000E-03 0.  1.
        -11    1    3    3    0    0 -0.49950218591E+01  0.30145039352E+02 -0.12016563288E+01  0.30579692920E+02  0.51100000000E-03 0. -1.
         12    1    3    3    0    0  0.14591543657E+01  0.11692859661E+02  0.27853378552E+01  0.12108270127E+02  0.00000000000E+00 0. -1.
</event>
<event>
 7    1  0.2714068E-010  0.4778727E+02  0.7816164E-02  0.1312668E+00
        -11   -1    0    0    0    0  0.00000000000E+00  0.00000000000E+00  0.45593999997E+02  0.45594000000E+02  0.51100000000E-03 0.  1.
         11   -1    0    0    0    0 -0.00000000000E+00 -0.00000000000E+00 -0.45593999997E+02  0.45594000000E+02  0.51100000000E-03 0. -1.
    9900012    2    1    2    0    0 -0.22241105522E+01  0.19959783163E+02 -0.38474454522E+02  0.47787271176E+02  0.20000000601E+02 0.  0.
        -12    1    1    2    0    0  0.22241105522E+01 -0.19959783163E+02  0.38474454522E+02  0.43400728824E+02  0.00000000000E+00 0.  1.
         11    1    3    3    0    0 -0.83576698856E+00  0.16391155788E+02 -0.39386463807E+02  0.42669216374E+02  0.51100000000E-03 0. -1.
        -11    1    3    3    0    0 -0.21264057462E+01  0.28485251903E+01 -0.25127288697E+00  0.35635425467E+01  0.51100000000E-03 0.  1.
         12    1    3    3    0    0  0.73806218248E+00  0.72010218445E+00  0.11632821715E+01  0.15545122553E+01  0.00000000000E+00 0. -1.
</event>
<event>
 7    1  0.2714068E-010  0.4778727E+02  0.7816164E-02  0.1312668E+00
        -11   -1    0    0    0    0  0.00000000000E+00  0.00000000000E+00  0.45593999997E+02  0.45594000000E+02  0.51100000000E-03 0.  1.
         11   -1    0    0    0    0 -0.00000000000E+00 -0.00000000000E+00 -0.45593999997E+02  0.45594000000E+02  0.51100000000E-03 0. -1.
    9900012    2    1    2    0    0 -0.72277178442E+01  0.22674275992E+02 -0.36294081216E+02  0.47787273873E+02  0.20000012898E+02 0.  0.
        -12    1    1    2    0    0  0.72277178442E+01 -0.22674275992E+02  0.36294081216E+02  0.43400726127E+02  0.00000000000E+00 0.  1.
         11    1    3    3    0    0 -0.26392544881E+01  0.19051086419E+02 -0.23344709247E+02  0.30247066107E+02  0.51100000000E-03 0. -1.
        -11    1    3    3    0    0 -0.20798402987E+01 -0.49868843245E+00  0.12953158547E+01  0.25004538079E+01  0.51100000000E-03 0.  1.
         12    1    3    3    0    0 -0.25086230574E+01  0.41218780056E+01 -0.14244687824E+02  0.15039753958E+02  0.00000000000E+00 0. -1.
</event>
<event>
 7    1  0.2714068E-010  0.4778731E+02  0.7816164E-02  0.1312668E+00
        -11   -1    0    0    0    0  0.00000000000E+00  0.00000000000E+00  0.45593999997E+02  0.45594000000E+02  0.51100000000E-03 0.  1.
         11   -1    0    0    0    0 -0.00000000000E+00 -0.00000000000E+00 -0.45593999997E+02  0.45594000000E+02  0.51100000000E-03 0. -1.
    9900012    2    1    2    0    0  0.28647500986E+01 -0.42556484390E+02  0.80224149797E+01  0.47787305318E+02  0.20000156265E+02 0.  0.
        -12    1    1    2    0    0 -0.28647500986E+01  0.42556484390E+02 -0.80224149797E+01  0.43400694682E+02  0.00000000000E+00 0.  1.
         11    1    3    3    0    0  0.74616790881E+01 -0.11081024696E+02  0.62947900624E+01  0.14767875450E+02  0.51100000000E-03 0. -1.
        -11    1    3    3    0    0 -0.31500588912E+00 -0.59680979086E+01  0.37838770762E+01  0.70735526679E+01  0.51100000000E-03 0.  1.
         12    1    3    3    0    0 -0.42819231004E+01 -0.25507361786E+02 -0.20562521589E+01  0.25945877200E+02  0.00000000000E+00 0. -1.
</event>
<event>
 7    1  0.2714068E-010  0.4778728E+02  0.7816164E-02  0.1312668E+00
        -11   -1    0    0    0    0  0.00000000000E+00  0.00000000000E+00  0.45593999997E+02  0.45594000000E+02  0.51100000000E-03 0.  1.
         11   -1    0    0    0    0 -0.00000000000E+00 -0.00000000000E+00 -0.45593999997E+02  0.45594000000E+02  0.51100000000E-03 0. -1.
    9900012    2    1    2    0    0 -0.30345413698E+02  0.15902971772E+02 -0.26643464865E+02  0.47787275770E+02  0.20000021545E+02 0.  0.
        -12    1    1    2    0    0  0.30345413698E+02 -0.15902971772E+02  0.26643464865E+02  0.43400724230E+02  0.00000000000E+00 0.  1.
         11    1    3    3    0    0 -0.15056041101E+02  0.10652547695E+02 -0.17135557470E+02  0.25175155930E+02  0.51100000000E-03 0. -1.
        -11    1    3    3    0    0 -0.74460847553E+01  0.27868587478E+01 -0.11661279911E+02  0.14113688720E+02  0.51100000000E-03 0.  1.
         12    1    3    3    0    0 -0.78432878412E+01  0.24635653298E+01  0.21533725164E+01  0.84984311192E+01  0.00000000000E+00 0. -1.
</event>
<event>
 7    1  0.2714068E-010  0.4778727E+02  0.7816164E-02  0.1312668E+00
        -11   -1    0    0    0    0  0.00000000000E+00  0.00000000000E+00  0.45593999997E+02  0.45594000000E+02  0.51100000000E-03 0. -1.
         11   -1    0    0    0    0 -0.00000000000E+00 -0.00000000000E+00 -0.45593999997E+02  0.45594000000E+02  0.51100000000E-03 0.  1.
    9900012    2    1    2    0    0  0.31592625926E+02 -0.29337042013E+02  0.49867110535E+01  0.47787270351E+02  0.19999996838E+02 0.  0.
        -12    1    1    2    0    0 -0.31592625926E+02  0.29337042013E+02 -0.49867110535E+01  0.43400729649E+02  0.00000000000E+00 0.  1.
         11    1    3    3    0    0  0.22894429747E+02 -0.96895429960E+01  0.27169163035E+01  0.25008474392E+02  0.51100000000E-03 0. -1.
        -11    1    3    3    0    0  0.52994211786E+00 -0.72919096434E+01  0.31063205945E+01  0.79436775358E+01  0.51100000000E-03 0.  1.
         12    1    3    3    0    0  0.81682540605E+01 -0.12355589373E+02 -0.83652584443E+00  0.14835118424E+02  0.00000000000E+00 0. -1.
</event>
<event>
 7    1  0.2714068E-010  0.4778727E+02  0.7816164E-02  0.1312668E+00
        -11   -1    0    0    0    0  0.00000000000E+00  0.00000000000E+00  0.45593999997E+02  0.45594000000E+02  0.51100000000E-03 0. -1.
         11   -1    0    0    0    0 -0.00000000000E+00 -0.00000000000E+00 -0.45593999997E+02  0.45594000000E+02  0.51100000000E-03 0.  1.
    9900012    2    1    2    0    0  0.19954571001E+02  0.25547290851E+02  0.28857830435E+02  0.47787270155E+02  0.19999995944E+02 0.  0.
        -12    1    1    2    0    0 -0.19954571001E+02 -0.25547290851E+02 -0.28857830435E+02  0.43400729845E+02  0.00000000000E+00 0.  1.
         11    1    3    3    0    0  0.12512800896E+02  0.17035639127E+02  0.15064265056E+02  0.25956025672E+02  0.51100000000E-03 0. -1.
        -11    1    3    3    0    0  0.79894957500E-01  0.44638446934E+01  0.12572499727E+02  0.13341665650E+02  0.51100000000E-03 0.  1.
        -12    1    3    3    0    0  0.73618751476E+01  0.40478070306E+01  0.12210656519E+01  0.84895788337E+01  0.00000000000E+00 0.  1.
</event>
<event>
 7    1  0.2714068E-010  0.4778727E+02  0.7816164E-02  0.1312668E+00
        -11   -1    0    0    0    0  0.00000000000E+00  0.00000000000E+00  0.45593999997E+02  0.45594000000E+02  0.51100000000E-03 0. -1.
         11   -1    0    0    0    0 -0.00000000000E+00 -0.00000000000E+00 -0.45593999997E+02  0.45594000000E+02  0.51100000000E-03 0.  1.
    9900012    2    1    2    0    0 -0.64090568222E+01 -0.30732965213E+02  0.29967188064E+02  0.47787268201E+02  0.19999987038E+02 0.  0.
        -12    1    1    2    0    0  0.64090568222E+01  0.30732965213E+02 -0.29967188064E+02  0.43400731799E+02  0.00000000000E+00 0.  1.
         11    1    3    3    0    0  0.93298200508E+00 -0.18368978129E+02  0.17410009164E+02  0.25325841195E+02  0.51100000000E-03 0. -1.
        -11    1    3    3    0    0 -0.77847097907E+01 -0.10656968586E+02  0.40960491931E+01  0.13818476950E+02  0.51100000000E-03 0.  1.
        -12    1    3    3    0    0  0.44267096342E+00 -0.17070184986E+01  0.84611297076E+01  0.86429500557E+01  0.00000000000E+00 0.  1.
</event>
<event>
 7    1  0.2714068E-010  0.4778727E+02  0.7816164E-02  0.1312668E+00
        -11   -1    0    0    0    0  0.00000000000E+00  0.00000000000E+00  0.45593999997E+02  0.45594000000E+02  0.51100000000E-03 0.  1.
         11   -1    0    0    0    0 -0.00000000000E+00 -0.00000000000E+00 -0.45593999997E+02  0.45594000000E+02  0.51100000000E-03 0. -1.
    9900012    2    1    2    0    0  0.16771157120E+02  0.37290545254E+02 -0.14552219366E+02  0.47787267691E+02  0.19999984709E+02 0.  0.
        -12    1    1    2    0    0 -0.16771157120E+02 -0.37290545254E+02  0.14552219366E+02  0.43400732309E+02  0.00000000000E+00 0.  1.
         11    1    3    3    0    0  0.70191547482E+01  0.26684391943E+02 -0.67133561834E+01  0.28397085383E+02  0.51100000000E-03 0. -1.
        -11    1    3    3    0    0  0.10702642059E+02  0.49532135028E+01 -0.38468727696E+01  0.12404809608E+02  0.51100000000E-03 0.  1.
        -12    1    3    3    0    0 -0.95063968707E+00  0.56529398081E+01 -0.39919904129E+01  0.69853726991E+01  0.00000000000E+00 0.  1.
</event>
<event>
 7    1  0.2714068E-010  0.4778727E+02  0.7816164E-02  0.1312668E+00
        -11   -1    0    0    0    0  0.00000000000E+00  0.00000000000E+00  0.45593999997E+02  0.45594000000E+02  0.51100000000E-03 0.  1.
         11   -1    0    0    0    0 -0.00000000000E+00 -0.00000000000E+00 -0.45593999997E+02  0.45594000000E+02  0.51100000000E-03 0. -1.
    9900012    2    1    2    0    0 -0.63447298874E+01 -0.51393638602E+01 -0.42625749881E+02  0.47787271767E+02  0.20000003293E+02 0.  0.
        -12    1    1    2    0    0  0.63447298874E+01  0.51393638602E+01  0.42625749881E+02  0.43400728233E+02  0.00000000000E+00 0.  1.
         11    1    3    3    0    0 -0.44318306493E+01 -0.42361050133E+01 -0.15270043290E+02  0.16454784439E+02  0.51100000000E-03 0. -1.
        -11    1    3    3    0    0  0.87082298248E+00  0.22744749202E+01 -0.26981684237E+02  0.27091379687E+02  0.51100000000E-03 0.  1.
        -12    1    3    3    0    0 -0.27837222206E+01 -0.31777337672E+01 -0.37402235430E+00  0.42411076405E+01  0.00000000000E+00 0.  1.
</event>
<event>
 7    1  0.2714068E-010  0.4778726E+02  0.7816164E-02  0.1312668E+00
        -11   -1    0    0    0    0  0.00000000000E+00  0.00000000000E+00  0.45593999997E+02  0.45594000000E+02  0.51100000000E-03 0. -1.
         11   -1    0    0    0    0 -0.00000000000E+00 -0.00000000000E+00 -0.45593999997E+02  0.45594000000E+02  0.51100000000E-03 0.  1.
    9900012    2    1    2    0    0  0.22739293007E+02 -0.41304116301E+01  0.36735390155E+02  0.47787255346E+02  0.19999928425E+02 0.  0.
        -12    1    1    2    0    0 -0.22739293007E+02  0.41304116301E+01 -0.36735390155E+02  0.43400744654E+02  0.00000000000E+00 0.  1.
         11    1    3    3    0    0  0.18806514933E+02 -0.18471348017E+01  0.22202012517E+02  0.29155210014E+02  0.51100000000E-03 0. -1.
        -11    1    3    3    0    0 -0.20783160645E+01 -0.31848577592E+01  0.10914291451E+02  0.11557875010E+02  0.51100000000E-03 0.  1.
         12    1    3    3    0    0  0.60110941384E+01  0.90158093078E+00  0.36190861865E+01  0.70741703218E+01  0.00000000000E+00 0. -1.
</event>
<event>
 7    1  0.2714068E-010  0.4778727E+02  0.7816164E-02  0.1312668E+00
        -11   -1    0    0    0    0  0.00000000000E+00  0.00000000000E+00  0.45593999997E+02  0.45594000000E+02  0.51100000000E-03 0.  1.
         11   -1    0    0    0    0 -0.00000000000E+00 -0.00000000000E+00 -0.45593999997E+02  0.45594000000E+02  0.51100000000E-03 0. -1.
    9900012    2    1    2    0    0  0.27190538690E+02  0.12728890831E+02 -0.31341245703E+02  0.47787265695E+02  0.19999975608E+02 0.  0.
        -12    1    1    2    0    0 -0.27190538690E+02 -0.12728890831E+02  0.31341245703E+02  0.43400734305E+02  0.00000000000E+00 0.  1.
         11    1    3    3    0    0  0.24648674958E+02  0.62672523267E+01 -0.18166658802E+02  0.31254809569E+02  0.51100000000E-03 0. -1.
        -11    1    3    3    0    0 -0.10885073825E+01  0.61166681263E+01 -0.69825322340E+01  0.93463486961E+01  0.51100000000E-03 0.  1.
        -12    1    3    3    0    0  0.36303711148E+01  0.34497037771E+00 -0.61920546673E+01  0.71861074300E+01  0.00000000000E+00 0.  1.
</event>
<event>
 7    1  0.2714068E-010  0.4778727E+02  0.7816164E-02  0.1312668E+00
        -11   -1    0    0    0    0  0.00000000000E+00  0.00000000000E+00  0.45593999997E+02  0.45594000000E+02  0.51100000000E-03 0.  1.
         11   -1    0    0    0    0 -0.00000000000E+00 -0.00000000000E+00 -0.45593999997E+02  0.45594000000E+02  0.51100000000E-03 0. -1.
    9900012    2    1    2    0    0 -0.10641758276E+00  0.37989677406E+01 -0.43234012747E+02  0.47787270296E+02  0.19999996590E+02 0.  0.
        -12    1    1    2    0    0  0.10641758276E+00 -0.37989677406E+01  0.43234012747E+02  0.43400729704E+02  0.00000000000E+00 0.  1.
         11    1    3    3    0    0 -0.59819057658E+01  0.52190658999E+01 -0.98660634419E+01  0.12663374493E+02  0.51100000000E-03 0. -1.
        -11    1    3    3    0    0  0.77670776500E+01 -0.21041923822E+01 -0.19263315376E+02  0.20876552405E+02  0.51100000000E-03 0.  1.
        -12    1    3    3    0    0 -0.18915894669E+01  0.68409422290E+00 -0.14104633930E+02  0.14247343398E+02  0.00000000000E+00 0.  1.
</event>
<event>
 7    1  0.2714068E-010  0.4778729E+02  0.7816164E-02  0.1312668E+00
        -11   -1    0    0    0    0  0.00000000000E+00  0.00000000000E+00  0.45593999997E+02  0.45594000000E+02  0.51100000000E-03 0.  1.
         11   -1    0    0    0    0 -0.00000000000E+00 -0.00000000000E+00 -0.45593999997E+02  0.45594000000E+02  0.51100000000E-03 0. -1.
    9900012    2    1    2    0    0  0.16398085250E+02  0.23598320047E+02 -0.32524511268E+02  0.47787288691E+02  0.20000080458E+02 0.  0.
        -12    1    1    2    0    0 -0.16398085250E+02 -0.23598320047E+02  0.32524511268E+02  0.43400711309E+02  0.00000000000E+00 0.  1.
         11    1    3    3    0    0  0.16143674562E+02  0.13446878875E+02 -0.16594210159E+02  0.26773206587E+02  0.51100000000E-03 0. -1.
        -11    1    3    3    0    0  0.95246687198E+00  0.53683878753E+01 -0.15171132711E+02  0.16121105716E+02  0.51100000000E-03 0.  1.
        -12    1    3    3    0    0 -0.69805618424E+00  0.47830532972E+01 -0.75916839728E+00  0.48929763882E+01  0.00000000000E+00 0.  1.
</event>
<event>
 7    1  0.2714068E-010  0.4778727E+02  0.7816164E-02  0.1312668E+00
        -11   -1    0    0    0    0  0.00000000000E+00  0.00000000000E+00  0.45593999997E+02  0.45594000000E+02  0.51100000000E-03 0. -1.
         11   -1    0    0    0    0 -0.00000000000E+00 -0.00000000000E+00 -0.45593999997E+02  0.45594000000E+02  0.51100000000E-03 0.  1.
    9900012    2    1    2    0    0 -0.87870641354E+01  0.35135067346E+00  0.42500439614E+02  0.47787270619E+02  0.19999998060E+02 0.  0.
        -12    1    1    2    0    0  0.87870641354E+01 -0.35135067346E+00 -0.42500439614E+02  0.43400729381E+02  0.00000000000E+00 0.  1.
         11    1    3    3    0    0 -0.13908539978E+02  0.31963503147E+01  0.20992904065E+02  0.25384368438E+02  0.51100000000E-03 0. -1.
        -11    1    3    3    0    0  0.41110169349E+01 -0.11954015478E+01  0.16109946641E+02  0.16669127935E+02  0.51100000000E-03 0.  1.
         12    1    3    3    0    0  0.10104589078E+01 -0.16495980935E+01  0.53975889088E+01  0.57337742459E+01  0.00000000000E+00 0. -1.
</event>
<event>
 7    1  0.2714068E-010  0.4778729E+02  0.7816164E-02  0.1312668E+00
        -11   -1    0    0    0    0  0.00000000000E+00  0.00000000000E+00  0.45593999997E+02  0.45594000000E+02  0.51100000000E-03 0.  1.
         11   -1    0    0    0    0 -0.00000000000E+00 -0.00000000000E+00 -0.45593999997E+02  0.45594000000E+02  0.51100000000E-03 0. -1.
    9900012    2    1    2    0    0  0.30939921933E+02  0.27240500777E+02 -0.13575631610E+02  0.47787292340E+02  0.20000097094E+02 0.  0.
        -12    1    1    2    0    0 -0.30939921933E+02 -0.27240500777E+02  0.13575631610E+02  0.43400707660E+02  0.00000000000E+00 0.  1.
         11    1    3    3    0    0  0.13154311551E+02  0.11932422578E+02 -0.88237040213E+01  0.19831196986E+02  0.51100000000E-03 0. -1.
        -11    1    3    3    0    0  0.73886094948E+00  0.74527417911E+01  0.24085330543E+01  0.78670393060E+01  0.51100000000E-03 0.  1.
        -12    1    3    3    0    0  0.17046749432E+02  0.78553364074E+01 -0.71604606433E+01  0.20089056048E+02  0.00000000000E+00 0.  1.
</event>
<event>
 7    1  0.2714068E-010  0.4778727E+02  0.7816164E-02  0.1312668E+00
        -11   -1    0    0    0    0  0.00000000000E+00  0.00000000000E+00  0.45593999997E+02  0.45594000000E+02  0.51100000000E-03 0.  1.
         11   -1    0    0    0    0 -0.00000000000E+00 -0.00000000000E+00 -0.45593999997E+02  0.45594000000E+02  0.51100000000E-03 0. -1.
    9900012    2    1    2    0    0  0.17646047783E+02 -0.28944076305E+02 -0.27101302900E+02  0.47787272190E+02  0.20000005224E+02 0.  0.
        -12    1    1    2    0    0 -0.17646047783E+02  0.28944076305E+02  0.27101302900E+02  0.43400727810E+02  0.00000000000E+00 0.  1.
         11    1    3    3    0    0  0.60648533397E+01 -0.11770285817E+02 -0.14545366419E+02  0.19669513435E+02  0.51100000000E-03 0. -1.
        -11    1    3    3    0    0  0.13957087974E+02 -0.12374107624E+02 -0.58764432773E+01  0.19556365461E+02  0.51100000000E-03 0.  1.
        -12    1    3    3    0    0 -0.23758935307E+01 -0.47996828646E+01 -0.66794932041E+01  0.85613932940E+01  0.00000000000E+00 0.  1.
</event>
<event>
 7    1  0.2714068E-010  0.4778727E+02  0.7816164E-02  0.1312668E+00
        -11   -1    0    0    0    0  0.00000000000E+00  0.00000000000E+00  0.45593999997E+02  0.45594000000E+02  0.51100000000E-03 0. -1.
         11   -1    0    0    0    0 -0.00000000000E+00 -0.00000000000E+00 -0.45593999997E+02  0.45594000000E+02  0.51100000000E-03 0.  1.
    9900012    2    1    2    0    0 -0.22890427688E+02 -0.36319605697E+02 -0.63669415401E+01  0.47787269795E+02  0.19999994303E+02 0.  0.
        -12    1    1    2    0    0  0.22890427688E+02  0.36319605697E+02  0.63669415401E+01  0.43400730205E+02  0.00000000000E+00 0.  1.
         11    1    3    3    0    0 -0.17119638639E+02 -0.27896083657E+02 -0.21499022322E+01  0.32800847404E+02  0.51100000000E-03 0. -1.
        -11    1    3    3    0    0 -0.24373805424E+01 -0.14213539525E+01 -0.63454885149E+01  0.69445155138E+01  0.51100000000E-03 0.  1.
        -12    1    3    3    0    0 -0.33334085070E+01 -0.70021680876E+01  0.21284492070E+01  0.80419068776E+01  0.00000000000E+00 0.  1.
</event>
<event>
 7    1  0.2714068E-010  0.4778726E+02  0.7816164E-02  0.1312668E+00
        -11   -1    0    0    0    0  0.00000000000E+00  0.00000000000E+00  0.45593999997E+02  0.45594000000E+02  0.51100000000E-03 0.  1.
         11   -1    0    0    0    0 -0.00000000000E+00 -0.00000000000E+00 -0.45593999997E+02  0.45594000000E+02  0.51100000000E-03 0. -1.
    9900012    2    1    2    0    0  0.38212677188E+02  0.91605304884E+01 -0.18425522399E+02  0.47787263918E+02  0.19999967510E+02 0.  0.
        -12    1    1    2    0    0 -0.38212677188E+02 -0.91605304884E+01  0.18425522399E+02  0.43400736082E+02  0.00000000000E+00 0.  1.
         11    1    3    3    0    0  0.46567496339E+01  0.40102064552E+01 -0.35815035839E+01  0.71129628952E+01  0.51100000000E-03 0. -1.
        -11    1    3    3    0    0 -0.12971016384E+01  0.20244188655E+01 -0.27442369623E+01  0.36485039632E+01  0.51100000000E-03 0.  1.
        -12    1    3    3    0    0  0.34853029193E+02  0.31259051677E+01 -0.12099781853E+02  0.37025797060E+02  0.00000000000E+00 0.  1.
</event>
<event>
 7    1  0.2714068E-010  0.4778727E+02  0.7816164E-02  0.1312668E+00
        -11   -1    0    0    0    0  0.00000000000E+00  0.00000000000E+00  0.45593999997E+02  0.45594000000E+02  0.51100000000E-03 0.  1.
         11   -1    0    0    0    0 -0.00000000000E+00 -0.00000000000E+00 -0.45593999997E+02  0.45594000000E+02  0.51100000000E-03 0. -1.
    9900012    2    1    2    0    0 -0.11726274737E+02 -0.40757708458E+02 -0.92155844174E+01  0.47787270581E+02  0.19999997887E+02 0.  0.
        -12    1    1    2    0    0  0.11726274737E+02  0.40757708458E+02  0.92155844174E+01  0.43400729419E+02  0.00000000000E+00 0.  1.
         11    1    3    3    0    0  0.71130518652E+00 -0.75185866427E+01 -0.69815305783E+00  0.75843601000E+01  0.51100000000E-03 0. -1.
        -11    1    3    3    0    0  0.13736888929E+01 -0.83451153067E+01  0.36900199654E+01  0.92273624760E+01  0.51100000000E-03 0.  1.
        -12    1    3    3    0    0 -0.13811268817E+02 -0.24894006508E+02 -0.12207451325E+02  0.30975548005E+02  0.00000000000E+00 0.  1.
</event>
<event>
 7    1  0.2714068E-010  0.4778727E+02  0.7816164E-02  0.1312668E+00
        -11   -1    0    0    0    0  0.00000000000E+00  0.00000000000E+00  0.45593999997E+02  0.45594000000E+02  0.51100000000E-03 0. -1.
         11   -1    0    0    0    0 -0.00000000000E+00 -0.00000000000E+00 -0.45593999997E+02  0.45594000000E+02  0.51100000000E-03 0.  1.
    9900012    2    1    2    0    0 -0.29196756762E+02  0.31891036215E+02  0.37595740100E+01  0.47787271975E+02  0.20000004245E+02 0.  0.
        -12    1    1    2    0    0  0.29196756762E+02 -0.31891036215E+02 -0.37595740100E+01  0.43400728025E+02  0.00000000000E+00 0.  1.
         11    1    3    3    0    0 -0.92934185861E+01  0.12979344770E+02  0.59996125485E+00  0.15974697914E+02  0.51100000000E-03 0. -1.
        -11    1    3    3    0    0 -0.21216211779E+02  0.20562682210E+02  0.29746067810E+01  0.29695114543E+02  0.51100000000E-03 0.  1.
        -12    1    3    3    0    0  0.13128736029E+01 -0.16509907650E+01  0.18500597411E+00  0.21174595188E+01  0.00000000000E+00 0.  1.
</event>
<event>
 7    1  0.2714068E-010  0.4778728E+02  0.7816164E-02  0.1312668E+00
        -11   -1    0    0    0    0  0.00000000000E+00  0.00000000000E+00  0.45593999997E+02  0.45594000000E+02  0.51100000000E-03 0. -1.
         11   -1    0    0    0    0 -0.00000000000E+00 -0.00000000000E+00 -0.45593999997E+02  0.45594000000E+02  0.51100000000E-03 0.  1.
    9900012    2    1    2    0    0 -0.26869041376E+02  0.22226202247E+02 -0.25839368060E+02  0.47787281198E+02  0.20000046293E+02 0.  0.
        -12    1    1    2    0    0  0.26869041376E+02 -0.22226202247E+02  0.25839368060E+02  0.43400718802E+02  0.00000000000E+00 0.  1.
         11    1    3    3    0    0 -0.14602562253E+02  0.11293926878E+02 -0.42193321060E+01  0.18936482576E+02  0.51100000000E-03 0. -1.
        -11    1    3    3    0    0 -0.11736147670E+00  0.18050622253E+01 -0.87570445353E+01  0.89419154888E+01  0.51100000000E-03 0.  1.
         12    1    3    3    0    0 -0.12149117646E+02  0.91272131439E+01 -0.12862991419E+02  0.19908883133E+02  0.00000000000E+00 0. -1.
</event>
<event>
 7    1  0.2714068E-010  0.4778727E+02  0.7816164E-02  0.1312668E+00
        -11   -1    0    0    0    0  0.00000000000E+00  0.00000000000E+00  0.45593999997E+02  0.45594000000E+02  0.51100000000E-03 0. -1.
         11   -1    0    0    0    0 -0.00000000000E+00 -0.00000000000E+00 -0.45593999997E+02  0.45594000000E+02  0.51100000000E-03 0.  1.
    9900012    2    1    2    0    0  0.25513814261E+02  0.96553171256E+01  0.33755641813E+02  0.47787271652E+02  0.20000002768E+02 0.  0.
        -12    1    1    2    0    0 -0.25513814261E+02 -0.96553171256E+01 -0.33755641813E+02  0.43400728348E+02  0.00000000000E+00 0.  1.
         11    1    3    3    0    0 -0.24176906762E+00  0.67647728577E+01  0.63941845910E+01  0.93116164517E+01  0.51100000000E-03 0. -1.
        -11    1    3    3    0    0  0.14848861570E+01  0.20399638094E+01  0.12487628949E+01  0.28152705503E+01  0.51100000000E-03 0.  1.
         12    1    3    3    0    0  0.24270697172E+02  0.85058045851E+00  0.26112694327E+02  0.35660384650E+02  0.00000000000E+00 0. -1.
</event>
<event>
 7    1  0.2714068E-010  0.4778727E+02  0.7816164E-02  0.1312668E+00
        -11   -1    0    0    0    0  0.00000000000E+00  0.00000000000E+00  0.45593999997E+02  0.45594000000E+02  0.51100000000E-03 0. -1.
         11   -1    0    0    0    0 -0.00000000000E+00 -0.00000000000E+00 -0.45593999997E+02  0.45594000000E+02  0.51100000000E-03 0.  1.
    9900012    2    1    2    0    0  0.78855040085E+01  0.16686263043E+02  0.39281174996E+02  0.47787271240E+02  0.20000000890E+02 0.  0.
        -12    1    1    2    0    0 -0.78855040085E+01 -0.16686263043E+02 -0.39281174996E+02  0.43400728760E+02  0.00000000000E+00 0.  1.
         11    1    3    3    0    0  0.78015662502E+01  0.64103698265E-02  0.11344262760E+02  0.13767961900E+02  0.51100000000E-03 0. -1.
        -11    1    3    3    0    0 -0.33006811147E+01  0.91760346508E+01  0.21367205287E+02  0.23487263990E+02  0.51100000000E-03 0.  1.
        -12    1    3    3    0    0  0.33846188729E+01  0.75038180228E+01  0.65697069497E+01  0.10532045349E+02  0.00000000000E+00 0.  1.
</event>
<event>
 7    1  0.2714068E-010  0.4778727E+02  0.7816164E-02  0.1312668E+00
        -11   -1    0    0    0    0  0.00000000000E+00  0.00000000000E+00  0.45593999997E+02  0.45594000000E+02  0.51100000000E-03 0.  1.
         11   -1    0    0    0    0 -0.00000000000E+00 -0.00000000000E+00 -0.45593999997E+02  0.45594000000E+02  0.51100000000E-03 0. -1.
    9900012    2    1    2    0    0 -0.61506529729E+01 -0.13473528552E+02 -0.40795303619E+02  0.47787270731E+02  0.19999998573E+02 0.  0.
        -12    1    1    2    0    0  0.61506529729E+01  0.13473528552E+02  0.40795303619E+02  0.43400729269E+02  0.00000000000E+00 0.  1.
         11    1    3    3    0    0  0.12011649780E+01  0.80003727705E+00 -0.93410945838E+01  0.94519260065E+01  0.51100000000E-03 0. -1.
        -11    1    3    3    0    0 -0.49136764023E+01  0.20601673057E+01 -0.63956219061E+01  0.83242107698E+01  0.51100000000E-03 0.  1.
        -12    1    3    3    0    0 -0.24381415486E+01 -0.16333733135E+02 -0.25058587130E+02  0.30011133955E+02  0.00000000000E+00 0.  1.
</event>
<event>
 7    1  0.2714068E-010  0.4778727E+02  0.7816164E-02  0.1312668E+00
        -11   -1    0    0    0    0  0.00000000000E+00  0.00000000000E+00  0.45593999997E+02  0.45594000000E+02  0.51100000000E-03 0.  1.
         11   -1    0    0    0    0 -0.00000000000E+00 -0.00000000000E+00 -0.45593999997E+02  0.45594000000E+02  0.51100000000E-03 0. -1.
    9900012    2    1    2    0    0 -0.29031922838E+02 -0.13053834070E+02 -0.29502004977E+02  0.47787269300E+02  0.19999992046E+02 0.  0.
        -12    1    1    2    0    0  0.29031922838E+02  0.13053834070E+02  0.29502004977E+02  0.43400730700E+02  0.00000000000E+00 0.  1.
         11    1    3    3    0    0 -0.22357279780E+02 -0.59126899712E+01 -0.20151142381E+02  0.30673708635E+02  0.51100000000E-03 0. -1.
        -11    1    3    3    0    0  0.18229104646E+01 -0.45752700630E+01 -0.56533247273E+01  0.74977449573E+01  0.51100000000E-03 0.  1.
        -12    1    3    3    0    0 -0.84975535228E+01 -0.25658740358E+01 -0.36975378686E+01  0.96158157080E+01  0.00000000000E+00 0.  1.
</event>
<event>
 7    1  0.2714068E-010  0.4778727E+02  0.7816164E-02  0.1312668E+00
        -11   -1    0    0    0    0  0.00000000000E+00  0.00000000000E+00  0.45593999997E+02  0.45594000000E+02  0.51100000000E-03 0.  1.
         11   -1    0    0    0    0 -0.00000000000E+00 -0.00000000000E+00 -0.45593999997E+02  0.45594000000E+02  0.51100000000E-03 0. -1.
    9900012    2    1    2    0    0  0.28660553889E+02 -0.16556138304E+02 -0.28072947173E+02  0.47787269271E+02  0.19999991915E+02 0.  0.
        -12    1    1    2    0    0 -0.28660553889E+02  0.16556138304E+02  0.28072947173E+02  0.43400730729E+02  0.00000000000E+00 0.  1.
         11    1    3    3    0    0  0.11056877638E+02 -0.12649479916E+02 -0.10712703358E+02  0.19925508745E+02  0.51100000000E-03 0. -1.
        -11    1    3    3    0    0  0.19074606955E+02 -0.20011201954E+01 -0.14078440432E+02  0.23791754828E+02  0.51100000000E-03 0.  1.
        -12    1    3    3    0    0 -0.14709307038E+01 -0.19055381931E+01 -0.32818033827E+01  0.40700056983E+01  0.00000000000E+00 0.  1.
</event>
<event>
 7    1  0.2714068E-010  0.4778727E+02  0.7816164E-02  0.1312668E+00
        -11   -1    0    0    0    0  0.00000000000E+00  0.00000000000E+00  0.45593999997E+02  0.45594000000E+02  0.51100000000E-03 0. -1.
         11   -1    0    0    0    0 -0.00000000000E+00 -0.00000000000E+00 -0.45593999997E+02  0.45594000000E+02  0.51100000000E-03 0.  1.
    9900012    2    1    2    0    0 -0.19629742390E+02  0.33073888259E+01  0.38566278062E+02  0.47787269469E+02  0.19999992816E+02 0.  0.
        -12    1    1    2    0    0  0.19629742390E+02 -0.33073888259E+01 -0.38566278062E+02  0.43400730531E+02  0.00000000000E+00 0.  1.
         11    1    3    3    0    0 -0.10791559057E+02 -0.46188235200E+01  0.26214961343E+02  0.28723082635E+02  0.51100000000E-03 0.  1.
        -11    1    3    3    0    0 -0.68293563636E+00  0.51220862119E+01  0.76794879436E+01  0.92561711081E+01  0.51100000000E-03 0. -1.
         12    1    3    3    0    0 -0.81552476966E+01  0.28041261339E+01  0.46718287747E+01  0.98080157253E+01  0.00000000000E+00 0. -1.
</event>
<event>
 7    1  0.2714068E-010  0.4778726E+02  0.7816164E-02  0.1312668E+00
        -11   -1    0    0    0    0  0.00000000000E+00  0.00000000000E+00  0.45593999997E+02  0.45594000000E+02  0.51100000000E-03 0.  1.
         11   -1    0    0    0    0 -0.00000000000E+00 -0.00000000000E+00 -0.45593999997E+02  0.45594000000E+02  0.51100000000E-03 0. -1.
    9900012    2    1    2    0    0  0.23326966050E+02 -0.18081030827E+02 -0.31820639430E+02  0.47787261359E+02  0.19999955840E+02 0.  0.
        -12    1    1    2    0    0 -0.23326966050E+02  0.18081030827E+02  0.31820639430E+02  0.43400738641E+02  0.00000000000E+00 0.  1.
         11    1    3    3    0    0  0.10515533273E+02 -0.14215943100E+02 -0.22128020305E+02  0.28325231881E+02  0.51100000000E-03 0. -1.
        -11    1    3    3    0    0  0.42847853568E+01 -0.65858103356E+01 -0.36531033653E+01  0.86647243343E+01  0.51100000000E-03 0.  1.
         12    1    3    3    0    0  0.85266474207E+01  0.27207226090E+01 -0.60395157591E+01  0.10797305143E+02  0.00000000000E+00 0. -1.
</event>
<event>
 7    1  0.2714068E-010  0.4778727E+02  0.7816164E-02  0.1312668E+00
        -11   -1    0    0    0    0  0.00000000000E+00  0.00000000000E+00  0.45593999997E+02  0.45594000000E+02  0.51100000000E-03 0. -1.
         11   -1    0    0    0    0 -0.00000000000E+00 -0.00000000000E+00 -0.45593999997E+02  0.45594000000E+02  0.51100000000E-03 0.  1.
    9900012    2    1    2    0    0  0.35963572817E+02 -0.87473076177E+01  0.22665601869E+02  0.47787268804E+02  0.19999989784E+02 0.  0.
        -12    1    1    2    0    0 -0.35963572817E+02  0.87473076177E+01 -0.22665601869E+02  0.43400731196E+02  0.00000000000E+00 0.  1.
         11    1    3    3    0    0  0.30230064858E+02 -0.13152252556E+02  0.12874077988E+02  0.35391813360E+02  0.51100000000E-03 0. -1.
        -11    1    3    3    0    0  0.13441529692E+01  0.23957568767E+01  0.30635232568E+01  0.41147992931E+01  0.51100000000E-03 0.  1.
         12    1    3    3    0    0  0.43893549894E+01  0.20091880614E+01  0.67280006236E+01  0.82806561503E+01  0.00000000000E+00 0. -1.
</event>
<event>
 7    1  0.2931275E-010  0.4778727E+02  0.7816164E-02  0.1312668E+00
        -11   -1    0    0    0    0  0.00000000000E+00  0.00000000000E+00  0.45593999997E+02  0.45594000000E+02  0.51100000000E-03 0.  1.
         11   -1    0    0    0    0 -0.00000000000E+00 -0.00000000000E+00 -0.45593999997E+02  0.45594000000E+02  0.51100000000E-03 0. -1.
    9900012    2    1    2    0    0  0.27299151139E+02  0.57922833820E+01 -0.33238965623E+02  0.47787273792E+02  0.20000012526E+02 0.  0.
        -12    1    1    2    0    0 -0.27299151139E+02 -0.57922833820E+01  0.33238965623E+02  0.43400726208E+02  0.00000000000E+00 0.  1.
         11    1    3    3    0    0  0.24444486575E+02  0.58967759359E+01 -0.25155545892E+02  0.35568333947E+02  0.51100000000E-03 0. -1.
        -11    1    3    3    0    0 -0.15319071917E+00  0.46847402810E+00 -0.90072049053E+01  0.90206804498E+01  0.51100000000E-03 0.  1.
        -12    1    3    3    0    0  0.30078552836E+01 -0.57296658196E+00  0.92378517441E+00  0.31982593953E+01  0.00000000000E+00 0.  1.
</event>
<event>
 7    1  0.2714068E-010  0.4778727E+02  0.7816164E-02  0.1312668E+00
        -11   -1    0    0    0    0  0.00000000000E+00  0.00000000000E+00  0.45593999997E+02  0.45594000000E+02  0.51100000000E-03 0. -1.
         11   -1    0    0    0    0 -0.00000000000E+00 -0.00000000000E+00 -0.45593999997E+02  0.45594000000E+02  0.51100000000E-03 0.  1.
    9900012    2    1    2    0    0 -0.36267941466E+02 -0.10343968535E+02  0.21477005227E+02  0.47787274006E+02  0.20000013504E+02 0.  0.
        -12    1    1    2    0    0  0.36267941466E+02  0.10343968535E+02 -0.21477005227E+02  0.43400725994E+02  0.00000000000E+00 0.  1.
         11    1    3    3    0    0 -0.13073536481E+02 -0.10525837429E+01  0.15212882481E+02  0.20086241119E+02  0.51100000000E-03 0. -1.
        -11    1    3    3    0    0 -0.21380082711E+02 -0.80308570400E+01  0.86753036923E+01  0.24430789916E+02  0.51100000000E-03 0.  1.
         12    1    3    3    0    0 -0.18143222745E+01 -0.12605277524E+01 -0.24111809462E+01  0.32702429705E+01  0.00000000000E+00 0. -1.
</event>
<event>
 7    1  0.2714068E-010  0.4778728E+02  0.7816164E-02  0.1312668E+00
        -11   -1    0    0    0    0  0.00000000000E+00  0.00000000000E+00  0.45593999997E+02  0.45594000000E+02  0.51100000000E-03 0.  1.
         11   -1    0    0    0    0 -0.00000000000E+00 -0.00000000000E+00 -0.45593999997E+02  0.45594000000E+02  0.51100000000E-03 0. -1.
    9900012    2    1    2    0    0 -0.33289006719E+02  0.25006042724E+02  0.12254086016E+02  0.47787276905E+02  0.20000026721E+02 0.  0.
        -12    1    1    2    0    0  0.33289006719E+02 -0.25006042724E+02 -0.12254086016E+02  0.43400723095E+02  0.00000000000E+00 0.  1.
         11    1    3    3    0    0 -0.20565187781E+02  0.41136512057E+01  0.55192026711E+01  0.21686647345E+02  0.51100000000E-03 0.  1.
        -11    1    3    3    0    0 -0.28554333298E+00  0.48246397729E+01  0.57057112273E+00  0.48666452100E+01  0.51100000000E-03 0. -1.
         12    1    3    3    0    0 -0.12438275606E+02  0.16067751745E+02  0.61643122227E+01  0.21233984350E+02  0.00000000000E+00 0. -1.
</event>
<event>
 7    1  0.2714068E-010  0.4778727E+02  0.7816164E-02  0.1312668E+00
        -11   -1    0    0    0    0  0.00000000000E+00  0.00000000000E+00  0.45593999997E+02  0.45594000000E+02  0.51100000000E-03 0.  1.
         11   -1    0    0    0    0 -0.00000000000E+00 -0.00000000000E+00 -0.45593999997E+02  0.45594000000E+02  0.51100000000E-03 0. -1.
    9900012    2    1    2    0    0  0.34796524987E+02  0.16857791559E+02 -0.19713958819E+02  0.47787268903E+02  0.19999990236E+02 0.  0.
        -12    1    1    2    0    0 -0.34796524987E+02 -0.16857791559E+02  0.19713958819E+02  0.43400731097E+02  0.00000000000E+00 0.  1.
         11    1    3    3    0    0 -0.15845079439E+01  0.61403027580E+00 -0.26451854055E+01  0.31439950214E+01  0.51100000000E-03 0. -1.
        -11    1    3    3    0    0  0.26933396399E+01 -0.15657942978E+01 -0.17540589984E+01  0.35752641063E+01  0.51100000000E-03 0.  1.
         12    1    3    3    0    0  0.33687693291E+02  0.17809555581E+02 -0.15314714415E+02  0.41068009775E+02  0.00000000000E+00 0. -1.
</event>
<event>
 7    1  0.2714068E-010  0.4778727E+02  0.7816164E-02  0.1312668E+00
        -11   -1    0    0    0    0  0.00000000000E+00  0.00000000000E+00  0.45593999997E+02  0.45594000000E+02  0.51100000000E-03 0.  1.
         11   -1    0    0    0    0 -0.00000000000E+00 -0.00000000000E+00 -0.45593999997E+02  0.45594000000E+02  0.51100000000E-03 0. -1.
    9900012    2    1    2    0    0 -0.31943838814E+02  0.25486501955E+02 -0.14616873979E+02  0.47787266999E+02  0.19999981557E+02 0.  0.
        -12    1    1    2    0    0  0.31943838814E+02 -0.25486501955E+02  0.14616873979E+02  0.43400733001E+02  0.00000000000E+00 0.  1.
         11    1    3    3    0    0 -0.74217288096E+01  0.20514462165E+01  0.21084433892E+01  0.79834844454E+01  0.51100000000E-03 0. -1.
        -11    1    3    3    0    0 -0.12093010145E+02  0.19628119884E+02 -0.11840623241E+02  0.25917259569E+02  0.51100000000E-03 0.  1.
        -12    1    3    3    0    0 -0.12429099859E+02  0.38069358545E+01 -0.48846941268E+01  0.13886522985E+02  0.00000000000E+00 0.  1.
</event>
<event>
 7    1  0.2714068E-010  0.4778727E+02  0.7816164E-02  0.1312668E+00
        -11   -1    0    0    0    0  0.00000000000E+00  0.00000000000E+00  0.45593999997E+02  0.45594000000E+02  0.51100000000E-03 0.  1.
         11   -1    0    0    0    0 -0.00000000000E+00 -0.00000000000E+00 -0.45593999997E+02  0.45594000000E+02  0.51100000000E-03 0. -1.
    9900012    2    1    2    0    0  0.14123948117E+02 -0.40238072909E+02 -0.80644361874E+01  0.47787267831E+02  0.19999985347E+02 0.  0.
        -12    1    1    2    0    0 -0.14123948117E+02  0.40238072909E+02  0.80644361874E+01  0.43400732169E+02  0.00000000000E+00 0.  1.
         11    1    3    3    0    0  0.22105603241E+01  0.13510100499E+00  0.83590100332E+00  0.23671839760E+01  0.51100000000E-03 0. -1.
        -11    1    3    3    0    0  0.14600282169E+01 -0.22486092350E+02 -0.10044685667E+02  0.24670868286E+02  0.51100000000E-03 0.  1.
        -12    1    3    3    0    0  0.10453359576E+02 -0.17887081564E+02  0.11443484760E+01  0.20749215569E+02  0.00000000000E+00 0.  1.
</event>
<event>
 7    1  0.2714068E-010  0.4778728E+02  0.7816164E-02  0.1312668E+00
        -11   -1    0    0    0    0  0.00000000000E+00  0.00000000000E+00  0.45593999997E+02  0.45594000000E+02  0.51100000000E-03 0.  1.
         11   -1    0    0    0    0 -0.00000000000E+00 -0.00000000000E+00 -0.45593999997E+02  0.45594000000E+02  0.51100000000E-03 0. -1.
    9900012    2    1    2    0    0  0.18153162100E+00  0.42100641619E+02 -0.10541590953E+02  0.47787284357E+02  0.20000060698E+02 0.  0.
        -12    1    1    2    0    0 -0.18153162100E+00 -0.42100641619E+02  0.10541590953E+02  0.43400715643E+02  0.00000000000E+00 0.  1.
         11    1    3    3    0    0 -0.18435614189E+01  0.11133725023E+02 -0.80597983988E+01  0.13867909074E+02  0.51100000000E-03 0. -1.
        -11    1    3    3    0    0 -0.28614708223E+01  0.24127708640E+02  0.20264572023E+01  0.24381158064E+02  0.51100000000E-03 0.  1.
        -12    1    3    3    0    0  0.48865638622E+01  0.68392079558E+01 -0.45082497569E+01  0.95382172188E+01  0.00000000000E+00 0.  1.
</event>
<event>
 7    1  0.2714068E-010  0.4778727E+02  0.7816164E-02  0.1312668E+00
        -11   -1    0    0    0    0  0.00000000000E+00  0.00000000000E+00  0.45593999997E+02  0.45594000000E+02  0.51100000000E-03 0. -1.
         11   -1    0    0    0    0 -0.00000000000E+00 -0.00000000000E+00 -0.45593999997E+02  0.45594000000E+02  0.51100000000E-03 0.  1.
    9900012    2    1    2    0    0 -0.12062477383E+02  0.40159518706E+02 -0.11195208240E+02  0.47787274305E+02  0.20000014866E+02 0.  0.
        -12    1    1    2    0    0  0.12062477383E+02 -0.40159518706E+02  0.11195208240E+02  0.43400725695E+02  0.00000000000E+00 0.  1.
         11    1    3    3    0    0 -0.15498216596E+01  0.30775860237E+02 -0.78121261633E+01  0.31789697010E+02  0.51100000000E-03 0. -1.
        -11    1    3    3    0    0 -0.85419874294E+01  0.54138381940E+01 -0.49976686175E+01  0.11280597728E+02  0.51100000000E-03 0.  1.
        -12    1    3    3    0    0 -0.19706682942E+01  0.39698202749E+01  0.16145865407E+01  0.47169795673E+01  0.00000000000E+00 0.  1.
</event>
<event>
 7    1  0.2714068E-010  0.4778728E+02  0.7816164E-02  0.1312668E+00
        -11   -1    0    0    0    0  0.00000000000E+00  0.00000000000E+00  0.45593999997E+02  0.45594000000E+02  0.51100000000E-03 0. -1.
         11   -1    0    0    0    0 -0.00000000000E+00 -0.00000000000E+00 -0.45593999997E+02  0.45594000000E+02  0.51100000000E-03 0.  1.
    9900012    2    1    2    0    0  0.32571288603E+01 -0.22875653328E+02  0.36738508380E+02  0.47787281093E+02  0.20000045818E+02 0.  0.
        -12    1    1    2    0    0 -0.32571288603E+01  0.22875653328E+02 -0.36738508380E+02  0.43400718907E+02  0.00000000000E+00 0.  1.
         11    1    3    3    0    0  0.10513230377E+01 -0.19418945678E+02  0.36497902854E+02  0.41355744999E+02  0.51100000000E-03 0. -1.
        -11    1    3    3    0    0  0.33707004619E+01 -0.32819401807E+01  0.12637176605E+01  0.48713176390E+01  0.51100000000E-03 0.  1.
         12    1    3    3    0    0 -0.11648946394E+01 -0.17476746972E+00 -0.10231121348E+01  0.15602184557E+01  0.00000000000E+00 0. -1.
</event>
<event>
 7    1  0.2714068E-010  0.4778727E+02  0.7816164E-02  0.1312668E+00
        -11   -1    0    0    0    0  0.00000000000E+00  0.00000000000E+00  0.45593999997E+02  0.45594000000E+02  0.51100000000E-03 0.  1.
         11   -1    0    0    0    0 -0.00000000000E+00 -0.00000000000E+00 -0.45593999997E+02  0.45594000000E+02  0.51100000000E-03 0. -1.
    9900012    2    1    2    0    0  0.19034062696E+01 -0.24637223176E+02 -0.35679231761E+02  0.47787270740E+02  0.19999998611E+02 0.  0.
        -12    1    1    2    0    0 -0.19034062696E+01  0.24637223176E+02  0.35679231761E+02  0.43400729260E+02  0.00000000000E+00 0.  1.
         11    1    3    3    0    0  0.28558696023E+01 -0.19356645580E+02 -0.26020055131E+02  0.32555782722E+02  0.51100000000E-03 0. -1.
        -11    1    3    3    0    0  0.67622206232E+00 -0.27447571287E+01  0.18208126811E+01  0.33624882236E+01  0.51100000000E-03 0.  1.
        -12    1    3    3    0    0 -0.16286853951E+01 -0.25358204675E+01 -0.11479989310E+02  0.11868999795E+02  0.00000000000E+00 0.  1.
</event>
<event>
 7    1  0.2714068E-010  0.4778727E+02  0.7816164E-02  0.1312668E+00
        -11   -1    0    0    0    0  0.00000000000E+00  0.00000000000E+00  0.45593999997E+02  0.45594000000E+02  0.51100000000E-03 0. -1.
         11   -1    0    0    0    0 -0.00000000000E+00 -0.00000000000E+00 -0.45593999997E+02  0.45594000000E+02  0.51100000000E-03 0.  1.
    9900012    2    1    2    0    0 -0.58908375741E+01  0.34440238192E+02  0.25744729259E+02  0.47787273524E+02  0.20000011303E+02 0.  0.
        -12    1    1    2    0    0  0.58908375741E+01 -0.34440238192E+02 -0.25744729259E+02  0.43400726476E+02  0.00000000000E+00 0.  1.
         11    1    3    3    0    0 -0.66863097701E+01  0.13461486897E+02  0.17944854948E+02  0.23408036808E+02  0.51100000000E-03 0. -1.
        -11    1    3    3    0    0  0.32056807238E+01  0.16203874121E+02  0.22482830697E+01  0.16670234025E+02  0.51100000000E-03 0.  1.
        -12    1    3    3    0    0 -0.24102085278E+01  0.47748771745E+01  0.55515912411E+01  0.77090026908E+01  0.00000000000E+00 0.  1.
</event>
<event>
 7    1  0.2714068E-010  0.4778727E+02  0.7816164E-02  0.1312668E+00
        -11   -1    0    0    0    0  0.00000000000E+00  0.00000000000E+00  0.45593999997E+02  0.45594000000E+02  0.51100000000E-03 0. -1.
         11   -1    0    0    0    0 -0.00000000000E+00 -0.00000000000E+00 -0.45593999997E+02  0.45594000000E+02  0.51100000000E-03 0.  1.
    9900012    2    1    2    0    0 -0.24684091218E+02 -0.64498331450E+01  0.35110092550E+02  0.47787270677E+02  0.19999998326E+02 0.  0.
        -12    1    1    2    0    0  0.24684091218E+02  0.64498331450E+01 -0.35110092550E+02  0.43400729323E+02  0.00000000000E+00 0.  1.
         11    1    3    3    0    0 -0.23113276430E+02  0.23783160069E+00  0.24364652732E+02  0.33584466859E+02  0.51100000000E-03 0. -1.
        -11    1    3    3    0    0  0.12286554943E+00 -0.45537526479E+01  0.18798129454E+01  0.49280276066E+01  0.51100000000E-03 0.  1.
        -12    1    3    3    0    0 -0.16936803378E+01 -0.21339120978E+01  0.88656268726E+01  0.92747762114E+01  0.00000000000E+00 0.  1.
</event>
<event>
 7    1  0.2714068E-010  0.4778727E+02  0.7816164E-02  0.1312668E+00
        -11   -1    0    0    0    0  0.00000000000E+00  0.00000000000E+00  0.45593999997E+02  0.45594000000E+02  0.51100000000E-03 0.  1.
         11   -1    0    0    0    0 -0.00000000000E+00 -0.00000000000E+00 -0.45593999997E+02  0.45594000000E+02  0.51100000000E-03 0. -1.
    9900012    2    1    2    0    0  0.73497213178E+01 -0.20638148732E+02 -0.37465602287E+02  0.47787274877E+02  0.20000017474E+02 0.  0.
        -12    1    1    2    0    0 -0.73497213178E+01  0.20638148732E+02  0.37465602287E+02  0.43400725123E+02  0.00000000000E+00 0.  1.
         11    1    3    3    0    0 -0.32677252583E+01  0.16310853391E+01 -0.36906882858E+01  0.51922681009E+01  0.51100000000E-03 0.  1.
        -11    1    3    3    0    0  0.78269682210E+01 -0.19378778756E+02 -0.31958906917E+02  0.38185995197E+02  0.51100000000E-03 0. -1.
        -12    1    3    3    0    0  0.27904783551E+01 -0.28904553145E+01 -0.18160070840E+01  0.44090115791E+01  0.00000000000E+00 0.  1.
</event>
<event>
 7    1  0.2714068E-010  0.4778725E+02  0.7816164E-02  0.1312668E+00
        -11   -1    0    0    0    0  0.00000000000E+00  0.00000000000E+00  0.45593999997E+02  0.45594000000E+02  0.51100000000E-03 0. -1.
         11   -1    0    0    0    0 -0.00000000000E+00 -0.00000000000E+00 -0.45593999997E+02  0.45594000000E+02  0.51100000000E-03 0.  1.
    9900012    2    1    2    0    0 -0.35088337229E+02  0.22608033206E+02  0.11887415113E+02  0.47787248704E+02  0.19999898142E+02 0.  0.
        -12    1    1    2    0    0  0.35088337229E+02 -0.22608033206E+02 -0.11887415113E+02  0.43400751296E+02  0.00000000000E+00 0.  1.
         11    1    3    3    0    0 -0.28486522787E+02  0.19718061074E+02  0.12232565121E+02  0.36741251513E+02  0.51100000000E-03 0. -1.
        -11    1    3    3    0    0  0.17145115782E+01  0.13988151248E+01 -0.12621894662E+01  0.25474214836E+01  0.51100000000E-03 0.  1.
        -12    1    3    3    0    0 -0.83163260203E+01  0.14911570077E+01  0.91703945799E+00  0.84985757080E+01  0.00000000000E+00 0.  1.
</event>
<event>
 7    1  0.2714068E-010  0.4778727E+02  0.7816164E-02  0.1312668E+00
        -11   -1    0    0    0    0  0.00000000000E+00  0.00000000000E+00  0.45593999997E+02  0.45594000000E+02  0.51100000000E-03 0. -1.
         11   -1    0    0    0    0 -0.00000000000E+00 -0.00000000000E+00 -0.45593999997E+02  0.45594000000E+02  0.51100000000E-03 0.  1.
    9900012    2    1    2    0    0 -0.52983282574E+01  0.40784586002E+02  0.13862478924E+02  0.47787273513E+02  0.20000011256E+02 0.  0.
        -12    1    1    2    0    0  0.52983282574E+01 -0.40784586002E+02 -0.13862478924E+02  0.43400726487E+02  0.00000000000E+00 0.  1.
         11    1    3    3    0    0  0.43158345304E+01  0.25917962447E+02  0.73018345962E+01  0.27270570105E+02  0.51100000000E-03 0. -1.
        -11    1    3    3    0    0 -0.88376593603E+01  0.15072788252E+02  0.41263672649E+01  0.17953274791E+02  0.51100000000E-03 0.  1.
        -12    1    3    3    0    0 -0.77650342748E+00 -0.20616469766E+00  0.24342770629E+01  0.25634286170E+01  0.00000000000E+00 0.  1.
</event>
<event>
 7    1  0.2714068E-010  0.4778729E+02  0.7816164E-02  0.1312668E+00
        -11   -1    0    0    0    0  0.00000000000E+00  0.00000000000E+00  0.45593999997E+02  0.45594000000E+02  0.51100000000E-03 0. -1.
         11   -1    0    0    0    0 -0.00000000000E+00 -0.00000000000E+00 -0.45593999997E+02  0.45594000000E+02  0.51100000000E-03 0.  1.
    9900012    2    1    2    0    0  0.14196373481E+02 -0.38636189268E+02  0.13759716487E+02  0.47787286423E+02  0.20000070119E+02 0.  0.
        -12    1    1    2    0    0 -0.14196373481E+02  0.38636189268E+02 -0.13759716487E+02  0.43400713577E+02  0.00000000000E+00 0.  1.
         11    1    3    3    0    0  0.79076143299E+01 -0.33253176599E+02  0.15707674330E+02  0.37616952979E+02  0.51100000000E-03 0. -1.
        -11    1    3    3    0    0  0.64211481231E+01 -0.63354292851E+01 -0.17588906080E+01  0.91903484090E+01  0.51100000000E-03 0.  1.
         12    1    3    3    0    0 -0.13238897209E+00  0.95241661606E+00 -0.18906723516E+00  0.97998503554E+00  0.00000000000E+00 0. -1.
</event>
<event>
 7    1  0.2714068E-010  0.4778727E+02  0.7816164E-02  0.1312668E+00
        -11   -1    0    0    0    0  0.00000000000E+00  0.00000000000E+00  0.45593999997E+02  0.45594000000E+02  0.51100000000E-03 0. -1.
         11   -1    0    0    0    0 -0.00000000000E+00 -0.00000000000E+00 -0.45593999997E+02  0.45594000000E+02  0.51100000000E-03 0.  1.
    9900012    2    1    2    0    0  0.28498533579E+02  0.26938361697E+02  0.18595198210E+02  0.47787272546E+02  0.20000006846E+02 0.  0.
        -12    1    1    2    0    0 -0.28498533579E+02 -0.26938361697E+02 -0.18595198210E+02  0.43400727454E+02  0.00000000000E+00 0.  1.
         11    1    3    3    0    0  0.11337528281E+02  0.16226170602E+02  0.56470410376E+01  0.20584392939E+02  0.51100000000E-03 0. -1.
        -11    1    3    3    0    0  0.95037380347E+01  0.76335041013E+01  0.14353361697E+02  0.18831102298E+02  0.51100000000E-03 0.  1.
        -12    1    3    3    0    0  0.76572672634E+01  0.30786869939E+01 -0.14052045245E+01  0.83717773087E+01  0.00000000000E+00 0.  1.
</event>
<event>
 7    1  0.2714068E-010  0.4778727E+02  0.7816164E-02  0.1312668E+00
        -11   -1    0    0    0    0  0.00000000000E+00  0.00000000000E+00  0.45593999997E+02  0.45594000000E+02  0.51100000000E-03 0.  1.
         11   -1    0    0    0    0 -0.00000000000E+00 -0.00000000000E+00 -0.45593999997E+02  0.45594000000E+02  0.51100000000E-03 0. -1.
    9900012    2    1    2    0    0 -0.38288874414E+01 -0.41578849005E+02 -0.11839028012E+02  0.47787266736E+02  0.19999980354E+02 0.  0.
        -12    1    1    2    0    0  0.38288874414E+01  0.41578849005E+02  0.11839028012E+02  0.43400733264E+02  0.00000000000E+00 0.  1.
         11    1    3    3    0    0 -0.20120057418E+00 -0.21189565983E+02 -0.13202062359E+02  0.24966630510E+02  0.51100000000E-03 0. -1.
        -11    1    3    3    0    0  0.14175096537E+00 -0.18563130562E+02  0.15476528833E+01  0.18628073956E+02  0.51100000000E-03 0.  1.
        -12    1    3    3    0    0 -0.37694378326E+01 -0.18261524601E+01 -0.18461853619E+00  0.41925622697E+01  0.00000000000E+00 0.  1.
</event>
<event>
 7    1  0.2714068E-010  0.4778727E+02  0.7816164E-02  0.1312668E+00
        -11   -1    0    0    0    0  0.00000000000E+00  0.00000000000E+00  0.45593999997E+02  0.45594000000E+02  0.51100000000E-03 0.  1.
         11   -1    0    0    0    0 -0.00000000000E+00 -0.00000000000E+00 -0.45593999997E+02  0.45594000000E+02  0.51100000000E-03 0. -1.
    9900012    2    1    2    0    0  0.25226800075E+01  0.40939443928E+02 -0.14185255115E+02  0.47787269059E+02  0.19999990946E+02 0.  0.
        -12    1    1    2    0    0 -0.25226800075E+01 -0.40939443928E+02  0.14185255115E+02  0.43400730941E+02  0.00000000000E+00 0.  1.
         11    1    3    3    0    0 -0.58001406627E+01  0.24117686312E+02 -0.14508195342E+02  0.28736599609E+02  0.51100000000E-03 0. -1.
        -11    1    3    3    0    0  0.67148872646E+01  0.10051778286E+02  0.31142018056E+00  0.12092350494E+02  0.51100000000E-03 0.  1.
         12    1    3    3    0    0  0.16079334057E+01  0.67699793302E+01  0.11520047189E-01  0.69583189550E+01  0.00000000000E+00 0. -1.
</event>
<event>
 7    1  0.2714068E-010  0.4778727E+02  0.7816164E-02  0.1312668E+00
        -11   -1    0    0    0    0  0.00000000000E+00  0.00000000000E+00  0.45593999997E+02  0.45594000000E+02  0.51100000000E-03 0.  1.
         11   -1    0    0    0    0 -0.00000000000E+00 -0.00000000000E+00 -0.45593999997E+02  0.45594000000E+02  0.51100000000E-03 0. -1.
    9900012    2    1    2    0    0 -0.31229338351E+02 -0.30068090080E+02 -0.20643881825E+01  0.47787270588E+02  0.19999997918E+02 0.  0.
        -12    1    1    2    0    0  0.31229338351E+02  0.30068090080E+02  0.20643881825E+01  0.43400729412E+02  0.00000000000E+00 0.  1.
         11    1    3    3    0    0 -0.37250268871E+01 -0.22896797261E+01 -0.34187453206E+01  0.55503403847E+01  0.51100000000E-03 0. -1.
        -11    1    3    3    0    0  0.15129922147E+01 -0.13423324938E+01  0.21807209152E+01  0.29743143641E+01  0.51100000000E-03 0.  1.
        -12    1    3    3    0    0 -0.29017303679E+02 -0.26436077861E+02 -0.82636377706E+00  0.39262615839E+02  0.00000000000E+00 0.  1.
</event>
<event>
 7    1  0.2714068E-010  0.4778727E+02  0.7816164E-02  0.1312668E+00
        -11   -1    0    0    0    0  0.00000000000E+00  0.00000000000E+00  0.45593999997E+02  0.45594000000E+02  0.51100000000E-03 0.  1.
         11   -1    0    0    0    0 -0.00000000000E+00 -0.00000000000E+00 -0.45593999997E+02  0.45594000000E+02  0.51100000000E-03 0. -1.
    9900012    2    1    2    0    0 -0.31789027285E+02 -0.23451056063E+02 -0.17975787845E+02  0.47787271494E+02  0.20000002051E+02 0.  0.
        -12    1    1    2    0    0  0.31789027285E+02  0.23451056063E+02  0.17975787845E+02  0.43400728506E+02  0.00000000000E+00 0.  1.
         11    1    3    3    0    0 -0.28304750968E+02 -0.24569601613E+02 -0.10784640699E+02  0.39001701579E+02  0.51100000000E-03 0. -1.
        -11    1    3    3    0    0 -0.26785838214E+00 -0.58919575539E+00 -0.36469300638E+01  0.37039166975E+01  0.51100000000E-03 0.  1.
         12    1    3    3    0    0 -0.32164179348E+01  0.17077413058E+01 -0.35442170827E+01  0.50816532180E+01  0.00000000000E+00 0. -1.
</event>
<event>
 7    1  0.2714068E-010  0.4778727E+02  0.7816164E-02  0.1312668E+00
        -11   -1    0    0    0    0  0.00000000000E+00  0.00000000000E+00  0.45593999997E+02  0.45594000000E+02  0.51100000000E-03 0. -1.
         11   -1    0    0    0    0 -0.00000000000E+00 -0.00000000000E+00 -0.45593999997E+02  0.45594000000E+02  0.51100000000E-03 0.  1.
    9900012    2    1    2    0    0 -0.33909327752E+01 -0.18157974370E+02  0.39273562735E+02  0.47787272032E+02  0.20000004501E+02 0.  0.
        -12    1    1    2    0    0  0.33909327752E+01  0.18157974370E+02 -0.39273562735E+02  0.43400727968E+02  0.00000000000E+00 0.  1.
         11    1    3    3    0    0 -0.47806092932E+01 -0.17244065425E+02  0.15353356577E+02  0.23578328525E+02  0.51100000000E-03 0.  1.
        -11    1    3    3    0    0  0.12180512559E+01 -0.21036511739E+01  0.18364573876E+02  0.18524755626E+02  0.51100000000E-03 0. -1.
        -12    1    3    3    0    0  0.17162526209E+00  0.11897422287E+01  0.55556322824E+01  0.56841878803E+01  0.00000000000E+00 0.  1.
</event>
<event>
 7    1  0.2714068E-010  0.4778728E+02  0.7816164E-02  0.1312668E+00
        -11   -1    0    0    0    0  0.00000000000E+00  0.00000000000E+00  0.45593999997E+02  0.45594000000E+02  0.51100000000E-03 0.  1.
         11   -1    0    0    0    0 -0.00000000000E+00 -0.00000000000E+00 -0.45593999997E+02  0.45594000000E+02  0.51100000000E-03 0. -1.
    9900012    2    1    2    0    0 -0.11360174476E+02  0.36388571137E+02 -0.20747070776E+02  0.47787278585E+02  0.20000034382E+02 0.  0.
        -12    1    1    2    0    0  0.11360174476E+02 -0.36388571137E+02  0.20747070776E+02  0.43400721415E+02  0.00000000000E+00 0.  1.
         11    1    3    3    0    0 -0.32099472550E+01  0.62914041243E+01 -0.23198929760E+01  0.74342068115E+01  0.51100000000E-03 0. -1.
        -11    1    3    3    0    0  0.10303079926E+01  0.11767138961E+02  0.13236866087E+01  0.11886094412E+02  0.51100000000E-03 0.  1.
        -12    1    3    3    0    0 -0.91805352135E+01  0.18330028052E+02 -0.19750864409E+02  0.28466977362E+02  0.00000000000E+00 0.  1.
</event>
<event>
 7    1  0.2714068E-010  0.4778727E+02  0.7816164E-02  0.1312668E+00
        -11   -1    0    0    0    0  0.00000000000E+00  0.00000000000E+00  0.45593999997E+02  0.45594000000E+02  0.51100000000E-03 0.  1.
         11   -1    0    0    0    0 -0.00000000000E+00 -0.00000000000E+00 -0.45593999997E+02  0.45594000000E+02  0.51100000000E-03 0. -1.
    9900012    2    1    2    0    0 -0.17068337345E+02  0.31791843150E+01 -0.39776726940E+02  0.47787270067E+02  0.19999995544E+02 0.  0.
        -12    1    1    2    0    0  0.17068337345E+02 -0.31791843150E+01  0.39776726940E+02  0.43400729933E+02  0.00000000000E+00 0.  1.
         11    1    3    3    0    0  0.28244816178E+01  0.79388401373E+00 -0.82778483580E+01  0.87824098023E+01  0.51100000000E-03 0. -1.
        -11    1    3    3    0    0 -0.19211844537E+02  0.25001725169E+00 -0.31336467074E+02  0.36757742696E+02  0.51100000000E-03 0.  1.
         12    1    3    3    0    0 -0.68097442528E+00  0.21352830496E+01 -0.16241150794E+00  0.22471175687E+01  0.00000000000E+00 0. -1.
</event>
<event>
 7    1  0.2714068E-010  0.4778727E+02  0.7816164E-02  0.1312668E+00
        -11   -1    0    0    0    0  0.00000000000E+00  0.00000000000E+00  0.45593999997E+02  0.45594000000E+02  0.51100000000E-03 0.  1.
         11   -1    0    0    0    0 -0.00000000000E+00 -0.00000000000E+00 -0.45593999997E+02  0.45594000000E+02  0.51100000000E-03 0. -1.
    9900012    2    1    2    0    0  0.27294062138E+02  0.13191247099E+00 -0.33743736517E+02  0.47787274396E+02  0.20000015279E+02 0.  0.
        -12    1    1    2    0    0 -0.27294062138E+02 -0.13191247099E+00  0.33743736517E+02  0.43400725604E+02  0.00000000000E+00 0.  1.
         11    1    3    3    0    0  0.25261728083E+02 -0.14329152556E+01 -0.17701498119E+02  0.30879624152E+02  0.51100000000E-03 0. -1.
        -11    1    3    3    0    0  0.92630544918E+00 -0.15196245149E+01 -0.85007525365E+01  0.86850500516E+01  0.51100000000E-03 0.  1.
         12    1    3    3    0    0  0.11060286051E+01  0.30844522415E+01 -0.75414858620E+01  0.82226001917E+01  0.00000000000E+00 0. -1.
</event>
<event>
 7    1  0.2714068E-010  0.4778727E+02  0.7816164E-02  0.1312668E+00
        -11   -1    0    0    0    0  0.00000000000E+00  0.00000000000E+00  0.45593999997E+02  0.45594000000E+02  0.51100000000E-03 0.  1.
         11   -1    0    0    0    0 -0.00000000000E+00 -0.00000000000E+00 -0.45593999997E+02  0.45594000000E+02  0.51100000000E-03 0. -1.
    9900012    2    1    2    0    0  0.38254900381E+02 -0.18772563172E+02 -0.82326731636E+01  0.47787269146E+02  0.19999991343E+02 0.  0.
        -12    1    1    2    0    0 -0.38254900381E+02  0.18772563172E+02  0.82326731636E+01  0.43400730854E+02  0.00000000000E+00 0.  1.
         11    1    3    3    0    0  0.20918855387E+02 -0.80607080080E+01  0.33435599135E+01  0.22666118270E+02  0.51100000000E-03 0. -1.
        -11    1    3    3    0    0  0.47717249291E+01  0.12335955742E+01 -0.31101289048E+01  0.58278657247E+01  0.51100000000E-03 0.  1.
         12    1    3    3    0    0  0.12564320066E+02 -0.11945450739E+02 -0.84661041723E+01  0.19293285151E+02  0.00000000000E+00 0. -1.
</event>
<event>
 7    1  0.2714068E-010  0.4778730E+02  0.7816164E-02  0.1312668E+00
        -11   -1    0    0    0    0  0.00000000000E+00  0.00000000000E+00  0.45593999997E+02  0.45594000000E+02  0.51100000000E-03 0. -1.
         11   -1    0    0    0    0 -0.00000000000E+00 -0.00000000000E+00 -0.45593999997E+02  0.45594000000E+02  0.51100000000E-03 0.  1.
    9900012    2    1    2    0    0  0.69163756055E+01 -0.42842484029E+02  0.55335399339E+00  0.47787298509E+02  0.20000125222E+02 0.  0.
        -12    1    1    2    0    0 -0.69163756055E+01  0.42842484029E+02 -0.55335399339E+00  0.43400701491E+02  0.00000000000E+00 0.  1.
         11    1    3    3    0    0  0.40179338792E+01 -0.20276461046E+02  0.85580266548E+01  0.22372270463E+02  0.51100000000E-03 0. -1.
        -11    1    3    3    0    0 -0.14631103359E+01 -0.24766660139E+01  0.89694220284E+00  0.30131498429E+01  0.51100000000E-03 0.  1.
         12    1    3    3    0    0  0.43615520622E+01 -0.20089356969E+02 -0.89016148643E+01  0.22401878203E+02  0.00000000000E+00 0. -1.
</event>
<event>
 7    1  0.2714068E-010  0.4778728E+02  0.7816164E-02  0.1312668E+00
        -11   -1    0    0    0    0  0.00000000000E+00  0.00000000000E+00  0.45593999997E+02  0.45594000000E+02  0.51100000000E-03 0. -1.
         11   -1    0    0    0    0 -0.00000000000E+00 -0.00000000000E+00 -0.45593999997E+02  0.45594000000E+02  0.51100000000E-03 0.  1.
    9900012    2    1    2    0    0  0.25859972592E+02  0.31487600259E+02  0.14947085307E+02  0.47787279825E+02  0.20000040036E+02 0.  0.
        -12    1    1    2    0    0 -0.25859972592E+02 -0.31487600259E+02 -0.14947085307E+02  0.43400720175E+02  0.00000000000E+00 0.  1.
         11    1    3    3    0    0  0.19308648402E+02  0.17358013374E+02  0.15310361610E+02  0.30141859669E+02  0.51100000000E-03 0. -1.
        -11    1    3    3    0    0 -0.13308681798E+01  0.44987611650E+01 -0.19867515930E+01  0.50948252458E+01  0.51100000000E-03 0.  1.
         12    1    3    3    0    0  0.78821923693E+01  0.96308257200E+01  0.16234752901E+01  0.12550594911E+02  0.00000000000E+00 0. -1.
</event>
<event>
 7    1  0.2714068E-010  0.4778726E+02  0.7816164E-02  0.1312668E+00
        -11   -1    0    0    0    0  0.00000000000E+00  0.00000000000E+00  0.45593999997E+02  0.45594000000E+02  0.51100000000E-03 0. -1.
         11   -1    0    0    0    0 -0.00000000000E+00 -0.00000000000E+00 -0.45593999997E+02  0.45594000000E+02  0.51100000000E-03 0.  1.
    9900012    2    1    2    0    0 -0.18187049648E+02 -0.37542801398E+02  0.11974696453E+02  0.47787261909E+02  0.19999958347E+02 0.  0.
        -12    1    1    2    0    0  0.18187049648E+02  0.37542801398E+02 -0.11974696453E+02  0.43400738091E+02  0.00000000000E+00 0.  1.
         11    1    3    3    0    0 -0.18610289283E+02 -0.22785006070E+02  0.80630462418E+01  0.30504296153E+02  0.51100000000E-03 0. -1.
        -11    1    3    3    0    0  0.20371449757E+01 -0.11949974331E+02 -0.10561927201E+00  0.12122829779E+02  0.51100000000E-03 0.  1.
         12    1    3    3    0    0 -0.16139053413E+01 -0.28078209967E+01  0.40172694830E+01  0.51601359768E+01  0.00000000000E+00 0. -1.
</event>
<event>
 7    1  0.2714068E-010  0.4778727E+02  0.7816164E-02  0.1312668E+00
        -11   -1    0    0    0    0  0.00000000000E+00  0.00000000000E+00  0.45593999997E+02  0.45594000000E+02  0.51100000000E-03 0.  1.
         11   -1    0    0    0    0 -0.00000000000E+00 -0.00000000000E+00 -0.45593999997E+02  0.45594000000E+02  0.51100000000E-03 0. -1.
    9900012    2    1    2    0    0 -0.24977446852E+02 -0.14734762722E+02 -0.32289896736E+02  0.47787268267E+02  0.19999987337E+02 0.  0.
        -12    1    1    2    0    0  0.24977446852E+02  0.14734762722E+02  0.32289896736E+02  0.43400731733E+02  0.00000000000E+00 0.  1.
         11    1    3    3    0    0 -0.75207149679E+01  0.97278882966E-01 -0.85821505221E+01  0.11411569772E+02  0.51100000000E-03 0. -1.
        -11    1    3    3    0    0 -0.58608391539E+01 -0.83725498627E+01 -0.20212811368E+02  0.22649652766E+02  0.51100000000E-03 0.  1.
        -12    1    3    3    0    0 -0.11595892730E+02 -0.64594917422E+01 -0.34949348465E+01  0.13726045729E+02  0.00000000000E+00 0.  1.
</event>
<event>
 7    1  0.2714068E-010  0.4778727E+02  0.7816164E-02  0.1312668E+00
        -11   -1    0    0    0    0  0.00000000000E+00  0.00000000000E+00  0.45593999997E+02  0.45594000000E+02  0.51100000000E-03 0. -1.
         11   -1    0    0    0    0 -0.00000000000E+00 -0.00000000000E+00 -0.45593999997E+02  0.45594000000E+02  0.51100000000E-03 0.  1.
    9900012    2    1    2    0    0 -0.48641714259E+00  0.23696251267E+02  0.36357590448E+02  0.47787270640E+02  0.19999998158E+02 0.  0.
        -12    1    1    2    0    0  0.48641714259E+00 -0.23696251267E+02 -0.36357590448E+02  0.43400729360E+02  0.00000000000E+00 0.  1.
         11    1    3    3    0    0  0.68616070505E+01  0.75012916453E+01  0.60823659199E+01  0.11846780284E+02  0.51100000000E-03 0. -1.
        -11    1    3    3    0    0 -0.79818691673E+01  0.85486763674E+01  0.18309371585E+02  0.21726094705E+02  0.51100000000E-03 0.  1.
        -12    1    3    3    0    0  0.63384497414E+00  0.76462832544E+01  0.11965852943E+02  0.14214395651E+02  0.00000000000E+00 0.  1.
</event>
<event>
 7    1  0.2714068E-010  0.4778726E+02  0.7816164E-02  0.1312668E+00
        -11   -1    0    0    0    0  0.00000000000E+00  0.00000000000E+00  0.45593999997E+02  0.45594000000E+02  0.51100000000E-03 0. -1.
         11   -1    0    0    0    0 -0.00000000000E+00 -0.00000000000E+00 -0.45593999997E+02  0.45594000000E+02  0.51100000000E-03 0.  1.
    9900012    2    1    2    0    0 -0.34629228029E+02 -0.20127366408E+02  0.16713176549E+02  0.47787255965E+02  0.19999931249E+02 0.  0.
        -12    1    1    2    0    0  0.34629228029E+02  0.20127366408E+02 -0.16713176549E+02  0.43400744035E+02  0.00000000000E+00 0.  1.
         11    1    3    3    0    0 -0.15552009787E+02 -0.61453442433E+01 -0.11268285702E+01  0.16760071813E+02  0.51100000000E-03 0. -1.
        -11    1    3    3    0    0 -0.11667105148E+02 -0.11575908477E+02  0.16176028113E+02  0.23060504881E+02  0.51100000000E-03 0.  1.
        -12    1    3    3    0    0 -0.74101130932E+01 -0.24061136885E+01  0.16639770063E+01  0.79666792714E+01  0.00000000000E+00 0.  1.
</event>
<event>
 7    1  0.2714068E-010  0.4778726E+02  0.7816164E-02  0.1312668E+00
        -11   -1    0    0    0    0  0.00000000000E+00  0.00000000000E+00  0.45593999997E+02  0.45594000000E+02  0.51100000000E-03 0. -1.
         11   -1    0    0    0    0 -0.00000000000E+00 -0.00000000000E+00 -0.45593999997E+02  0.45594000000E+02  0.51100000000E-03 0.  1.
    9900012    2    1    2    0    0  0.13557345562E+02  0.27318090329E+02 -0.30879513463E+02  0.47787262338E+02  0.19999960303E+02 0.  0.
        -12    1    1    2    0    0 -0.13557345562E+02 -0.27318090329E+02  0.30879513463E+02  0.43400737662E+02  0.00000000000E+00 0.  1.
         11    1    3    3    0    0  0.10489806984E+02  0.22680715834E+02 -0.16539346741E+02  0.29966663348E+02  0.51100000000E-03 0. -1.
        -11    1    3    3    0    0  0.41086765935E+01 -0.11364187338E+00 -0.11444291840E+02  0.12160014547E+02  0.51100000000E-03 0.  1.
        -12    1    3    3    0    0 -0.10411380153E+01  0.47510163679E+01 -0.28958748824E+01  0.56605844424E+01  0.00000000000E+00 0.  1.
</event>
<event>
 7    1  0.2714068E-010  0.4778728E+02  0.7816164E-02  0.1312668E+00
        -11   -1    0    0    0    0  0.00000000000E+00  0.00000000000E+00  0.45593999997E+02  0.45594000000E+02  0.51100000000E-03 0. -1.
         11   -1    0    0    0    0 -0.00000000000E+00 -0.00000000000E+00 -0.45593999997E+02  0.45594000000E+02  0.51100000000E-03 0.  1.
    9900012    2    1    2    0    0 -0.39334136901E+02 -0.16696604527E+02 -0.75941934159E+01  0.47787277631E+02  0.20000030032E+02 0.  0.
        -12    1    1    2    0    0  0.39334136901E+02  0.16696604527E+02  0.75941934159E+01  0.43400722369E+02  0.00000000000E+00 0.  1.
         11    1    3    3    0    0 -0.16158727695E+02 -0.78695676068E+01 -0.12000982337E+02  0.21611528228E+02  0.51100000000E-03 0. -1.
        -11    1    3    3    0    0 -0.12453933848E+02 -0.22604344478E+01  0.49512756265E+01  0.13591363536E+02  0.51100000000E-03 0.  1.
        -12    1    3    3    0    0 -0.10721475357E+02 -0.65666024726E+01 -0.54448670574E+00  0.12584385867E+02  0.00000000000E+00 0.  1.
</event>
<event>
 7    1  0.2714068E-010  0.4778727E+02  0.7816164E-02  0.1312668E+00
        -11   -1    0    0    0    0  0.00000000000E+00  0.00000000000E+00  0.45593999997E+02  0.45594000000E+02  0.51100000000E-03 0.  1.
         11   -1    0    0    0    0 -0.00000000000E+00 -0.00000000000E+00 -0.45593999997E+02  0.45594000000E+02  0.51100000000E-03 0. -1.
    9900012    2    1    2    0    0  0.35256941781E+02 -0.16175729894E+02 -0.19465788099E+02  0.47787273190E+02  0.20000009782E+02 0.  0.
        -12    1    1    2    0    0 -0.35256941781E+02  0.16175729894E+02  0.19465788099E+02  0.43400726810E+02  0.00000000000E+00 0.  1.
         11    1    3    3    0    0  0.26963109436E+02 -0.19051735266E+02 -0.13630445077E+02  0.35717879561E+02  0.51100000000E-03 0. -1.
        -11    1    3    3    0    0  0.60016056249E+01  0.35935855292E+01 -0.65295908268E+01  0.95691527138E+01  0.51100000000E-03 0.  1.
        -12    1    3    3    0    0  0.22922267202E+01 -0.71758015737E+00  0.69424780466E+00  0.25002409150E+01  0.00000000000E+00 0.  1.
</event>
<event>
 7    1  0.2714068E-010  0.4778727E+02  0.7816164E-02  0.1312668E+00
        -11   -1    0    0    0    0  0.00000000000E+00  0.00000000000E+00  0.45593999997E+02  0.45594000000E+02  0.51100000000E-03 0.  1.
         11   -1    0    0    0    0 -0.00000000000E+00 -0.00000000000E+00 -0.45593999997E+02  0.45594000000E+02  0.51100000000E-03 0. -1.
    9900012    2    1    2    0    0 -0.88091314851E+01 -0.99062981158E+01 -0.41326602255E+02  0.47787267358E+02  0.19999983194E+02 0.  0.
        -12    1    1    2    0    0  0.88091314851E+01  0.99062981158E+01  0.41326602255E+02  0.43400732642E+02  0.00000000000E+00 0.  1.
         11    1    3    3    0    0  0.21549738356E+01  0.16753164076E+01 -0.52183751814E+01  0.58891457014E+01  0.51100000000E-03 0. -1.
        -11    1    3    3    0    0  0.23043431550E+01 -0.39245507007E+01 -0.15906643188E+02  0.16544890249E+02  0.51100000000E-03 0.  1.
        -12    1    3    3    0    0 -0.13268448476E+02 -0.76570638227E+01 -0.20201583885E+02  0.25353231408E+02  0.00000000000E+00 0.  1.
</event>
<event>
 7    1  0.2714068E-010  0.4778727E+02  0.7816164E-02  0.1312668E+00
        -11   -1    0    0    0    0  0.00000000000E+00  0.00000000000E+00  0.45593999997E+02  0.45594000000E+02  0.51100000000E-03 0.  1.
         11   -1    0    0    0    0 -0.00000000000E+00 -0.00000000000E+00 -0.45593999997E+02  0.45594000000E+02  0.51100000000E-03 0. -1.
    9900012    2    1    2    0    0  0.46822851377E+01 -0.16645144614E+02 -0.39807521442E+02  0.47787269630E+02  0.19999993549E+02 0.  0.
        -12    1    1    2    0    0 -0.46822851377E+01  0.16645144614E+02  0.39807521442E+02  0.43400730370E+02  0.00000000000E+00 0.  1.
         11    1    3    3    0    0  0.25067132439E+01 -0.16620273037E+02 -0.22809577000E+02  0.28333617670E+02  0.51100000000E-03 0. -1.
        -11    1    3    3    0    0  0.54406541419E+01  0.40076807706E+00 -0.13901851339E+02  0.14933948020E+02  0.51100000000E-03 0.  1.
        -12    1    3    3    0    0 -0.32650822482E+01 -0.42563965496E+00 -0.30960931030E+01  0.45197039400E+01  0.00000000000E+00 0.  1.
</event>
<event>
 7    1  0.2714068E-010  0.4778726E+02  0.7816164E-02  0.1312668E+00
        -11   -1    0    0    0    0  0.00000000000E+00  0.00000000000E+00  0.45593999997E+02  0.45594000000E+02  0.51100000000E-03 0. -1.
         11   -1    0    0    0    0 -0.00000000000E+00 -0.00000000000E+00 -0.45593999997E+02  0.45594000000E+02  0.51100000000E-03 0.  1.
    9900012    2    1    2    0    0 -0.20718221251E+02 -0.31925817988E+02 -0.20859568587E+02  0.47787260978E+02  0.19999954105E+02 0.  0.
        -12    1    1    2    0    0  0.20718221251E+02  0.31925817988E+02  0.20859568587E+02  0.43400739022E+02  0.00000000000E+00 0.  1.
         11    1    3    3    0    0 -0.13824866503E+02 -0.17738995049E+02 -0.10179232910E+02  0.24686345661E+02  0.51100000000E-03 0. -1.
        -11    1    3    3    0    0 -0.16733714373E+01  0.15335459968E+01 -0.51662353471E+01  0.56428648056E+01  0.51100000000E-03 0.  1.
        -12    1    3    3    0    0 -0.52199833103E+01 -0.15720368936E+02 -0.55141003294E+01  0.17458050512E+02  0.00000000000E+00 0.  1.
</event>
<event>
 7    1  0.2714068E-010  0.4778727E+02  0.7816164E-02  0.1312668E+00
        -11   -1    0    0    0    0  0.00000000000E+00  0.00000000000E+00  0.45593999997E+02  0.45594000000E+02  0.51100000000E-03 0.  1.
         11   -1    0    0    0    0 -0.00000000000E+00 -0.00000000000E+00 -0.45593999997E+02  0.45594000000E+02  0.51100000000E-03 0. -1.
    9900012    2    1    2    0    0 -0.17878507460E+02  0.39515108584E+02  0.15932966139E+01  0.47787269251E+02  0.19999991824E+02 0.  0.
        -12    1    1    2    0    0  0.17878507460E+02 -0.39515108584E+02 -0.15932966139E+01  0.43400730749E+02  0.00000000000E+00 0.  1.
         11    1    3    3    0    0  0.19700915965E+01  0.12498827502E+02 -0.47869471300E+00  0.12662191703E+02  0.51100000000E-03 0.  1.
        -11    1    3    3    0    0 -0.13849164952E+02  0.21818823629E+02  0.55933548781E+01  0.26441370114E+02  0.51100000000E-03 0. -1.
        -12    1    3    3    0    0 -0.59994341046E+01  0.51974574527E+01 -0.35213635513E+01  0.86837074345E+01  0.00000000000E+00 0.  1.
</event>
<event>
 7    1  0.2714068E-010  0.4778725E+02  0.7816164E-02  0.1312668E+00
        -11   -1    0    0    0    0  0.00000000000E+00  0.00000000000E+00  0.45593999997E+02  0.45594000000E+02  0.51100000000E-03 0. -1.
         11   -1    0    0    0    0 -0.00000000000E+00 -0.00000000000E+00 -0.45593999997E+02  0.45594000000E+02  0.51100000000E-03 0.  1.
    9900012    2    1    2    0    0 -0.42070100765E+02  0.10109556664E+02  0.33954401412E+01  0.47787245074E+02  0.19999881592E+02 0.  0.
        -12    1    1    2    0    0  0.42070100765E+02 -0.10109556664E+02 -0.33954401412E+01  0.43400754926E+02  0.00000000000E+00 0.  1.
         11    1    3    3    0    0 -0.16529603364E+02  0.12231085750E+02 -0.18315955447E+00  0.20563579302E+02  0.51100000000E-03 0. -1.
        -11    1    3    3    0    0 -0.10903574977E+02 -0.14805819832E+01 -0.26266667404E+01  0.11312800216E+02  0.51100000000E-03 0.  1.
         12    1    3    3    0    0 -0.14636922424E+02 -0.64094710305E+00  0.62052664361E+01  0.15910865557E+02  0.00000000000E+00 0. -1.
</event>
<event>
 7    1  0.2714068E-010  0.4778727E+02  0.7816164E-02  0.1312668E+00
        -11   -1    0    0    0    0  0.00000000000E+00  0.00000000000E+00  0.45593999997E+02  0.45594000000E+02  0.51100000000E-03 0.  1.
         11   -1    0    0    0    0 -0.00000000000E+00 -0.00000000000E+00 -0.45593999997E+02  0.45594000000E+02  0.51100000000E-03 0. -1.
    9900012    2    1    2    0    0  0.13573887324E+02  0.12232801612E+02 -0.39366630148E+02  0.47787269343E+02  0.19999992241E+02 0.  0.
        -12    1    1    2    0    0 -0.13573887324E+02 -0.12232801612E+02  0.39366630148E+02  0.43400730657E+02  0.00000000000E+00 0.  1.
         11    1    3    3    0    0  0.53918514898E+01  0.85135929496E+01 -0.31277559747E+02  0.32860904908E+02  0.51100000000E-03 0. -1.
        -11    1    3    3    0    0  0.30428632967E+01  0.40741774994E+01  0.28678719045E+00  0.50931509395E+01  0.51100000000E-03 0.  1.
        -12    1    3    3    0    0  0.51391725376E+01 -0.35496883685E+00 -0.83758575916E+01  0.98332134952E+01  0.00000000000E+00 0.  1.
</event>
<event>
 7    1  0.2714068E-010  0.4778727E+02  0.7816164E-02  0.1312668E+00
        -11   -1    0    0    0    0  0.00000000000E+00  0.00000000000E+00  0.45593999997E+02  0.45594000000E+02  0.51100000000E-03 0.  1.
         11   -1    0    0    0    0 -0.00000000000E+00 -0.00000000000E+00 -0.45593999997E+02  0.45594000000E+02  0.51100000000E-03 0. -1.
    9900012    2    1    2    0    0  0.39029335628E+02 -0.17308226594E+02 -0.77948486965E+01  0.47787269435E+02  0.19999992661E+02 0.  0.
        -12    1    1    2    0    0 -0.39029335628E+02  0.17308226594E+02  0.77948486965E+01  0.43400730565E+02  0.00000000000E+00 0.  1.
         11    1    3    3    0    0  0.19705869687E+02 -0.11942435516E+02  0.13849678780E+01  0.23083786571E+02  0.51100000000E-03 0. -1.
        -11    1    3    3    0    0  0.71304550744E+01 -0.38515965105E+01  0.17132677950E+01  0.82833249391E+01  0.51100000000E-03 0.  1.
         12    1    3    3    0    0  0.12193010866E+02 -0.15141945677E+01 -0.10893084370E+02  0.16420157924E+02  0.00000000000E+00 0. -1.
</event>
<event>
 7    1  0.2714068E-010  0.4778727E+02  0.7816164E-02  0.1312668E+00
        -11   -1    0    0    0    0  0.00000000000E+00  0.00000000000E+00  0.45593999997E+02  0.45594000000E+02  0.51100000000E-03 0. -1.
         11   -1    0    0    0    0 -0.00000000000E+00 -0.00000000000E+00 -0.45593999997E+02  0.45594000000E+02  0.51100000000E-03 0.  1.
    9900012    2    1    2    0    0  0.39111634025E+02 -0.89536255520E+01  0.16544977395E+02  0.47787267245E+02  0.19999982678E+02 0.  0.
        -12    1    1    2    0    0 -0.39111634025E+02  0.89536255520E+01 -0.16544977395E+02  0.43400732755E+02  0.00000000000E+00 0.  1.
         11    1    3    3    0    0  0.12013904512E+02  0.46891284077E+01  0.61844960179E+01  0.14302790571E+02  0.51100000000E-03 0.  1.
        -11    1    3    3    0    0  0.37161243605E+01  0.11603914917E+01 -0.11419987646E+00  0.38947568023E+01  0.51100000000E-03 0. -1.
         12    1    3    3    0    0  0.23381605153E+02 -0.14803145451E+02  0.10474681253E+02  0.29589719872E+02  0.00000000000E+00 0. -1.
</event>
<event>
 7    1  0.2714068E-010  0.4778727E+02  0.7816164E-02  0.1312668E+00
        -11   -1    0    0    0    0  0.00000000000E+00  0.00000000000E+00  0.45593999997E+02  0.45594000000E+02  0.51100000000E-03 0.  1.
         11   -1    0    0    0    0 -0.00000000000E+00 -0.00000000000E+00 -0.45593999997E+02  0.45594000000E+02  0.51100000000E-03 0. -1.
    9900012    2    1    2    0    0  0.31053456067E+02  0.24205897749E+02 -0.18258724737E+02  0.47787266728E+02  0.19999980318E+02 0.  0.
        -12    1    1    2    0    0 -0.31053456067E+02 -0.24205897749E+02  0.18258724737E+02  0.43400733272E+02  0.00000000000E+00 0.  1.
         11    1    3    3    0    0 -0.12462830286E+01  0.39321792768E+01 -0.66115631940E+01  0.77928187058E+01  0.51100000000E-03 0. -1.
        -11    1    3    3    0    0  0.23796843825E+02  0.13987880651E+02 -0.72280915554E+01  0.28534117980E+02  0.51100000000E-03 0.  1.
         12    1    3    3    0    0  0.85028952709E+01  0.62858378219E+01 -0.44190699873E+01  0.11460330042E+02  0.00000000000E+00 0. -1.
</event>
<event>
 7    1  0.2714068E-010  0.4778727E+02  0.7816164E-02  0.1312668E+00
        -11   -1    0    0    0    0  0.00000000000E+00  0.00000000000E+00  0.45593999997E+02  0.45594000000E+02  0.51100000000E-03 0.  1.
         11   -1    0    0    0    0 -0.00000000000E+00 -0.00000000000E+00 -0.45593999997E+02  0.45594000000E+02  0.51100000000E-03 0. -1.
    9900012    2    1    2    0    0 -0.82196099816E+01 -0.37163609533E+02 -0.20854914555E+02  0.47787270480E+02  0.19999997428E+02 0.  0.
        -12    1    1    2    0    0  0.82196099816E+01  0.37163609533E+02  0.20854914555E+02  0.43400729520E+02  0.00000000000E+00 0.  1.
         11    1    3    3    0    0 -0.73352465605E+01 -0.16224136186E+02 -0.18787754657E+02  0.25884515881E+02  0.51100000000E-03 0.  1.
        -11    1    3    3    0    0  0.17868915903E+01 -0.14286306776E+02  0.14983625825E+00  0.14398402481E+02  0.51100000000E-03 0. -1.
        -12    1    3    3    0    0 -0.26712550114E+01 -0.66531665707E+01 -0.22169961564E+01  0.75043521180E+01  0.00000000000E+00 0.  1.
</event>
<event>
 7    1  0.2714068E-010  0.4778727E+02  0.7816164E-02  0.1312668E+00
        -11   -1    0    0    0    0  0.00000000000E+00  0.00000000000E+00  0.45593999997E+02  0.45594000000E+02  0.51100000000E-03 0.  1.
         11   -1    0    0    0    0 -0.00000000000E+00 -0.00000000000E+00 -0.45593999997E+02  0.45594000000E+02  0.51100000000E-03 0. -1.
    9900012    2    1    2    0    0  0.67888666187E+01 -0.32580500229E+02 -0.27857590072E+02  0.47787273857E+02  0.20000012823E+02 0.  0.
        -12    1    1    2    0    0 -0.67888666187E+01  0.32580500229E+02  0.27857590072E+02  0.43400726143E+02  0.00000000000E+00 0.  1.
         11    1    3    3    0    0  0.20746699619E+01 -0.23787968402E+02 -0.23045414436E+02  0.33185280215E+02  0.51100000000E-03 0. -1.
        -11    1    3    3    0    0  0.67988937581E+01 -0.28225455393E+01 -0.17051457769E+01  0.75564040414E+01  0.51100000000E-03 0.  1.
        -12    1    3    3    0    0 -0.20846971012E+01 -0.59699862873E+01 -0.31070298591E+01  0.70455896006E+01  0.00000000000E+00 0.  1.
</event>
<event>
 7    1  0.2714068E-010  0.4778727E+02  0.7816164E-02  0.1312668E+00
        -11   -1    0    0    0    0  0.00000000000E+00  0.00000000000E+00  0.45593999997E+02  0.45594000000E+02  0.51100000000E-03 0.  1.
         11   -1    0    0    0    0 -0.00000000000E+00 -0.00000000000E+00 -0.45593999997E+02  0.45594000000E+02  0.51100000000E-03 0. -1.
    9900012    2    1    2    0    0 -0.52245937835E+01 -0.41864546868E+02  0.10182646120E+02  0.47787274814E+02  0.20000017188E+02 0.  0.
        -12    1    1    2    0    0  0.52245937835E+01  0.41864546868E+02 -0.10182646120E+02  0.43400725186E+02  0.00000000000E+00 0.  1.
         11    1    3    3    0    0 -0.86917325913E+01 -0.22898175986E+02  0.40710150457E+00  0.24495681473E+02  0.51100000000E-03 0. -1.
        -11    1    3    3    0    0  0.56879123987E+01 -0.17246787907E+02  0.73899775217E+01  0.19606524644E+02  0.51100000000E-03 0.  1.
        -12    1    3    3    0    0 -0.22207735909E+01 -0.17195829741E+01  0.23855670935E+01  0.36850686974E+01  0.00000000000E+00 0.  1.
</event>
<event>
 7    1  0.2714068E-010  0.4778730E+02  0.7816164E-02  0.1312668E+00
        -11   -1    0    0    0    0  0.00000000000E+00  0.00000000000E+00  0.45593999997E+02  0.45594000000E+02  0.51100000000E-03 0.  1.
         11   -1    0    0    0    0 -0.00000000000E+00 -0.00000000000E+00 -0.45593999997E+02  0.45594000000E+02  0.51100000000E-03 0. -1.
    9900012    2    1    2    0    0 -0.14384771370E+02 -0.24342172647E+02 -0.32926544509E+02  0.47787304731E+02  0.20000153590E+02 0.  0.
        -12    1    1    2    0    0  0.14384771370E+02  0.24342172647E+02  0.32926544509E+02  0.43400695269E+02  0.00000000000E+00 0.  1.
         11    1    3    3    0    0 -0.99966165687E+01 -0.33776606480E+01 -0.18040720331E+02  0.20899964703E+02  0.51100000000E-03 0. -1.
        -11    1    3    3    0    0 -0.24829568761E+01 -0.18092616022E+02 -0.14686774383E+02  0.23435212212E+02  0.51100000000E-03 0.  1.
         12    1    3    3    0    0 -0.19051979249E+01 -0.28718959771E+01 -0.19904979469E+00  0.34521278158E+01  0.00000000000E+00 0. -1.
</event>
<event>
 7    1  0.2714068E-010  0.4778727E+02  0.7816164E-02  0.1312668E+00
        -11   -1    0    0    0    0  0.00000000000E+00  0.00000000000E+00  0.45593999997E+02  0.45594000000E+02  0.51100000000E-03 0. -1.
         11   -1    0    0    0    0 -0.00000000000E+00 -0.00000000000E+00 -0.45593999997E+02  0.45594000000E+02  0.51100000000E-03 0.  1.
    9900012    2    1    2    0    0  0.36699204954E+02 -0.10208656289E+02  0.20798440177E+02  0.47787269347E+02  0.19999992259E+02 0.  0.
        -12    1    1    2    0    0 -0.36699204954E+02  0.10208656289E+02 -0.20798440177E+02  0.43400730653E+02  0.00000000000E+00 0.  1.
         11    1    3    3    0    0  0.12295830570E+02  0.23867242465E+01  0.11482075962E+02  0.16991820700E+02  0.51100000000E-03 0. -1.
        -11    1    3    3    0    0  0.52814450058E+01 -0.62881976103E+01 -0.81998841784E+00  0.82527251137E+01  0.51100000000E-03 0.  1.
         12    1    3    3    0    0  0.19121929378E+02 -0.63071829256E+01  0.10136352632E+02  0.22542723533E+02  0.00000000000E+00 0. -1.
</event>
<event>
 7    1  0.2714068E-010  0.4778728E+02  0.7816164E-02  0.1312668E+00
        -11   -1    0    0    0    0  0.00000000000E+00  0.00000000000E+00  0.45593999997E+02  0.45594000000E+02  0.51100000000E-03 0.  1.
         11   -1    0    0    0    0 -0.00000000000E+00 -0.00000000000E+00 -0.45593999997E+02  0.45594000000E+02  0.51100000000E-03 0. -1.
    9900012    2    1    2    0    0 -0.25705424650E+02  0.18101593657E+02 -0.29919662296E+02  0.47787277181E+02  0.20000027980E+02 0.  0.
        -12    1    1    2    0    0  0.25705424650E+02 -0.18101593657E+02  0.29919662296E+02  0.43400722819E+02  0.00000000000E+00 0.  1.
         11    1    3    3    0    0 -0.93470208044E+01  0.17374996944E+02 -0.17996553301E+02  0.26704554812E+02  0.51100000000E-03 0. -1.
        -11    1    3    3    0    0 -0.44583427314E+01  0.12471852716E+01 -0.65366204624E+01  0.80099749278E+01  0.51100000000E-03 0.  1.
         12    1    3    3    0    0 -0.11900061114E+02 -0.52058855926E+00 -0.53864885322E+01  0.13072747441E+02  0.00000000000E+00 0. -1.
</event>
<event>
 7    1  0.2714068E-010  0.4778727E+02  0.7816164E-02  0.1312668E+00
        -11   -1    0    0    0    0  0.00000000000E+00  0.00000000000E+00  0.45593999997E+02  0.45594000000E+02  0.51100000000E-03 0. -1.
         11   -1    0    0    0    0 -0.00000000000E+00 -0.00000000000E+00 -0.45593999997E+02  0.45594000000E+02  0.51100000000E-03 0.  1.
    9900012    2    1    2    0    0 -0.68961617012E+01 -0.23254582277E+02  0.35990152002E+02  0.47787266317E+02  0.19999978446E+02 0.  0.
        -12    1    1    2    0    0  0.68961617012E+01  0.23254582277E+02 -0.35990152002E+02  0.43400733683E+02  0.00000000000E+00 0.  1.
         11    1    3    3    0    0 -0.79346176228E+01 -0.14875998394E+01  0.86132239753E+01  0.11805030183E+02  0.51100000000E-03 0. -1.
        -11    1    3    3    0    0  0.55929055347E+00 -0.16003434308E+02  0.13486181162E+02  0.20935610766E+02  0.51100000000E-03 0.  1.
         12    1    3    3    0    0  0.47916536810E+00 -0.57635481297E+01  0.13890746865E+02  0.15046625368E+02  0.00000000000E+00 0. -1.
</event>
<event>
 7    1  0.2714068E-010  0.4778727E+02  0.7816164E-02  0.1312668E+00
        -11   -1    0    0    0    0  0.00000000000E+00  0.00000000000E+00  0.45593999997E+02  0.45594000000E+02  0.51100000000E-03 0.  1.
         11   -1    0    0    0    0 -0.00000000000E+00 -0.00000000000E+00 -0.45593999997E+02  0.45594000000E+02  0.51100000000E-03 0. -1.
    9900012    2    1    2    0    0  0.72485797061E+01  0.56676615832E+01 -0.42414137773E+02  0.47787269837E+02  0.19999994497E+02 0.  0.
        -12    1    1    2    0    0 -0.72485797061E+01 -0.56676615832E+01  0.42414137773E+02  0.43400730163E+02  0.00000000000E+00 0.  1.
         11    1    3    3    0    0  0.12346914430E+02  0.41343885575E+01 -0.15679920535E+02  0.20381348653E+02  0.51100000000E-03 0. -1.
        -11    1    3    3    0    0 -0.27256670058E+01 -0.64623753341E+00 -0.11757570915E+02  0.12086660318E+02  0.51100000000E-03 0.  1.
         12    1    3    3    0    0 -0.23726677177E+01  0.21795105591E+01 -0.14976646323E+02  0.15319260866E+02  0.00000000000E+00 0. -1.
</event>
<event>
 7    1  0.2714068E-010  0.4778727E+02  0.7816164E-02  0.1312668E+00
        -11   -1    0    0    0    0  0.00000000000E+00  0.00000000000E+00  0.45593999997E+02  0.45594000000E+02  0.51100000000E-03 0.  1.
         11   -1    0    0    0    0 -0.00000000000E+00 -0.00000000000E+00 -0.45593999997E+02  0.45594000000E+02  0.51100000000E-03 0. -1.
    9900012    2    1    2    0    0  0.15585889788E+02 -0.17512743283E+02 -0.36524062965E+02  0.47787270591E+02  0.19999997931E+02 0.  0.
        -12    1    1    2    0    0 -0.15585889788E+02  0.17512743283E+02  0.36524062965E+02  0.43400729409E+02  0.00000000000E+00 0.  1.
         11    1    3    3    0    0 -0.19645204114E+01 -0.31621980353E+01 -0.14659316466E+02  0.15124628801E+02  0.51100000000E-03 0.  1.
        -11    1    3    3    0    0  0.96883335846E+01 -0.13084908439E+02 -0.15303934191E+02  0.22344776537E+02  0.51100000000E-03 0. -1.
         12    1    3    3    0    0  0.78620766143E+01 -0.12656368089E+01 -0.65608123087E+01  0.10317865253E+02  0.00000000000E+00 0. -1.
</event>
<event>
 7    1  0.2714068E-010  0.4778727E+02  0.7816164E-02  0.1312668E+00
        -11   -1    0    0    0    0  0.00000000000E+00  0.00000000000E+00  0.45593999997E+02  0.45594000000E+02  0.51100000000E-03 0.  1.
         11   -1    0    0    0    0 -0.00000000000E+00 -0.00000000000E+00 -0.45593999997E+02  0.45594000000E+02  0.51100000000E-03 0. -1.
    9900012    2    1    2    0    0 -0.72319430521E-02  0.29865165942E+02 -0.31491192072E+02  0.47787269970E+02  0.19999995100E+02 0.  0.
        -12    1    1    2    0    0  0.72319430521E-02 -0.29865165942E+02  0.31491192072E+02  0.43400730030E+02  0.00000000000E+00 0.  1.
         11    1    3    3    0    0 -0.57440722727E+01  0.17907632646E+02 -0.25562238228E+02  0.31734928655E+02  0.51100000000E-03 0. -1.
        -11    1    3    3    0    0  0.24677417054E+01  0.11077014224E+02 -0.34673833340E+01  0.11866454428E+02  0.51100000000E-03 0.  1.
        -12    1    3    3    0    0  0.32690986242E+01  0.88051907207E+00 -0.24615705098E+01  0.41858868864E+01  0.00000000000E+00 0.  1.
</event>
<event>
 7    1  0.2714068E-010  0.4778727E+02  0.7816164E-02  0.1312668E+00
        -11   -1    0    0    0    0  0.00000000000E+00  0.00000000000E+00  0.45593999997E+02  0.45594000000E+02  0.51100000000E-03 0.  1.
         11   -1    0    0    0    0 -0.00000000000E+00 -0.00000000000E+00 -0.45593999997E+02  0.45594000000E+02  0.51100000000E-03 0. -1.
    9900012    2    1    2    0    0 -0.21657898996E+02  0.26262194164E+02 -0.26923149804E+02  0.47787269285E+02  0.19999991978E+02 0.  0.
        -12    1    1    2    0    0  0.21657898996E+02 -0.26262194164E+02  0.26923149804E+02  0.43400730715E+02  0.00000000000E+00 0.  1.
         11    1    3    3    0    0 -0.60010254300E+01  0.33636293762E+01 -0.16471786228E+02  0.17850659668E+02  0.51100000000E-03 0. -1.
        -11    1    3    3    0    0 -0.10337299631E+02  0.18277320948E+02 -0.75072529297E+01  0.22299754965E+02  0.51100000000E-03 0.  1.
         12    1    3    3    0    0 -0.53195739348E+01  0.46212438401E+01 -0.29441106470E+01  0.76368546522E+01  0.00000000000E+00 0. -1.
</event>
<event>
 7    1  0.2714068E-010  0.4778727E+02  0.7816164E-02  0.1312668E+00
        -11   -1    0    0    0    0  0.00000000000E+00  0.00000000000E+00  0.45593999997E+02  0.45594000000E+02  0.51100000000E-03 0.  1.
         11   -1    0    0    0    0 -0.00000000000E+00 -0.00000000000E+00 -0.45593999997E+02  0.45594000000E+02  0.51100000000E-03 0. -1.
    9900012    2    1    2    0    0  0.21979213995E+02  0.11502299223E+02 -0.35612279923E+02  0.47787271704E+02  0.20000003009E+02 0.  0.
        -12    1    1    2    0    0 -0.21979213995E+02 -0.11502299223E+02  0.35612279923E+02  0.43400728296E+02  0.00000000000E+00 0.  1.
         11    1    3    3    0    0  0.13796798806E+01  0.19040842279E+01 -0.19803489932E+02  0.19942599306E+02  0.51100000000E-03 0. -1.
        -11    1    3    3    0    0  0.17477885859E+02  0.72663268587E+01 -0.14032625771E+02  0.23562482603E+02  0.51100000000E-03 0.  1.
         12    1    3    3    0    0  0.31216482556E+01  0.23318881363E+01 -0.17761642205E+01  0.42821897961E+01  0.00000000000E+00 0. -1.
</event>
<event>
 7    1  0.2714068E-010  0.4778727E+02  0.7816164E-02  0.1312668E+00
        -11   -1    0    0    0    0  0.00000000000E+00  0.00000000000E+00  0.45593999997E+02  0.45594000000E+02  0.51100000000E-03 0. -1.
         11   -1    0    0    0    0 -0.00000000000E+00 -0.00000000000E+00 -0.45593999997E+02  0.45594000000E+02  0.51100000000E-03 0.  1.
    9900012    2    1    2    0    0  0.33148491155E+02 -0.27358592779E+02  0.60256385732E+01  0.47787269765E+02  0.19999994166E+02 0.  0.
        -12    1    1    2    0    0 -0.33148491155E+02  0.27358592779E+02 -0.60256385732E+01  0.43400730235E+02  0.00000000000E+00 0.  1.
         11    1    3    3    0    0  0.96080329801E+01 -0.12370888428E+02  0.98789932299E+01  0.18518846771E+02  0.51100000000E-03 0. -1.
        -11    1    3    3    0    0  0.22278682720E+02 -0.11053133575E+02 -0.30110526365E+01  0.25051505020E+02  0.51100000000E-03 0.  1.
        -12    1    3    3    0    0  0.12617754551E+01 -0.39345707773E+01 -0.84230202019E+00  0.42169179734E+01  0.00000000000E+00 0.  1.
</event>
<event>
 7    1  0.2714068E-010  0.4778726E+02  0.7816164E-02  0.1312668E+00
        -11   -1    0    0    0    0  0.00000000000E+00  0.00000000000E+00  0.45593999997E+02  0.45594000000E+02  0.51100000000E-03 0.  1.
         11   -1    0    0    0    0 -0.00000000000E+00 -0.00000000000E+00 -0.45593999997E+02  0.45594000000E+02  0.51100000000E-03 0. -1.
    9900012    2    1    2    0    0 -0.40313354635E+02  0.15769942502E+02  0.31250985657E+01  0.47787263952E+02  0.19999967664E+02 0.  0.
        -12    1    1    2    0    0  0.40313354635E+02 -0.15769942502E+02 -0.31250985657E+01  0.43400736048E+02  0.00000000000E+00 0.  1.
         11    1    3    3    0    0 -0.20322737455E+02  0.15635722613E+02  0.41781748217E+01  0.25979734879E+02  0.51100000000E-03 0. -1.
        -11    1    3    3    0    0 -0.12539152100E+02 -0.36287146075E+01  0.13435351194E+01  0.13122613763E+02  0.51100000000E-03 0.  1.
         12    1    3    3    0    0 -0.74514650797E+01  0.37629344965E+01 -0.23966113753E+01  0.86849153101E+01  0.00000000000E+00 0. -1.
</event>
<event>
 7    1  0.2714068E-010  0.4778728E+02  0.7816164E-02  0.1312668E+00
        -11   -1    0    0    0    0  0.00000000000E+00  0.00000000000E+00  0.45593999997E+02  0.45594000000E+02  0.51100000000E-03 0. -1.
         11   -1    0    0    0    0 -0.00000000000E+00 -0.00000000000E+00 -0.45593999997E+02  0.45594000000E+02  0.51100000000E-03 0.  1.
    9900012    2    1    2    0    0 -0.43283552951E+02 -0.17908081054E+00  0.31818456996E+01  0.47787283784E+02  0.20000058087E+02 0.  0.
        -12    1    1    2    0    0  0.43283552951E+02  0.17908081054E+00 -0.31818456996E+01  0.43400716216E+02  0.00000000000E+00 0.  1.
         11    1    3    3    0    0 -0.84289982026E+01 -0.10238403068E+01  0.38100289998E+01  0.93065880383E+01  0.51100000000E-03 0. -1.
        -11    1    3    3    0    0 -0.19668857261E+02 -0.72377820016E+01 -0.27881504968E+01  0.21142923585E+02  0.51100000000E-03 0.  1.
        -12    1    3    3    0    0 -0.15185697487E+02  0.80825414979E+01  0.21599671965E+01  0.17337772162E+02  0.00000000000E+00 0.  1.
</event>
<event>
 7    1  0.2714068E-010  0.4778727E+02  0.7816164E-02  0.1312668E+00
        -11   -1    0    0    0    0  0.00000000000E+00  0.00000000000E+00  0.45593999997E+02  0.45594000000E+02  0.51100000000E-03 0.  1.
         11   -1    0    0    0    0 -0.00000000000E+00 -0.00000000000E+00 -0.45593999997E+02  0.45594000000E+02  0.51100000000E-03 0. -1.
    9900012    2    1    2    0    0  0.39470099661E+02 -0.17859171445E+02 -0.26046878555E+01  0.47787272232E+02  0.20000005413E+02 0.  0.
        -12    1    1    2    0    0 -0.39470099661E+02  0.17859171445E+02  0.26046878555E+01  0.43400727768E+02  0.00000000000E+00 0.  1.
         11    1    3    3    0    0  0.25441445059E+02 -0.14780612627E+02 -0.42846884190E+01  0.29733687821E+02  0.51100000000E-03 0. -1.
        -11    1    3    3    0    0  0.14354838431E+02 -0.22350499595E+01  0.44062047517E+01  0.15181287010E+02  0.51100000000E-03 0.  1.
         12    1    3    3    0    0 -0.32618382844E+00 -0.84350885883E+00 -0.27262041882E+01  0.28722974011E+01  0.00000000000E+00 0. -1.
</event>
<event>
 7    1  0.2714068E-010  0.4778727E+02  0.7816164E-02  0.1312668E+00
        -11   -1    0    0    0    0  0.00000000000E+00  0.00000000000E+00  0.45593999997E+02  0.45594000000E+02  0.51100000000E-03 0. -1.
         11   -1    0    0    0    0 -0.00000000000E+00 -0.00000000000E+00 -0.45593999997E+02  0.45594000000E+02  0.51100000000E-03 0.  1.
    9900012    2    1    2    0    0 -0.23427037102E+02  0.34089493994E+02  0.13141679618E+02  0.47787269461E+02  0.19999992780E+02 0.  0.
        -12    1    1    2    0    0  0.23427037102E+02 -0.34089493994E+02 -0.13141679618E+02  0.43400730539E+02  0.00000000000E+00 0.  1.
         11    1    3    3    0    0  0.88783352367E+00  0.91359897265E+01  0.33084538685E+01  0.97570704574E+01  0.51100000000E-03 0. -1.
        -11    1    3    3    0    0 -0.40386615217E+01  0.10620551180E+02  0.10802987311E+00  0.11363035025E+02  0.51100000000E-03 0.  1.
         12    1    3    3    0    0 -0.20276209104E+02  0.14332953087E+02  0.97251958766E+01  0.26667163978E+02  0.00000000000E+00 0. -1.
</event>
<event>
 7    1  0.2714068E-010  0.4778727E+02  0.7816164E-02  0.1312668E+00
        -11   -1    0    0    0    0  0.00000000000E+00  0.00000000000E+00  0.45593999997E+02  0.45594000000E+02  0.51100000000E-03 0.  1.
         11   -1    0    0    0    0 -0.00000000000E+00 -0.00000000000E+00 -0.45593999997E+02  0.45594000000E+02  0.51100000000E-03 0. -1.
    9900012    2    1    2    0    0  0.30439227114E+02 -0.30000458681E+02 -0.75530778488E+01  0.47787273585E+02  0.20000011583E+02 0.  0.
        -12    1    1    2    0    0 -0.30439227114E+02  0.30000458681E+02  0.75530778488E+01  0.43400726415E+02  0.00000000000E+00 0.  1.
         11    1    3    3    0    0  0.24348545280E+02 -0.26955701374E+02 -0.69859573754E+01  0.36990067511E+02  0.51100000000E-03 0. -1.
        -11    1    3    3    0    0  0.48204832098E+01  0.20919218614E+01 -0.14061292442E+01  0.54397054298E+01  0.51100000000E-03 0.  1.
         12    1    3    3    0    0  0.12701986245E+01 -0.51366791690E+01  0.83900877079E+00  0.53575006438E+01  0.00000000000E+00 0. -1.
</event>
<event>
 7    1  0.2714068E-010  0.4778728E+02  0.7816164E-02  0.1312668E+00
        -11   -1    0    0    0    0  0.00000000000E+00  0.00000000000E+00  0.45593999997E+02  0.45594000000E+02  0.51100000000E-03 0. -1.
         11   -1    0    0    0    0 -0.00000000000E+00 -0.00000000000E+00 -0.45593999997E+02  0.45594000000E+02  0.51100000000E-03 0.  1.
    9900012    2    1    2    0    0  0.21474999961E+02 -0.67126987363E+01  0.37113159349E+02  0.47787279447E+02  0.20000038312E+02 0.  0.
        -12    1    1    2    0    0 -0.21474999961E+02  0.67126987363E+01 -0.37113159349E+02  0.43400720553E+02  0.00000000000E+00 0.  1.
         11    1    3    3    0    0  0.58496126359E+01 -0.92169497101E+01  0.85147115987E+01  0.13844509519E+02  0.51100000000E-03 0. -1.
        -11    1    3    3    0    0  0.12537624517E+02  0.15123222036E+01  0.13443548196E+02  0.18444731913E+02  0.51100000000E-03 0.  1.
         12    1    3    3    0    0  0.30877628086E+01  0.99192877019E+00  0.15154899554E+02  0.15498038016E+02  0.00000000000E+00 0. -1.
</event>
<event>
 7    1  0.2714068E-010  0.4778726E+02  0.7816164E-02  0.1312668E+00
        -11   -1    0    0    0    0  0.00000000000E+00  0.00000000000E+00  0.45593999997E+02  0.45594000000E+02  0.51100000000E-03 0. -1.
         11   -1    0    0    0    0 -0.00000000000E+00 -0.00000000000E+00 -0.45593999997E+02  0.45594000000E+02  0.51100000000E-03 0.  1.
    9900012    2    1    2    0    0  0.96435309031E+01 -0.26224056336E+02  0.33210323510E+02  0.47787257994E+02  0.19999940498E+02 0.  0.
        -12    1    1    2    0    0 -0.96435309031E+01  0.26224056336E+02 -0.33210323510E+02  0.43400742006E+02  0.00000000000E+00 0.  1.
         11    1    3    3    0    0  0.70176107752E+01 -0.62880487379E+01  0.13811637552E+02  0.16719681517E+02  0.51100000000E-03 0. -1.
        -11    1    3    3    0    0  0.12380119253E+01  0.94532779100E+00 -0.99368712546E+00  0.18476288924E+01  0.51100000000E-03 0.  1.
        -12    1    3    3    0    0  0.13879082026E+01 -0.20881335389E+02  0.20392373084E+02  0.29219947584E+02  0.00000000000E+00 0.  1.
</event>
<event>
 7    1  0.2714068E-010  0.4778727E+02  0.7816164E-02  0.1312668E+00
        -11   -1    0    0    0    0  0.00000000000E+00  0.00000000000E+00  0.45593999997E+02  0.45594000000E+02  0.51100000000E-03 0.  1.
         11   -1    0    0    0    0 -0.00000000000E+00 -0.00000000000E+00 -0.45593999997E+02  0.45594000000E+02  0.51100000000E-03 0. -1.
    9900012    2    1    2    0    0 -0.81210678196E+00 -0.13427885852E+02 -0.41263248117E+02  0.47787270962E+02  0.19999999626E+02 0.  0.
        -12    1    1    2    0    0  0.81210678196E+00  0.13427885852E+02  0.41263248117E+02  0.43400729038E+02  0.00000000000E+00 0.  1.
         11    1    3    3    0    0 -0.87831017363E+00 -0.41218544899E+01 -0.95473267490E+01  0.10436118125E+02  0.51100000000E-03 0. -1.
        -11    1    3    3    0    0 -0.11796145809E+01 -0.47375438939E+01 -0.32221186040E+02  0.32588965047E+02  0.51100000000E-03 0.  1.
        -12    1    3    3    0    0  0.12458179725E+01 -0.45684874680E+01  0.50526467294E+00  0.47621877909E+01  0.00000000000E+00 0.  1.
</event>
<event>
 7    1  0.2714068E-010  0.4778727E+02  0.7816164E-02  0.1312668E+00
        -11   -1    0    0    0    0  0.00000000000E+00  0.00000000000E+00  0.45593999997E+02  0.45594000000E+02  0.51100000000E-03 0.  1.
         11   -1    0    0    0    0 -0.00000000000E+00 -0.00000000000E+00 -0.45593999997E+02  0.45594000000E+02  0.51100000000E-03 0. -1.
    9900012    2    1    2    0    0  0.40677102545E+02 -0.11189104918E+02  0.10188246121E+02  0.47787273055E+02  0.20000009166E+02 0.  0.
        -12    1    1    2    0    0 -0.40677102545E+02  0.11189104918E+02 -0.10188246121E+02  0.43400726945E+02  0.00000000000E+00 0.  1.
         11    1    3    3    0    0  0.48295606344E+01  0.19694879003E+01  0.55370125242E+00  0.52450094231E+01  0.51100000000E-03 0. -1.
        -11    1    3    3    0    0  0.20863504745E+02 -0.84281047852E+01 -0.25678958244E+01  0.22647579777E+02  0.51100000000E-03 0.  1.
        -12    1    3    3    0    0  0.14984037166E+02 -0.47304880329E+01  0.12202440693E+02  0.19894683855E+02  0.00000000000E+00 0.  1.
</event>
<event>
 7    1  0.2714068E-010  0.4778722E+02  0.7816164E-02  0.1312668E+00
        -11   -1    0    0    0    0  0.00000000000E+00  0.00000000000E+00  0.45593999997E+02  0.45594000000E+02  0.51100000000E-03 0.  1.
         11   -1    0    0    0    0 -0.00000000000E+00 -0.00000000000E+00 -0.45593999997E+02  0.45594000000E+02  0.51100000000E-03 0. -1.
    9900012    2    1    2    0    0  0.29182742673E+02  0.13287524054E+02 -0.29247850626E+02  0.47787221992E+02  0.19999776351E+02 0.  0.
        -12    1    1    2    0    0 -0.29182742673E+02 -0.13287524054E+02  0.29247850626E+02  0.43400778008E+02  0.00000000000E+00 0.  1.
         11    1    3    3    0    0  0.22433582431E+02  0.18076005221E+02 -0.24807212983E+02  0.38018487630E+02  0.51100000000E-03 0. -1.
        -11    1    3    3    0    0  0.49061212578E+01 -0.28530681145E+01 -0.42482275962E+01  0.70892497087E+01  0.51100000000E-03 0.  1.
         12    1    3    3    0    0  0.18430389844E+01 -0.19354130526E+01 -0.19241004680E+00  0.26794846535E+01  0.00000000000E+00 0. -1.
</event>
<event>
 7    1  0.2714068E-010  0.4778727E+02  0.7816164E-02  0.1312668E+00
        -11   -1    0    0    0    0  0.00000000000E+00  0.00000000000E+00  0.45593999997E+02  0.45594000000E+02  0.51100000000E-03 0. -1.
         11   -1    0    0    0    0 -0.00000000000E+00 -0.00000000000E+00 -0.45593999997E+02  0.45594000000E+02  0.51100000000E-03 0.  1.
    9900012    2    1    2    0    0 -0.37500721369E+01  0.40884635125E+02  0.14071497204E+02  0.47787268855E+02  0.19999990019E+02 0.  0.
        -12    1    1    2    0    0  0.37500721369E+01 -0.40884635125E+02 -0.14071497204E+02  0.43400731145E+02  0.00000000000E+00 0.  1.
         11    1    3    3    0    0 -0.17452261068E+01  0.18695190878E+02  0.62990468622E+01  0.19804897571E+02  0.51100000000E-03 0.  1.
        -11    1    3    3    0    0  0.65719494783E+01  0.92655282304E+01  0.28958410068E+01  0.11722901890E+02  0.51100000000E-03 0. -1.
        -12    1    3    3    0    0 -0.85767955084E+01  0.12923916016E+02  0.48766093353E+01  0.16259469394E+02  0.00000000000E+00 0.  1.
</event>
<event>
 7    1  0.2714068E-010  0.4778726E+02  0.7816164E-02  0.1312668E+00
        -11   -1    0    0    0    0  0.00000000000E+00  0.00000000000E+00  0.45593999997E+02  0.45594000000E+02  0.51100000000E-03 0.  1.
         11   -1    0    0    0    0 -0.00000000000E+00 -0.00000000000E+00 -0.45593999997E+02  0.45594000000E+02  0.51100000000E-03 0. -1.
    9900012    2    1    2    0    0 -0.67998008844E+01 -0.19778513060E+02 -0.38028897161E+02  0.47787263944E+02  0.19999967626E+02 0.  0.
        -12    1    1    2    0    0  0.67998008844E+01  0.19778513060E+02  0.38028897161E+02  0.43400736056E+02  0.00000000000E+00 0.  1.
         11    1    3    3    0    0  0.23072591968E+01 -0.11713188570E+02 -0.26695860164E+02  0.29243651989E+02  0.51100000000E-03 0. -1.
        -11    1    3    3    0    0 -0.36989231737E+01  0.11242576079E+01 -0.42354605781E+01  0.57345544190E+01  0.51100000000E-03 0.  1.
         12    1    3    3    0    0 -0.54081369074E+01 -0.91895820976E+01 -0.70975764185E+01  0.12809057536E+02  0.00000000000E+00 0. -1.
</event>
<event>
 7    1  0.2714068E-010  0.4778725E+02  0.7816164E-02  0.1312668E+00
        -11   -1    0    0    0    0  0.00000000000E+00  0.00000000000E+00  0.45593999997E+02  0.45594000000E+02  0.51100000000E-03 0.  1.
         11   -1    0    0    0    0 -0.00000000000E+00 -0.00000000000E+00 -0.45593999997E+02  0.45594000000E+02  0.51100000000E-03 0. -1.
    9900012    2    1    2    0    0  0.15731459432E+02  0.50246142458E+01 -0.40136015377E+02  0.47787247766E+02  0.19999893862E+02 0.  0.
        -12    1    1    2    0    0 -0.15731459432E+02 -0.50246142458E+01  0.40136015377E+02  0.43400752234E+02  0.00000000000E+00 0.  1.
         11    1    3    3    0    0  0.11769306409E+02 -0.56183350363E+00 -0.25589534573E+02  0.28171909949E+02  0.51100000000E-03 0. -1.
        -11    1    3    3    0    0  0.37412509190E+01  0.69976011518E+01 -0.38422844318E+01  0.88162650956E+01  0.51100000000E-03 0.  1.
        -12    1    3    3    0    0  0.22090210377E+00 -0.14111534025E+01 -0.10704196372E+02  0.10799072721E+02  0.00000000000E+00 0.  1.
</event>
<event>
 7    1  0.2714068E-010  0.4778727E+02  0.7816164E-02  0.1312668E+00
        -11   -1    0    0    0    0  0.00000000000E+00  0.00000000000E+00  0.45593999997E+02  0.45594000000E+02  0.51100000000E-03 0. -1.
         11   -1    0    0    0    0 -0.00000000000E+00 -0.00000000000E+00 -0.45593999997E+02  0.45594000000E+02  0.51100000000E-03 0.  1.
    9900012    2    1    2    0    0  0.11665641680E+02  0.41788265293E+02  0.11300883453E+01  0.47787269457E+02  0.19999992762E+02 0.  0.
        -12    1    1    2    0    0 -0.11665641680E+02 -0.41788265293E+02 -0.11300883453E+01  0.43400730543E+02  0.00000000000E+00 0.  1.
         11    1    3    3    0    0  0.13120363385E+02  0.16522059483E+02  0.28358938893E+01  0.21287664957E+02  0.51100000000E-03 0. -1.
        -11    1    3    3    0    0 -0.29002513833E+01  0.12944167412E+02 -0.40582724208E+01  0.13872004303E+02  0.51100000000E-03 0.  1.
        -12    1    3    3    0    0  0.14455296785E+01  0.12322038398E+02  0.23524668767E+01  0.12627600197E+02  0.00000000000E+00 0.  1.
</event>
<event>
 7    1  0.2714068E-010  0.4778724E+02  0.7816164E-02  0.1312668E+00
        -11   -1    0    0    0    0  0.00000000000E+00  0.00000000000E+00  0.45593999997E+02  0.45594000000E+02  0.51100000000E-03 0.  1.
         11   -1    0    0    0    0 -0.00000000000E+00 -0.00000000000E+00 -0.45593999997E+02  0.45594000000E+02  0.51100000000E-03 0. -1.
    9900012    2    1    2    0    0 -0.11075344646E+02  0.39303632199E+02 -0.14703304829E+02  0.47787240376E+02  0.19999860169E+02 0.  0.
        -12    1    1    2    0    0  0.11075344646E+02 -0.39303632199E+02  0.14703304829E+02  0.43400759624E+02  0.00000000000E+00 0.  1.
         11    1    3    3    0    0 -0.12777994148E+02  0.29812028024E+02 -0.15642383052E+02  0.36009974967E+02  0.51100000000E-03 0. -1.
        -11    1    3    3    0    0  0.15693178960E+01  0.98632891545E+01 -0.77586813777E+00  0.10017444945E+02  0.51100000000E-03 0.  1.
         12    1    3    3    0    0  0.13333160652E+00 -0.37168497915E+00  0.17149463611E+01  0.17598204631E+01  0.00000000000E+00 0. -1.
</event>
<event>
 7    1  0.2714068E-010  0.4778726E+02  0.7816164E-02  0.1312668E+00
        -11   -1    0    0    0    0  0.00000000000E+00  0.00000000000E+00  0.45593999997E+02  0.45594000000E+02  0.51100000000E-03 0. -1.
         11   -1    0    0    0    0 -0.00000000000E+00 -0.00000000000E+00 -0.45593999997E+02  0.45594000000E+02  0.51100000000E-03 0.  1.
    9900012    2    1    2    0    0  0.21910610291E+02 -0.65392969143E+01  0.36888843915E+02  0.47787262071E+02  0.19999959084E+02 0.  0.
        -12    1    1    2    0    0 -0.21910610291E+02  0.65392969143E+01 -0.36888843915E+02  0.43400737929E+02  0.00000000000E+00 0.  1.
         11    1    3    3    0    0  0.11064570963E+02  0.11358885144E+01  0.15097155829E+02  0.18752042227E+02  0.51100000000E-03 0. -1.
        -11    1    3    3    0    0  0.86710694456E+01  0.21962594592E+01  0.85267071574E+01  0.12357820850E+02  0.51100000000E-03 0.  1.
        -12    1    3    3    0    0  0.21749698827E+01 -0.98714448879E+01  0.13264980929E+02  0.16677398994E+02  0.00000000000E+00 0.  1.
</event>
<event>
 7    1  0.2714068E-010  0.4778727E+02  0.7816164E-02  0.1312668E+00
        -11   -1    0    0    0    0  0.00000000000E+00  0.00000000000E+00  0.45593999997E+02  0.45594000000E+02  0.51100000000E-03 0.  1.
         11   -1    0    0    0    0 -0.00000000000E+00 -0.00000000000E+00 -0.45593999997E+02  0.45594000000E+02  0.51100000000E-03 0. -1.
    9900012    2    1    2    0    0  0.39641846880E+02  0.16167766088E+02 -0.71239386669E+01  0.47787272051E+02  0.20000004591E+02 0.  0.
        -12    1    1    2    0    0 -0.39641846880E+02 -0.16167766088E+02  0.71239386669E+01  0.43400727949E+02  0.00000000000E+00 0.  1.
         11    1    3    3    0    0  0.33476865137E+01 -0.22946579242E+01 -0.72724728398E+00  0.41232691952E+01  0.51100000000E-03 0. -1.
        -11    1    3    3    0    0  0.35159900071E+02  0.17180611539E+02 -0.22727177511E+01  0.39198944273E+02  0.51100000000E-03 0.  1.
        -12    1    3    3    0    0  0.11342602950E+01  0.12818124731E+01 -0.41239736318E+01  0.44650585829E+01  0.00000000000E+00 0.  1.
</event>
<event>
 7    1  0.2714068E-010  0.4778727E+02  0.7816164E-02  0.1312668E+00
        -11   -1    0    0    0    0  0.00000000000E+00  0.00000000000E+00  0.45593999997E+02  0.45594000000E+02  0.51100000000E-03 0.  1.
         11   -1    0    0    0    0 -0.00000000000E+00 -0.00000000000E+00 -0.45593999997E+02  0.45594000000E+02  0.51100000000E-03 0. -1.
    9900012    2    1    2    0    0 -0.29196835410E+02  0.75622790747E+01 -0.31208650842E+02  0.47787272470E+02  0.20000006501E+02 0.  0.
        -12    1    1    2    0    0  0.29196835410E+02 -0.75622790747E+01  0.31208650842E+02  0.43400727530E+02  0.00000000000E+00 0.  1.
         11    1    3    3    0    0 -0.10733028946E+02  0.49412650150E+01 -0.11773034951E+02  0.16679878972E+02  0.51100000000E-03 0. -1.
        -11    1    3    3    0    0 -0.18409029227E+02 -0.10514480896E+01 -0.99868058451E+01  0.20969840043E+02  0.51100000000E-03 0.  1.
        -12    1    3    3    0    0 -0.54777236645E-01  0.36724621492E+01 -0.94488100455E+01  0.10137553455E+02  0.00000000000E+00 0.  1.
</event>
<event>
 7    1  0.2714068E-010  0.4778724E+02  0.7816164E-02  0.1312668E+00
        -11   -1    0    0    0    0  0.00000000000E+00  0.00000000000E+00  0.45593999997E+02  0.45594000000E+02  0.51100000000E-03 0. -1.
         11   -1    0    0    0    0 -0.00000000000E+00 -0.00000000000E+00 -0.45593999997E+02  0.45594000000E+02  0.51100000000E-03 0.  1.
    9900012    2    1    2    0    0 -0.15732540558E+02  0.40429632647E+02  0.12483216136E+01  0.47787235776E+02  0.19999839198E+02 0.  0.
        -12    1    1    2    0    0  0.15732540558E+02 -0.40429632647E+02 -0.12483216136E+01  0.43400764224E+02  0.00000000000E+00 0.  1.
         11    1    3    3    0    0 -0.86322427173E+00  0.10668736262E+02  0.27641069697E+01  0.11054744555E+02  0.51100000000E-03 0. -1.
        -11    1    3    3    0    0 -0.12238067801E+02  0.19554154779E+02  0.59413254020E+01  0.23820886222E+02  0.51100000000E-03 0.  1.
        -12    1    3    3    0    0 -0.26312484851E+01  0.10206741605E+02 -0.74571107580E+01  0.12911604999E+02  0.00000000000E+00 0.  1.
</event>
<event>
 7    1  0.2714068E-010  0.4778727E+02  0.7816164E-02  0.1312668E+00
        -11   -1    0    0    0    0  0.00000000000E+00  0.00000000000E+00  0.45593999997E+02  0.45594000000E+02  0.51100000000E-03 0.  1.
         11   -1    0    0    0    0 -0.00000000000E+00 -0.00000000000E+00 -0.45593999997E+02  0.45594000000E+02  0.51100000000E-03 0. -1.
    9900012    2    1    2    0    0 -0.42040633561E+02  0.53659590395E+01  0.93496059832E+01  0.47787268224E+02  0.19999987142E+02 0.  0.
        -12    1    1    2    0    0  0.42040633561E+02 -0.53659590395E+01 -0.93496059832E+01  0.43400731776E+02  0.00000000000E+00 0.  1.
         11    1    3    3    0    0 -0.17879685909E+01 -0.97450422903E+00  0.11992288745E+01  0.23631843621E+01  0.51100000000E-03 0. -1.
        -11    1    3    3    0    0 -0.12587079323E+02 -0.10443630535E+01  0.10866214876E+02  0.16661329060E+02  0.51100000000E-03 0.  1.
        -12    1    3    3    0    0 -0.27665585647E+02  0.73848263220E+01 -0.27158377674E+01  0.28762754802E+02  0.00000000000E+00 0.  1.
</event>
<event>
 7    1  0.2714068E-010  0.4778721E+02  0.7816164E-02  0.1312668E+00
        -11   -1    0    0    0    0  0.00000000000E+00  0.00000000000E+00  0.45593999997E+02  0.45594000000E+02  0.51100000000E-03 0. -1.
         11   -1    0    0    0    0 -0.00000000000E+00 -0.00000000000E+00 -0.45593999997E+02  0.45594000000E+02  0.51100000000E-03 0.  1.
    9900012    2    1    2    0    0 -0.27525495515E+01 -0.35004715242E+02  0.25509245160E+02  0.47787214214E+02  0.19999740886E+02 0.  0.
        -12    1    1    2    0    0  0.27525495515E+01  0.35004715242E+02 -0.25509245160E+02  0.43400785786E+02  0.00000000000E+00 0.  1.
         11    1    3    3    0    0  0.13279196051E+01 -0.10614413012E+02  0.17719243313E+02  0.20697843316E+02  0.51100000000E-03 0. -1.
        -11    1    3    3    0    0  0.19706935998E+01 -0.50527379172E+01  0.32569832506E+01  0.63262733011E+01  0.51100000000E-03 0.  1.
         12    1    3    3    0    0 -0.60511627564E+01 -0.19337564312E+02  0.45330185965E+01  0.20763097597E+02  0.00000000000E+00 0. -1.
</event>
<event>
 7    1  0.2714068E-010  0.4778727E+02  0.7816164E-02  0.1312668E+00
        -11   -1    0    0    0    0  0.00000000000E+00  0.00000000000E+00  0.45593999997E+02  0.45594000000E+02  0.51100000000E-03 0. -1.
         11   -1    0    0    0    0 -0.00000000000E+00 -0.00000000000E+00 -0.45593999997E+02  0.45594000000E+02  0.51100000000E-03 0.  1.
    9900012    2    1    2    0    0  0.16485118722E+02 -0.36019870653E+02  0.17732264829E+02  0.47787269163E+02  0.19999991424E+02 0.  0.
        -12    1    1    2    0    0 -0.16485118722E+02  0.36019870653E+02 -0.17732264829E+02  0.43400730837E+02  0.00000000000E+00 0.  1.
         11    1    3    3    0    0  0.32258428762E+01 -0.10725645558E+02  0.46306063183E+01  0.12119738035E+02  0.51100000000E-03 0. -1.
        -11    1    3    3    0    0  0.15704043346E+02 -0.24429407250E+02  0.82900785491E+01  0.30201627748E+02  0.51100000000E-03 0.  1.
        -12    1    3    3    0    0 -0.24447675003E+01 -0.86481784515E+00  0.48115799620E+01  0.54659033807E+01  0.00000000000E+00 0.  1.
</event>
<event>
 7    1  0.2714068E-010  0.4778727E+02  0.7816164E-02  0.1312668E+00
        -11   -1    0    0    0    0  0.00000000000E+00  0.00000000000E+00  0.45593999997E+02  0.45594000000E+02  0.51100000000E-03 0.  1.
         11   -1    0    0    0    0 -0.00000000000E+00 -0.00000000000E+00 -0.45593999997E+02  0.45594000000E+02  0.51100000000E-03 0. -1.
    9900012    2    1    2    0    0  0.51812381981E+01 -0.27036179914E+02 -0.33553281261E+02  0.47787274926E+02  0.20000017698E+02 0.  0.
        -12    1    1    2    0    0 -0.51812381981E+01  0.27036179914E+02  0.33553281261E+02  0.43400725074E+02  0.00000000000E+00 0.  1.
         11    1    3    3    0    0 -0.19481271502E+01 -0.17093801672E+02 -0.23704302128E+02  0.29289711413E+02  0.51100000000E-03 0. -1.
        -11    1    3    3    0    0  0.73764586067E+01 -0.30568262895E+01 -0.81322616165E+01  0.11396929753E+02  0.51100000000E-03 0.  1.
         12    1    3    3    0    0 -0.24709325841E+00 -0.68855519523E+01 -0.17167175159E+01  0.71006337601E+01  0.00000000000E+00 0. -1.
</event>
<event>
 7    1  0.2714068E-010  0.4778727E+02  0.7816164E-02  0.1312668E+00
        -11   -1    0    0    0    0  0.00000000000E+00  0.00000000000E+00  0.45593999997E+02  0.45594000000E+02  0.51100000000E-03 0.  1.
         11   -1    0    0    0    0 -0.00000000000E+00 -0.00000000000E+00 -0.45593999997E+02  0.45594000000E+02  0.51100000000E-03 0. -1.
    9900012    2    1    2    0    0 -0.32772370621E+02  0.52493530516E+01 -0.27964964046E+02  0.47787271923E+02  0.20000004004E+02 0.  0.
        -12    1    1    2    0    0  0.32772370621E+02 -0.52493530516E+01  0.27964964046E+02  0.43400728077E+02  0.00000000000E+00 0.  1.
         11    1    3    3    0    0 -0.18124887311E+02 -0.11723703695E+01 -0.14565523641E+02  0.23281762637E+02  0.51100000000E-03 0. -1.
        -11    1    3    3    0    0 -0.11535919298E+02  0.97873231387E+01 -0.12924258318E+02  0.19897376249E+02  0.51100000000E-03 0.  1.
        -12    1    3    3    0    0 -0.31115640125E+01 -0.33655997177E+01 -0.47518208649E+00  0.46081330362E+01  0.00000000000E+00 0.  1.
</event>
<event>
 7    1  0.2714068E-010  0.4778727E+02  0.7816164E-02  0.1312668E+00
        -11   -1    0    0    0    0  0.00000000000E+00  0.00000000000E+00  0.45593999997E+02  0.45594000000E+02  0.51100000000E-03 0.  1.
         11   -1    0    0    0    0 -0.00000000000E+00 -0.00000000000E+00 -0.45593999997E+02  0.45594000000E+02  0.51100000000E-03 0. -1.
    9900012    2    1    2    0    0 -0.28840905115E+02 -0.81116373005E+01 -0.31401062527E+02  0.47787271949E+02  0.20000004123E+02 0.  0.
        -12    1    1    2    0    0  0.28840905115E+02  0.81116373005E+01  0.31401062527E+02  0.43400728051E+02  0.00000000000E+00 0.  1.
         11    1    3    3    0    0  0.51530684637E+00  0.52682993612E+00  0.18763259493E+01  0.20158596818E+01  0.51100000000E-03 0.  1.
        -11    1    3    3    0    0 -0.26181906766E+02 -0.93334716036E+01 -0.31696614272E+02  0.42157814111E+02  0.51100000000E-03 0. -1.
         12    1    3    3    0    0 -0.31743051955E+01  0.69500436702E+00 -0.15807742043E+01  0.36135981555E+01  0.00000000000E+00 0. -1.
</event>
<event>
 7    1  0.2714068E-010  0.4778727E+02  0.7816164E-02  0.1312668E+00
        -11   -1    0    0    0    0  0.00000000000E+00  0.00000000000E+00  0.45593999997E+02  0.45594000000E+02  0.51100000000E-03 0.  1.
         11   -1    0    0    0    0 -0.00000000000E+00 -0.00000000000E+00 -0.45593999997E+02  0.45594000000E+02  0.51100000000E-03 0. -1.
    9900012    2    1    2    0    0  0.39493189339E+00  0.31134685832E+02 -0.30234063820E+02  0.47787271341E+02  0.20000001350E+02 0.  0.
        -12    1    1    2    0    0 -0.39493189339E+00 -0.31134685832E+02  0.30234063820E+02  0.43400728659E+02  0.00000000000E+00 0.  1.
         11    1    3    3    0    0 -0.61457838953E+01  0.46507707826E+01 -0.56385321762E+01  0.95495221829E+01  0.51100000000E-03 0. -1.
        -11    1    3    3    0    0  0.17995421517E+01  0.22995984704E+02 -0.21735943508E+02  0.31693925362E+02  0.51100000000E-03 0.  1.
        -12    1    3    3    0    0  0.47411736369E+01  0.34879303460E+01 -0.28595881367E+01  0.65438237954E+01  0.00000000000E+00 0.  1.
</event>
<event>
 7    1  0.2714068E-010  0.4778727E+02  0.7816164E-02  0.1312668E+00
        -11   -1    0    0    0    0  0.00000000000E+00  0.00000000000E+00  0.45593999997E+02  0.45594000000E+02  0.51100000000E-03 0.  1.
         11   -1    0    0    0    0 -0.00000000000E+00 -0.00000000000E+00 -0.45593999997E+02  0.45594000000E+02  0.51100000000E-03 0. -1.
    9900012    2    1    2    0    0  0.27790359542E+02 -0.22254461496E+02 -0.24820522060E+02  0.47787268955E+02  0.19999990472E+02 0.  0.
        -12    1    1    2    0    0 -0.27790359542E+02  0.22254461496E+02  0.24820522060E+02  0.43400731045E+02  0.00000000000E+00 0.  1.
         11    1    3    3    0    0  0.14483940804E+02 -0.12162899516E+02 -0.11268576121E+02  0.22015936816E+02  0.51100000000E-03 0.  1.
        -11    1    3    3    0    0  0.10526373227E+02 -0.89835768311E+01 -0.21764882421E+01  0.14008793214E+02  0.51100000000E-03 0. -1.
        -12    1    3    3    0    0  0.27800455118E+01 -0.11079851483E+01 -0.11375457697E+02  0.11762538924E+02  0.00000000000E+00 0.  1.
</event>
<event>
 7    1  0.2714068E-010  0.4778727E+02  0.7816164E-02  0.1312668E+00
        -11   -1    0    0    0    0  0.00000000000E+00  0.00000000000E+00  0.45593999997E+02  0.45594000000E+02  0.51100000000E-03 0. -1.
         11   -1    0    0    0    0 -0.00000000000E+00 -0.00000000000E+00 -0.45593999997E+02  0.45594000000E+02  0.51100000000E-03 0.  1.
    9900012    2    1    2    0    0  0.85737127315E+01 -0.39261103443E+02  0.16391474544E+02  0.47787271535E+02  0.20000002236E+02 0.  0.
        -12    1    1    2    0    0 -0.85737127315E+01  0.39261103443E+02 -0.16391474544E+02  0.43400728465E+02  0.00000000000E+00 0.  1.
         11    1    3    3    0    0  0.11293307452E+02 -0.17121488719E+02  0.80355751956E+01  0.22028496048E+02  0.51100000000E-03 0. -1.
        -11    1    3    3    0    0  0.20389257902E+01 -0.69695800011E+01 -0.97059809840E+00  0.73262763188E+01  0.51100000000E-03 0.  1.
         12    1    3    3    0    0 -0.47585205107E+01 -0.15170034723E+02  0.93264974468E+01  0.18432499168E+02  0.00000000000E+00 0. -1.
</event>
<event>
 7    1  0.2714068E-010  0.4778727E+02  0.7816164E-02  0.1312668E+00
        -11   -1    0    0    0    0  0.00000000000E+00  0.00000000000E+00  0.45593999997E+02  0.45594000000E+02  0.51100000000E-03 0. -1.
         11   -1    0    0    0    0 -0.00000000000E+00 -0.00000000000E+00 -0.45593999997E+02  0.45594000000E+02  0.51100000000E-03 0.  1.
    9900012    2    1    2    0    0  0.31245680845E+02  0.29377571206E+02  0.66549914864E+01  0.47787272205E+02  0.20000005290E+02 0.  0.
        -12    1    1    2    0    0 -0.31245680845E+02 -0.29377571206E+02 -0.66549914864E+01  0.43400727795E+02  0.00000000000E+00 0.  1.
         11    1    3    3    0    0 -0.11444254766E+01  0.26743368588E+00  0.17715797850E+01  0.21259646384E+01  0.51100000000E-03 0. -1.
        -11    1    3    3    0    0  0.24940035540E+02  0.17185577423E+02 -0.12673995336E+01  0.30314282870E+02  0.51100000000E-03 0.  1.
        -12    1    3    3    0    0  0.74500707821E+01  0.11924560098E+02  0.61508112350E+01  0.15347024696E+02  0.00000000000E+00 0.  1.
</event>
<event>
 7    1  0.2714068E-010  0.4778727E+02  0.7816164E-02  0.1312668E+00
        -11   -1    0    0    0    0  0.00000000000E+00  0.00000000000E+00  0.45593999997E+02  0.45594000000E+02  0.51100000000E-03 0.  1.
         11   -1    0    0    0    0 -0.00000000000E+00 -0.00000000000E+00 -0.45593999997E+02  0.45594000000E+02  0.51100000000E-03 0. -1.
    9900012    2    1    2    0    0  0.75106227834E+01  0.21733240414E+00 -0.42745368856E+02  0.47787271358E+02  0.20000001432E+02 0.  0.
        -12    1    1    2    0    0 -0.75106227834E+01 -0.21733240414E+00  0.42745368856E+02  0.43400728642E+02  0.00000000000E+00 0.  1.
         11    1    3    3    0    0  0.54428428308E+01  0.11727145574E+01 -0.13236434531E+02  0.14359770084E+02  0.51100000000E-03 0. -1.
        -11    1    3    3    0    0 -0.59335231463E+01 -0.11225567857E+01 -0.56791295680E+01  0.82897131179E+01  0.51100000000E-03 0.  1.
        -12    1    3    3    0    0  0.80013030989E+01  0.16717463243E+00 -0.23829804757E+02  0.25137788157E+02  0.00000000000E+00 0.  1.
</event>
<event>
 7    1  0.2714068E-010  0.4778726E+02  0.7816164E-02  0.1312668E+00
        -11   -1    0    0    0    0  0.00000000000E+00  0.00000000000E+00  0.45593999997E+02  0.45594000000E+02  0.51100000000E-03 0. -1.
         11   -1    0    0    0    0 -0.00000000000E+00 -0.00000000000E+00 -0.45593999997E+02  0.45594000000E+02  0.51100000000E-03 0.  1.
    9900012    2    1    2    0    0 -0.22606430856E+01 -0.91237211958E+01  0.42370645014E+02  0.47787258595E+02  0.19999943236E+02 0.  0.
        -12    1    1    2    0    0  0.22606430856E+01  0.91237211958E+01 -0.42370645014E+02  0.43400741405E+02  0.00000000000E+00 0.  1.
         11    1    3    3    0    0 -0.43195956871E+01 -0.20904023785E+01  0.40465663615E+00  0.48158525993E+01  0.51100000000E-03 0. -1.
        -11    1    3    3    0    0 -0.15282127577E+01 -0.13231676922E+01  0.49612690564E+01  0.53572752296E+01  0.51100000000E-03 0.  1.
         12    1    3    3    0    0  0.35871653591E+01 -0.57101511251E+01  0.37004719322E+02  0.37614130766E+02  0.00000000000E+00 0. -1.
</event>
<event>
 7    1  0.2714068E-010  0.4778727E+02  0.7816164E-02  0.1312668E+00
        -11   -1    0    0    0    0  0.00000000000E+00  0.00000000000E+00  0.45593999997E+02  0.45594000000E+02  0.51100000000E-03 0. -1.
         11   -1    0    0    0    0 -0.00000000000E+00 -0.00000000000E+00 -0.45593999997E+02  0.45594000000E+02  0.51100000000E-03 0.  1.
    9900012    2    1    2    0    0  0.35884117634E+02  0.53997769266E+01  0.23807469599E+02  0.47787273071E+02  0.20000009242E+02 0.  0.
        -12    1    1    2    0    0 -0.35884117634E+02 -0.53997769266E+01 -0.23807469599E+02  0.43400726929E+02  0.00000000000E+00 0.  1.
         11    1    3    3    0    0  0.20253007019E+02  0.60180867437E+01  0.19785973036E+02  0.28946267300E+02  0.51100000000E-03 0. -1.
        -11    1    3    3    0    0  0.58309640396E+01 -0.49195043203E+01  0.25158701791E+01  0.80331355900E+01  0.51100000000E-03 0.  1.
         12    1    3    3    0    0  0.98001465750E+01  0.43011945032E+01  0.15056263843E+01  0.10807870181E+02  0.00000000000E+00 0. -1.
</event>
<event>
 7    1  0.2714068E-010  0.4778727E+02  0.7816164E-02  0.1312668E+00
        -11   -1    0    0    0    0  0.00000000000E+00  0.00000000000E+00  0.45593999997E+02  0.45594000000E+02  0.51100000000E-03 0.  1.
         11   -1    0    0    0    0 -0.00000000000E+00 -0.00000000000E+00 -0.45593999997E+02  0.45594000000E+02  0.51100000000E-03 0. -1.
    9900012    2    1    2    0    0 -0.20737009939E+02  0.13819575895E+02 -0.35533349327E+02  0.47787272201E+02  0.20000005273E+02 0.  0.
        -12    1    1    2    0    0  0.20737009939E+02 -0.13819575895E+02  0.35533349327E+02  0.43400727799E+02  0.00000000000E+00 0.  1.
         11    1    3    3    0    0 -0.14271246341E+02  0.15108571300E+02 -0.26046136986E+02  0.33321744418E+02  0.51100000000E-03 0. -1.
        -11    1    3    3    0    0 -0.32453770841E+01 -0.42303066148E+01 -0.84351898841E+01  0.99789977009E+01  0.51100000000E-03 0.  1.
        -12    1    3    3    0    0 -0.32203865138E+01  0.29413112098E+01 -0.10520224561E+01  0.44865300823E+01  0.00000000000E+00 0.  1.
</event>
<event>
 7    1  0.2714068E-010  0.4778727E+02  0.7816164E-02  0.1312668E+00
        -11   -1    0    0    0    0  0.00000000000E+00  0.00000000000E+00  0.45593999997E+02  0.45594000000E+02  0.51100000000E-03 0.  1.
         11   -1    0    0    0    0 -0.00000000000E+00 -0.00000000000E+00 -0.45593999997E+02  0.45594000000E+02  0.51100000000E-03 0. -1.
    9900012    2    1    2    0    0  0.10732877076E+02 -0.37332793568E+02 -0.19356942718E+02  0.47787270083E+02  0.19999995617E+02 0.  0.
        -12    1    1    2    0    0 -0.10732877076E+02  0.37332793568E+02  0.19356942718E+02  0.43400729917E+02  0.00000000000E+00 0.  1.
         11    1    3    3    0    0  0.52807500719E+01 -0.55074425715E+01 -0.10078029831E+02  0.12640606415E+02  0.51100000000E-03 0. -1.
        -11    1    3    3    0    0  0.25534066800E+01 -0.23411169917E+02 -0.19731287018E+01  0.23632519961E+02  0.51100000000E-03 0.  1.
        -12    1    3    3    0    0  0.28987203237E+01 -0.84141810793E+01 -0.73057841851E+01  0.11514143707E+02  0.00000000000E+00 0.  1.
</event>
<event>
 7    1  0.2714068E-010  0.4778727E+02  0.7816164E-02  0.1312668E+00
        -11   -1    0    0    0    0  0.00000000000E+00  0.00000000000E+00  0.45593999997E+02  0.45594000000E+02  0.51100000000E-03 0. -1.
         11   -1    0    0    0    0 -0.00000000000E+00 -0.00000000000E+00 -0.45593999997E+02  0.45594000000E+02  0.51100000000E-03 0.  1.
    9900012    2    1    2    0    0  0.18222375684E+02 -0.37753699166E+02  0.11235049773E+02  0.47787272821E+02  0.20000008100E+02 0.  0.
        -12    1    1    2    0    0 -0.18222375684E+02  0.37753699166E+02 -0.11235049773E+02  0.43400727179E+02  0.00000000000E+00 0.  1.
         11    1    3    3    0    0  0.92499576815E+01 -0.23359803850E+02  0.44547611152E+01  0.25516407464E+02  0.51100000000E-03 0. -1.
        -11    1    3    3    0    0  0.21037978885E+01 -0.67619466758E+01  0.93089502352E+01  0.11696428649E+02  0.51100000000E-03 0.  1.
        -12    1    3    3    0    0  0.68686201139E+01 -0.76319486396E+01 -0.25286615774E+01  0.10574436707E+02  0.00000000000E+00 0.  1.
</event>
<event>
 7    1  0.2714068E-010  0.4778721E+02  0.7816164E-02  0.1312668E+00
        -11   -1    0    0    0    0  0.00000000000E+00  0.00000000000E+00  0.45593999997E+02  0.45594000000E+02  0.51100000000E-03 0.  1.
         11   -1    0    0    0    0 -0.00000000000E+00 -0.00000000000E+00 -0.45593999997E+02  0.45594000000E+02  0.51100000000E-03 0. -1.
    9900012    2    1    2    0    0 -0.53144270094E+01 -0.29738175356E+02 -0.31161292948E+02  0.47787212148E+02  0.19999731468E+02 0.  0.
        -12    1    1    2    0    0  0.53144270094E+01  0.29738175356E+02  0.31161292948E+02  0.43400787852E+02  0.00000000000E+00 0.  1.
         11    1    3    3    0    0  0.52432421331E+01 -0.15998614883E+02 -0.18357785825E+02  0.24908945520E+02  0.51100000000E-03 0. -1.
        -11    1    3    3    0    0 -0.90788399630E+01 -0.11837251767E+02 -0.13751337036E+02  0.20289039775E+02  0.51100000000E-03 0.  1.
         12    1    3    3    0    0 -0.14788291795E+01 -0.19023087057E+01  0.94782991298E+00  0.25892268533E+01  0.00000000000E+00 0. -1.
</event>
<event>
 7    1  0.2714068E-010  0.4778727E+02  0.7816164E-02  0.1312668E+00
        -11   -1    0    0    0    0  0.00000000000E+00  0.00000000000E+00  0.45593999997E+02  0.45594000000E+02  0.51100000000E-03 0.  1.
         11   -1    0    0    0    0 -0.00000000000E+00 -0.00000000000E+00 -0.45593999997E+02  0.45594000000E+02  0.51100000000E-03 0. -1.
    9900012    2    1    2    0    0 -0.39760258416E+02  0.16612204454E+02 -0.51749346202E+01  0.47787269195E+02  0.19999991567E+02 0.  0.
        -12    1    1    2    0    0  0.39760258416E+02 -0.16612204454E+02  0.51749346202E+01  0.43400730805E+02  0.00000000000E+00 0.  1.
         11    1    3    3    0    0 -0.24873136978E+02  0.13858292648E+02 -0.11066398291E+02  0.30548165078E+02  0.51100000000E-03 0. -1.
        -11    1    3    3    0    0 -0.14093296321E+02  0.11098501636E+01  0.41932691989E+01  0.14745720579E+02  0.51100000000E-03 0.  1.
        -12    1    3    3    0    0 -0.79382511745E+00  0.16440616425E+01  0.16981944720E+01  0.24933835377E+01  0.00000000000E+00 0.  1.
</event>
<event>
 7    1  0.2714068E-010  0.4778727E+02  0.7816164E-02  0.1312668E+00
        -11   -1    0    0    0    0  0.00000000000E+00  0.00000000000E+00  0.45593999997E+02  0.45594000000E+02  0.51100000000E-03 0. -1.
         11   -1    0    0    0    0 -0.00000000000E+00 -0.00000000000E+00 -0.45593999997E+02  0.45594000000E+02  0.51100000000E-03 0.  1.
    9900012    2    1    2    0    0 -0.42190787143E+02  0.13292188063E+01  0.10089284480E+02  0.47787274157E+02  0.20000014193E+02 0.  0.
        -12    1    1    2    0    0  0.42190787143E+02 -0.13292188063E+01 -0.10089284480E+02  0.43400725843E+02  0.00000000000E+00 0.  1.
         11    1    3    3    0    0 -0.32711730261E+02 -0.90061218566E+00  0.14388361259E+02  0.35747634033E+02  0.51100000000E-03 0. -1.
        -11    1    3    3    0    0 -0.28330096617E+01  0.34308435587E+01 -0.11966450531E+01  0.46074495018E+01  0.51100000000E-03 0.  1.
         12    1    3    3    0    0 -0.66460472195E+01 -0.12010125668E+01 -0.31024317260E+01  0.74321906222E+01  0.00000000000E+00 0. -1.
</event>
<event>
 7    1  0.2714068E-010  0.4778727E+02  0.7816164E-02  0.1312668E+00
        -11   -1    0    0    0    0  0.00000000000E+00  0.00000000000E+00  0.45593999997E+02  0.45594000000E+02  0.51100000000E-03 0.  1.
         11   -1    0    0    0    0 -0.00000000000E+00 -0.00000000000E+00 -0.45593999997E+02  0.45594000000E+02  0.51100000000E-03 0. -1.
    9900012    2    1    2    0    0 -0.38384853139E+02  0.69688319567E+00 -0.20242048657E+02  0.47787272696E+02  0.20000007529E+02 0.  0.
        -12    1    1    2    0    0  0.38384853139E+02 -0.69688319567E+00  0.20242048657E+02  0.43400727304E+02  0.00000000000E+00 0.  1.
         11    1    3    3    0    0 -0.48906570083E+01  0.57873959693E+01 -0.54139499729E+01  0.93125363166E+01  0.51100000000E-03 0. -1.
        -11    1    3    3    0    0 -0.12838852934E+02 -0.27056446582E+01 -0.32698524548E+00  0.13124921992E+02  0.51100000000E-03 0.  1.
         12    1    3    3    0    0 -0.20655343197E+02 -0.23848681154E+01 -0.14501113439E+02  0.25349814388E+02  0.00000000000E+00 0. -1.
</event>
<event>
 7    1  0.2714068E-010  0.4778727E+02  0.7816164E-02  0.1312668E+00
        -11   -1    0    0    0    0  0.00000000000E+00  0.00000000000E+00  0.45593999997E+02  0.45594000000E+02  0.51100000000E-03 0.  1.
         11   -1    0    0    0    0 -0.00000000000E+00 -0.00000000000E+00 -0.45593999997E+02  0.45594000000E+02  0.51100000000E-03 0. -1.
    9900012    2    1    2    0    0  0.14831469392E+02  0.23138781286E+01 -0.40722189695E+02  0.47787271321E+02  0.20000001262E+02 0.  0.
        -12    1    1    2    0    0 -0.14831469392E+02 -0.23138781286E+01  0.40722189695E+02  0.43400728679E+02  0.00000000000E+00 0.  1.
         11    1    3    3    0    0  0.12206878473E+02 -0.16947205388E+01 -0.33094425179E+02  0.35314599501E+02  0.51100000000E-03 0. -1.
        -11    1    3    3    0    0  0.57570747886E+01  0.33033299153E+01 -0.55077458016E+01  0.86250311725E+01  0.51100000000E-03 0.  1.
         12    1    3    3    0    0 -0.31324838692E+01  0.70526875209E+00 -0.21200187143E+01  0.38476406476E+01  0.00000000000E+00 0. -1.
</event>
<event>
 7    1  0.2714068E-010  0.4778727E+02  0.7816164E-02  0.1312668E+00
        -11   -1    0    0    0    0  0.00000000000E+00  0.00000000000E+00  0.45593999997E+02  0.45594000000E+02  0.51100000000E-03 0.  1.
         11   -1    0    0    0    0 -0.00000000000E+00 -0.00000000000E+00 -0.45593999997E+02  0.45594000000E+02  0.51100000000E-03 0. -1.
    9900012    2    1    2    0    0 -0.19894716269E+02  0.33887679004E+02 -0.18424142285E+02  0.47787267948E+02  0.19999985884E+02 0.  0.
        -12    1    1    2    0    0  0.19894716269E+02 -0.33887679004E+02  0.18424142285E+02  0.43400732052E+02  0.00000000000E+00 0.  1.
         11    1    3    3    0    0 -0.16470791411E+02  0.22948246494E+02 -0.92762073048E+01  0.29731414515E+02  0.51100000000E-03 0. -1.
        -11    1    3    3    0    0  0.34061891512E+01  0.61147077014E+01 -0.27234198470E+01  0.75105785884E+01  0.51100000000E-03 0.  1.
         12    1    3    3    0    0 -0.68301140089E+01  0.48247248086E+01 -0.64245151336E+01  0.10545274845E+02  0.00000000000E+00 0. -1.
</event>
<event>
 7    1  0.2714068E-010  0.4778727E+02  0.7816164E-02  0.1312668E+00
        -11   -1    0    0    0    0  0.00000000000E+00  0.00000000000E+00  0.45593999997E+02  0.45594000000E+02  0.51100000000E-03 0. -1.
         11   -1    0    0    0    0 -0.00000000000E+00 -0.00000000000E+00 -0.45593999997E+02  0.45594000000E+02  0.51100000000E-03 0.  1.
    9900012    2    1    2    0    0 -0.58804890163E+01  0.42519546419E+02 -0.64133627214E+01  0.47787271894E+02  0.20000003873E+02 0.  0.
        -12    1    1    2    0    0  0.58804890163E+01 -0.42519546419E+02  0.64133627214E+01  0.43400728106E+02  0.00000000000E+00 0.  1.
         11    1    3    3    0    0 -0.15078511684E+01  0.34688117184E+02 -0.53233371241E+01  0.35126585477E+02  0.51100000000E-03 0. -1.
        -11    1    3    3    0    0 -0.17682261644E+01  0.53152799506E+01 -0.48724146651E+01  0.74242339437E+01  0.51100000000E-03 0.  1.
         12    1    3    3    0    0 -0.26044116836E+01  0.25161492846E+01  0.37823890678E+01  0.52364524729E+01  0.00000000000E+00 0. -1.
</event>
<event>
 7    1  0.2714068E-010  0.4778727E+02  0.7816164E-02  0.1312668E+00
        -11   -1    0    0    0    0  0.00000000000E+00  0.00000000000E+00  0.45593999997E+02  0.45594000000E+02  0.51100000000E-03 0.  1.
         11   -1    0    0    0    0 -0.00000000000E+00 -0.00000000000E+00 -0.45593999997E+02  0.45594000000E+02  0.51100000000E-03 0. -1.
    9900012    2    1    2    0    0  0.19504419519E+02  0.36735210244E+02 -0.12398596049E+02  0.47787271476E+02  0.20000001966E+02 0.  0.
        -12    1    1    2    0    0 -0.19504419519E+02 -0.36735210244E+02  0.12398596049E+02  0.43400728524E+02  0.00000000000E+00 0.  1.
         11    1    3    3    0    0  0.17857934537E+01  0.28539528628E+01 -0.78782945493E+01  0.85674751514E+01  0.51100000000E-03 0. -1.
        -11    1    3    3    0    0  0.51273926962E+01  0.86564922523E+01  0.20589700404E+01  0.10269584795E+02  0.51100000000E-03 0.  1.
         12    1    3    3    0    0  0.12591233369E+02  0.25224765129E+02 -0.65792715396E+01  0.28950211529E+02  0.00000000000E+00 0. -1.
</event>
<event>
 7    1  0.2714068E-010  0.4778727E+02  0.7816164E-02  0.1312668E+00
        -11   -1    0    0    0    0  0.00000000000E+00  0.00000000000E+00  0.45593999997E+02  0.45594000000E+02  0.51100000000E-03 0.  1.
         11   -1    0    0    0    0 -0.00000000000E+00 -0.00000000000E+00 -0.45593999997E+02  0.45594000000E+02  0.51100000000E-03 0. -1.
    9900012    2    1    2    0    0 -0.22730077853E+02  0.32837228253E+02 -0.16990695850E+02  0.47787265628E+02  0.19999975305E+02 0.  0.
        -12    1    1    2    0    0  0.22730077853E+02 -0.32837228253E+02  0.16990695850E+02  0.43400734372E+02  0.00000000000E+00 0.  1.
         11    1    3    3    0    0 -0.62784125033E+00  0.45986903385E+01  0.26204322328E+01  0.53299908830E+01  0.51100000000E-03 0.  1.
        -11    1    3    3    0    0 -0.21372812345E+02  0.20901835971E+02 -0.18049331224E+02  0.34920799138E+02  0.51100000000E-03 0. -1.
         12    1    3    3    0    0 -0.72942425723E+00  0.73367019437E+01 -0.15617968585E+01  0.75364756077E+01  0.00000000000E+00 0. -1.
</event>
<event>
 7    1  0.2714068E-010  0.4778727E+02  0.7816164E-02  0.1312668E+00
        -11   -1    0    0    0    0  0.00000000000E+00  0.00000000000E+00  0.45593999997E+02  0.45594000000E+02  0.51100000000E-03 0.  1.
         11   -1    0    0    0    0 -0.00000000000E+00 -0.00000000000E+00 -0.45593999997E+02  0.45594000000E+02  0.51100000000E-03 0. -1.
    9900012    2    1    2    0    0 -0.21724975847E+02 -0.33424755936E+02 -0.17159081755E+02  0.47787274527E+02  0.20000015878E+02 0.  0.
        -12    1    1    2    0    0  0.21724975847E+02  0.33424755936E+02  0.17159081755E+02  0.43400725473E+02  0.00000000000E+00 0.  1.
         11    1    3    3    0    0 -0.41968541430E+01 -0.14992053281E+02 -0.11939276871E+02  0.19619418410E+02  0.51100000000E-03 0. -1.
        -11    1    3    3    0    0 -0.16506179540E+02 -0.16577763678E+02 -0.96349314146E+00  0.23413767977E+02  0.51100000000E-03 0.  1.
        -12    1    3    3    0    0 -0.10219421632E+01 -0.18549389769E+01 -0.42563117424E+01  0.47540881398E+01  0.00000000000E+00 0.  1.
</event>
<event>
 7    1  0.2714068E-010  0.4778727E+02  0.7816164E-02  0.1312668E+00
        -11   -1    0    0    0    0  0.00000000000E+00  0.00000000000E+00  0.45593999997E+02  0.45594000000E+02  0.51100000000E-03 0.  1.
         11   -1    0    0    0    0 -0.00000000000E+00 -0.00000000000E+00 -0.45593999997E+02  0.45594000000E+02  0.51100000000E-03 0. -1.
    9900012    2    1    2    0    0  0.91747422430E+01  0.33265628615E+02 -0.26321952578E+02  0.47787272703E+02  0.20000007562E+02 0.  0.
        -12    1    1    2    0    0 -0.91747422430E+01 -0.33265628615E+02  0.26321952578E+02  0.43400727297E+02  0.00000000000E+00 0.  1.
         11    1    3    3    0    0  0.98676834022E+01  0.23105715841E+02 -0.23701012903E+02  0.34539590229E+02  0.51100000000E-03 0. -1.
        -11    1    3    3    0    0 -0.12798404188E+01  0.76287083376E+01  0.19612263544E+01  0.79800746533E+01  0.51100000000E-03 0.  1.
        -12    1    3    3    0    0  0.58689925955E+00  0.25312044365E+01 -0.45821660290E+01  0.52676078212E+01  0.00000000000E+00 0.  1.
</event>
<event>
 7    1  0.2714068E-010  0.4778727E+02  0.7816164E-02  0.1312668E+00
        -11   -1    0    0    0    0  0.00000000000E+00  0.00000000000E+00  0.45593999997E+02  0.45594000000E+02  0.51100000000E-03 0.  1.
         11   -1    0    0    0    0 -0.00000000000E+00 -0.00000000000E+00 -0.45593999997E+02  0.45594000000E+02  0.51100000000E-03 0. -1.
    9900012    2    1    2    0    0 -0.36201993045E+02  0.23875895404E+02  0.17265023059E+01  0.47787268532E+02  0.19999988543E+02 0.  0.
        -12    1    1    2    0    0  0.36201993045E+02 -0.23875895404E+02 -0.17265023059E+01  0.43400731468E+02  0.00000000000E+00 0.  1.
         11    1    3    3    0    0 -0.24968679539E+02  0.84471862533E+01 -0.46556191093E+01  0.26766858297E+02  0.51100000000E-03 0. -1.
        -11    1    3    3    0    0 -0.77422044010E+00  0.46702670291E+01  0.31071281659E+01  0.56626016206E+01  0.51100000000E-03 0.  1.
         12    1    3    3    0    0 -0.10459093066E+02  0.10758442122E+02  0.32749932493E+01  0.15357808614E+02  0.00000000000E+00 0. -1.
</event>
<event>
 7    1  0.2714068E-010  0.4778727E+02  0.7816164E-02  0.1312668E+00
        -11   -1    0    0    0    0  0.00000000000E+00  0.00000000000E+00  0.45593999997E+02  0.45594000000E+02  0.51100000000E-03 0. -1.
         11   -1    0    0    0    0 -0.00000000000E+00 -0.00000000000E+00 -0.45593999997E+02  0.45594000000E+02  0.51100000000E-03 0.  1.
    9900012    2    1    2    0    0 -0.37930117896E+02  0.13585442157E+02  0.16135831389E+02  0.47787272623E+02  0.20000007198E+02 0.  0.
        -12    1    1    2    0    0  0.37930117896E+02 -0.13585442157E+02 -0.16135831389E+02  0.43400727377E+02  0.00000000000E+00 0.  1.
         11    1    3    3    0    0 -0.12135046223E+02  0.12578044652E+02  0.12029629121E+02  0.21217411037E+02  0.51100000000E-03 0. -1.
        -11    1    3    3    0    0 -0.59493993375E+01 -0.12468009258E+01 -0.40967081214E+00  0.60924293562E+01  0.51100000000E-03 0.  1.
         12    1    3    3    0    0 -0.19845672336E+02  0.22541984315E+01  0.45158730804E+01  0.20477432230E+02  0.00000000000E+00 0. -1.
</event>
<event>
 7    1  0.2714068E-010  0.4778727E+02  0.7816164E-02  0.1312668E+00
        -11   -1    0    0    0    0  0.00000000000E+00  0.00000000000E+00  0.45593999997E+02  0.45594000000E+02  0.51100000000E-03 0.  1.
         11   -1    0    0    0    0 -0.00000000000E+00 -0.00000000000E+00 -0.45593999997E+02  0.45594000000E+02  0.51100000000E-03 0. -1.
    9900012    2    1    2    0    0 -0.20181776086E+01  0.42943231993E+02 -0.59522326161E+01  0.47787270882E+02  0.19999999259E+02 0.  0.
        -12    1    1    2    0    0  0.20181776086E+01 -0.42943231993E+02  0.59522326161E+01  0.43400729118E+02  0.00000000000E+00 0.  1.
         11    1    3    3    0    0 -0.41727578242E+01  0.19761118887E+02  0.21781932225E+01  0.20313991570E+02  0.51100000000E-03 0. -1.
        -11    1    3    3    0    0  0.63155188857E+01  0.15791899761E+02 -0.84392208205E+01  0.18986582767E+02  0.51100000000E-03 0.  1.
        -12    1    3    3    0    0 -0.41609386702E+01  0.73902133446E+01  0.30879498195E+00  0.84866965444E+01  0.00000000000E+00 0.  1.
</event>
<event>
 7    1  0.2714068E-010  0.4778727E+02  0.7816164E-02  0.1312668E+00
        -11   -1    0    0    0    0  0.00000000000E+00  0.00000000000E+00  0.45593999997E+02  0.45594000000E+02  0.51100000000E-03 0.  1.
         11   -1    0    0    0    0 -0.00000000000E+00 -0.00000000000E+00 -0.45593999997E+02  0.45594000000E+02  0.51100000000E-03 0. -1.
    9900012    2    1    2    0    0  0.34117884260E+02  0.26801982003E+02  0.11166627601E+01  0.47787271880E+02  0.20000003809E+02 0.  0.
        -12    1    1    2    0    0 -0.34117884260E+02 -0.26801982003E+02 -0.11166627601E+01  0.43400728120E+02  0.00000000000E+00 0.  1.
         11    1    3    3    0    0  0.30033444229E+02  0.22000316040E+02 -0.60683179812E+00  0.37234257387E+02  0.51100000000E-03 0. -1.
        -11    1    3    3    0    0 -0.20077489938E+01  0.37142092013E+01  0.75943688915E+00  0.42898893532E+01  0.51100000000E-03 0.  1.
         12    1    3    3    0    0  0.60921890247E+01  0.10874567615E+01  0.96405766903E+00  0.62631251392E+01  0.00000000000E+00 0. -1.
</event>
<event>
 7    1  0.2714068E-010  0.4778728E+02  0.7816164E-02  0.1312668E+00
        -11   -1    0    0    0    0  0.00000000000E+00  0.00000000000E+00  0.45593999997E+02  0.45594000000E+02  0.51100000000E-03 0.  1.
         11   -1    0    0    0    0 -0.00000000000E+00 -0.00000000000E+00 -0.45593999997E+02  0.45594000000E+02  0.51100000000E-03 0. -1.
    9900012    2    1    2    0    0 -0.11789110113E+02 -0.23859316730E+01 -0.41700676327E+02  0.47787283492E+02  0.20000056755E+02 0.  0.
        -12    1    1    2    0    0  0.11789110113E+02  0.23859316730E+01  0.41700676327E+02  0.43400716508E+02  0.00000000000E+00 0.  1.
         11    1    3    3    0    0 -0.50819908278E+01 -0.91694064452E+01 -0.15892149979E+02  0.19038515608E+02  0.51100000000E-03 0.  1.
        -11    1    3    3    0    0 -0.24508455969E+01  0.67835243434E+01 -0.97017886453E+01  0.12089150087E+02  0.51100000000E-03 0. -1.
        -12    1    3    3    0    0 -0.42562736887E+01 -0.49571280290E-04 -0.16106737703E+02  0.16659617797E+02  0.00000000000E+00 0.  1.
</event>
<event>
 7    1  0.2714068E-010  0.4778727E+02  0.7816164E-02  0.1312668E+00
        -11   -1    0    0    0    0  0.00000000000E+00  0.00000000000E+00  0.45593999997E+02  0.45594000000E+02  0.51100000000E-03 0.  1.
         11   -1    0    0    0    0 -0.00000000000E+00 -0.00000000000E+00 -0.45593999997E+02  0.45594000000E+02  0.51100000000E-03 0. -1.
    9900012    2    1    2    0    0 -0.40547378098E+02  0.58758635097E+01 -0.14318092404E+02  0.47787269446E+02  0.19999992710E+02 0.  0.
        -12    1    1    2    0    0  0.40547378098E+02 -0.58758635097E+01  0.14318092404E+02  0.43400730554E+02  0.00000000000E+00 0.  1.
         11    1    3    3    0    0 -0.15528632031E+02 -0.13813551248E+01 -0.13051618224E+02  0.20332026295E+02  0.51100000000E-03 0. -1.
        -11    1    3    3    0    0 -0.81941901914E+01  0.21808133135E+01  0.36124156577E+01  0.92168458133E+01  0.51100000000E-03 0.  1.
        -12    1    3    3    0    0 -0.16824555875E+02  0.50764053210E+01 -0.48788898376E+01  0.18238397337E+02  0.00000000000E+00 0.  1.
</event>
<event>
 7    1  0.2714068E-010  0.4778727E+02  0.7816164E-02  0.1312668E+00
        -11   -1    0    0    0    0  0.00000000000E+00  0.00000000000E+00  0.45593999997E+02  0.45594000000E+02  0.51100000000E-03 0. -1.
         11   -1    0    0    0    0 -0.00000000000E+00 -0.00000000000E+00 -0.45593999997E+02  0.45594000000E+02  0.51100000000E-03 0.  1.
    9900012    2    1    2    0    0 -0.25364294153E+02  0.25219031483E+01  0.35127138055E+02  0.47787271420E+02  0.20000001711E+02 0.  0.
        -12    1    1    2    0    0  0.25364294153E+02 -0.25219031483E+01 -0.35127138055E+02  0.43400728580E+02  0.00000000000E+00 0.  1.
         11    1    3    3    0    0 -0.23163535042E+01 -0.50348015819E+01  0.10124156337E+02  0.11541804985E+02  0.51100000000E-03 0. -1.
        -11    1    3    3    0    0 -0.18929124361E+01 -0.18869252998E+01  0.91587026173E+00  0.28253182431E+01  0.51100000000E-03 0.  1.
         12    1    3    3    0    0 -0.21155028212E+02  0.94436300299E+01  0.24087111456E+02  0.33420148191E+02  0.00000000000E+00 0. -1.
</event>
<event>
 7    1  0.2714068E-010  0.4778727E+02  0.7816164E-02  0.1312668E+00
        -11   -1    0    0    0    0  0.00000000000E+00  0.00000000000E+00  0.45593999997E+02  0.45594000000E+02  0.51100000000E-03 0. -1.
         11   -1    0    0    0    0 -0.00000000000E+00 -0.00000000000E+00 -0.45593999997E+02  0.45594000000E+02  0.51100000000E-03 0.  1.
    9900012    2    1    2    0    0 -0.35395799031E+02 -0.25063354333E+02 -0.16089754461E+01  0.47787272801E+02  0.20000008009E+02 0.  0.
        -12    1    1    2    0    0  0.35395799031E+02  0.25063354333E+02  0.16089754461E+01  0.43400727199E+02  0.00000000000E+00 0.  1.
         11    1    3    3    0    0 -0.17403313426E+02 -0.64759687506E+01 -0.66538997786E+00  0.18581071916E+02  0.51100000000E-03 0. -1.
        -11    1    3    3    0    0 -0.78167494719E+01 -0.16286936774E+02  0.24604098028E+01  0.18232375009E+02  0.51100000000E-03 0.  1.
        -12    1    3    3    0    0 -0.10175736133E+02 -0.23004488075E+01 -0.34039952710E+01  0.10973825876E+02  0.00000000000E+00 0.  1.
</event>
<event>
 7    1  0.2714068E-010  0.4778728E+02  0.7816164E-02  0.1312668E+00
        -11   -1    0    0    0    0  0.00000000000E+00  0.00000000000E+00  0.45593999997E+02  0.45594000000E+02  0.51100000000E-03 0. -1.
         11   -1    0    0    0    0 -0.00000000000E+00 -0.00000000000E+00 -0.45593999997E+02  0.45594000000E+02  0.51100000000E-03 0.  1.
    9900012    2    1    2    0    0  0.30820414169E+02 -0.85411505615E+01  0.29338945719E+02  0.47787275140E+02  0.20000018671E+02 0.  0.
        -12    1    1    2    0    0 -0.30820414169E+02  0.85411505615E+01 -0.29338945719E+02  0.43400724860E+02  0.00000000000E+00 0.  1.
         11    1    3    3    0    0  0.56200581831E+01 -0.21779550772E+01 -0.72202540285E+00  0.60704088201E+01  0.51100000000E-03 0. -1.
        -11    1    3    3    0    0  0.26259226467E+02 -0.43520491304E+01  0.27117131863E+02  0.37997712392E+02  0.51100000000E-03 0.  1.
         12    1    3    3    0    0 -0.10588704808E+01 -0.20111463540E+01  0.29438392598E+01  0.37191539279E+01  0.00000000000E+00 0. -1.
</event>
<event>
 7    1  0.2714068E-010  0.4778727E+02  0.7816164E-02  0.1312668E+00
        -11   -1    0    0    0    0  0.00000000000E+00  0.00000000000E+00  0.45593999997E+02  0.45594000000E+02  0.51100000000E-03 0.  1.
         11   -1    0    0    0    0 -0.00000000000E+00 -0.00000000000E+00 -0.45593999997E+02  0.45594000000E+02  0.51100000000E-03 0. -1.
    9900012    2    1    2    0    0 -0.12792509369E+02 -0.50780945981E+01 -0.41160514637E+02  0.47787270676E+02  0.19999998319E+02 0.  0.
        -12    1    1    2    0    0  0.12792509369E+02  0.50780945981E+01  0.41160514637E+02  0.43400729324E+02  0.00000000000E+00 0.  1.
         11    1    3    3    0    0  0.26334137386E+01 -0.48532016185E+01 -0.75987205049E+01  0.93930286618E+01  0.51100000000E-03 0. -1.
        -11    1    3    3    0    0 -0.86868073647E+01  0.76071940914E+00 -0.76427851573E+01  0.11595321532E+02  0.51100000000E-03 0.  1.
         12    1    3    3    0    0 -0.67391157428E+01 -0.98561238875E+00 -0.25919008975E+02  0.26798920482E+02  0.00000000000E+00 0. -1.
</event>
<event>
 7    1  0.2714068E-010  0.4778727E+02  0.7816164E-02  0.1312668E+00
        -11   -1    0    0    0    0  0.00000000000E+00  0.00000000000E+00  0.45593999997E+02  0.45594000000E+02  0.51100000000E-03 0.  1.
         11   -1    0    0    0    0 -0.00000000000E+00 -0.00000000000E+00 -0.45593999997E+02  0.45594000000E+02  0.51100000000E-03 0. -1.
    9900012    2    1    2    0    0 -0.18387670797E+02 -0.71693434524E+00 -0.39306523984E+02  0.47787271206E+02  0.20000000736E+02 0.  0.
        -12    1    1    2    0    0  0.18387670797E+02  0.71693434524E+00  0.39306523984E+02  0.43400728794E+02  0.00000000000E+00 0.  1.
         11    1    3    3    0    0 -0.13120320166E+02 -0.22967111564E+01 -0.18946447661E+02  0.23159999193E+02  0.51100000000E-03 0. -1.
        -11    1    3    3    0    0  0.27546085049E+01 -0.12796689425E+01 -0.58067311032E+00  0.30923457342E+01  0.51100000000E-03 0.  1.
        -12    1    3    3    0    0 -0.80219591354E+01  0.28594457536E+01 -0.19779403212E+02  0.21534926278E+02  0.00000000000E+00 0.  1.
</event>
<event>
 7    1  0.2714068E-010  0.4778727E+02  0.7816164E-02  0.1312668E+00
        -11   -1    0    0    0    0  0.00000000000E+00  0.00000000000E+00  0.45593999997E+02  0.45594000000E+02  0.51100000000E-03 0. -1.
         11   -1    0    0    0    0 -0.00000000000E+00 -0.00000000000E+00 -0.45593999997E+02  0.45594000000E+02  0.51100000000E-03 0.  1.
    9900012    2    1    2    0    0  0.66978545420E+01 -0.28255968093E+02  0.32254654502E+02  0.47787265843E+02  0.19999976283E+02 0.  0.
        -12    1    1    2    0    0 -0.66978545420E+01  0.28255968093E+02 -0.32254654502E+02  0.43400734157E+02  0.00000000000E+00 0.  1.
         11    1    3    3    0    0 -0.41352997757E+01 -0.17767301481E+02  0.11925968738E+02  0.21794642386E+02  0.51100000000E-03 0. -1.
        -11    1    3    3    0    0  0.90648557055E+01 -0.90949863227E+01  0.12785885997E+02  0.18120962065E+02  0.51100000000E-03 0.  1.
         12    1    3    3    0    0  0.17682986121E+01 -0.13936802895E+01  0.75427997672E+01  0.78716613913E+01  0.00000000000E+00 0. -1.
</event>
<event>
 7    1  0.2714068E-010  0.4778727E+02  0.7816164E-02  0.1312668E+00
        -11   -1    0    0    0    0  0.00000000000E+00  0.00000000000E+00  0.45593999997E+02  0.45594000000E+02  0.51100000000E-03 0.  1.
         11   -1    0    0    0    0 -0.00000000000E+00 -0.00000000000E+00 -0.45593999997E+02  0.45594000000E+02  0.51100000000E-03 0. -1.
    9900012    2    1    2    0    0 -0.37939282912E+02 -0.19693512908E+02 -0.75099622654E+01  0.47787272221E+02  0.20000005364E+02 0.  0.
        -12    1    1    2    0    0  0.37939282912E+02  0.19693512908E+02  0.75099622654E+01  0.43400727779E+02  0.00000000000E+00 0.  1.
         11    1    3    3    0    0 -0.18122865624E+02 -0.22039317923E+01 -0.10539831107E+02  0.21080408293E+02  0.51100000000E-03 0. -1.
        -11    1    3    3    0    0 -0.13662820544E+02 -0.11906961527E+02  0.98251468506E+00  0.18149758494E+02  0.51100000000E-03 0.  1.
         12    1    3    3    0    0 -0.61535967434E+01 -0.55826195885E+01  0.20473541568E+01  0.85571054332E+01  0.00000000000E+00 0. -1.
</event>
<event>
 7    1  0.2714068E-010  0.4778728E+02  0.7816164E-02  0.1312668E+00
        -11   -1    0    0    0    0  0.00000000000E+00  0.00000000000E+00  0.45593999997E+02  0.45594000000E+02  0.51100000000E-03 0.  1.
         11   -1    0    0    0    0 -0.00000000000E+00 -0.00000000000E+00 -0.45593999997E+02  0.45594000000E+02  0.51100000000E-03 0. -1.
    9900012    2    1    2    0    0  0.28682976895E+02 -0.32174951182E+02  0.50677234300E+01  0.47787280329E+02  0.20000042334E+02 0.  0.
        -12    1    1    2    0    0 -0.28682976895E+02  0.32174951182E+02 -0.50677234300E+01  0.43400719671E+02  0.00000000000E+00 0.  1.
         11    1    3    3    0    0  0.10494987412E+02 -0.19229003234E+02  0.10050989953E+02  0.24102317844E+02  0.51100000000E-03 0. -1.
        -11    1    3    3    0    0  0.13619892085E+02 -0.61528966046E+01 -0.27088727927E+01  0.15188732307E+02  0.51100000000E-03 0.  1.
         12    1    3    3    0    0  0.45680973990E+01 -0.67930513435E+01 -0.22743937306E+01  0.84962301784E+01  0.00000000000E+00 0. -1.
</event>
<event>
 7    1  0.2714068E-010  0.4778727E+02  0.7816164E-02  0.1312668E+00
        -11   -1    0    0    0    0  0.00000000000E+00  0.00000000000E+00  0.45593999997E+02  0.45594000000E+02  0.51100000000E-03 0.  1.
         11   -1    0    0    0    0 -0.00000000000E+00 -0.00000000000E+00 -0.45593999997E+02  0.45594000000E+02  0.51100000000E-03 0. -1.
    9900012    2    1    2    0    0  0.32167561612E+02 -0.19950155781E+01  0.29067007077E+02  0.47787274112E+02  0.20000013985E+02 0.  0.
        -12    1    1    2    0    0 -0.32167561612E+02  0.19950155781E+01 -0.29067007077E+02  0.43400725888E+02  0.00000000000E+00 0.  1.
         11    1    3    3    0    0  0.29088813912E+02  0.14507482572E+01  0.16335309759E+02  0.33393204555E+02  0.51100000000E-03 0. -1.
        -11    1    3    3    0    0  0.43432618616E+01 -0.30952795196E+01  0.93106260125E+01  0.10729978374E+02  0.51100000000E-03 0.  1.
         12    1    3    3    0    0 -0.12645141610E+01 -0.35048431565E+00  0.34210713048E+01  0.36640911822E+01  0.00000000000E+00 0. -1.
</event>
<event>
 7    1  0.2714068E-010  0.4778728E+02  0.7816164E-02  0.1312668E+00
        -11   -1    0    0    0    0  0.00000000000E+00  0.00000000000E+00  0.45593999997E+02  0.45594000000E+02  0.51100000000E-03 0.  1.
         11   -1    0    0    0    0 -0.00000000000E+00 -0.00000000000E+00 -0.45593999997E+02  0.45594000000E+02  0.51100000000E-03 0. -1.
    9900012    2    1    2    0    0  0.26967453016E+02  0.33815501241E+02  0.35903825595E+01  0.47787280037E+02  0.20000041003E+02 0.  0.
        -12    1    1    2    0    0 -0.26967453016E+02 -0.33815501241E+02 -0.35903825595E+01  0.43400719963E+02  0.00000000000E+00 0.  1.
         11    1    3    3    0    0  0.11767234490E+01  0.73900606459E+01 -0.49421335272E+01  0.89678513863E+01  0.51100000000E-03 0.  1.
        -11    1    3    3    0    0  0.97407929200E+01  0.51031826275E+01  0.76009520786E+00  0.11022851928E+02  0.51100000000E-03 0. -1.
         12    1    3    3    0    0  0.16049936647E+02  0.21322257968E+02  0.77724208788E+01  0.27796576723E+02  0.00000000000E+00 0. -1.
</event>
<event>
 7    1  0.2714068E-010  0.4778727E+02  0.7816164E-02  0.1312668E+00
        -11   -1    0    0    0    0  0.00000000000E+00  0.00000000000E+00  0.45593999997E+02  0.45594000000E+02  0.51100000000E-03 0. -1.
         11   -1    0    0    0    0 -0.00000000000E+00 -0.00000000000E+00 -0.45593999997E+02  0.45594000000E+02  0.51100000000E-03 0.  1.
    9900012    2    1    2    0    0  0.17899631899E+01  0.36024721187E+02  0.24137912126E+02  0.47787270667E+02  0.19999998278E+02 0.  0.
        -12    1    1    2    0    0 -0.17899631899E+01 -0.36024721187E+02 -0.24137912126E+02  0.43400729333E+02  0.00000000000E+00 0.  1.
         11    1    3    3    0    0  0.72088606015E+01  0.16559836764E+02  0.44291498421E+01  0.18596054243E+02  0.51100000000E-03 0. -1.
        -11    1    3    3    0    0 -0.46216692590E+00  0.39695952759E+01  0.51373146874E+00  0.40292933878E+01  0.51100000000E-03 0.  1.
         12    1    3    3    0    0 -0.49567304857E+01  0.15495289147E+02  0.19195030815E+02  0.25161923036E+02  0.00000000000E+00 0. -1.
</event>
<event>
 7    1  0.2714068E-010  0.4778727E+02  0.7816164E-02  0.1312668E+00
        -11   -1    0    0    0    0  0.00000000000E+00  0.00000000000E+00  0.45593999997E+02  0.45594000000E+02  0.51100000000E-03 0.  1.
         11   -1    0    0    0    0 -0.00000000000E+00 -0.00000000000E+00 -0.45593999997E+02  0.45594000000E+02  0.51100000000E-03 0. -1.
    9900012    2    1    2    0    0 -0.67426642283E+01  0.40013330017E+02 -0.15397825876E+02  0.47787272568E+02  0.20000006948E+02 0.  0.
        -12    1    1    2    0    0  0.67426642283E+01 -0.40013330017E+02  0.15397825876E+02  0.43400727432E+02  0.00000000000E+00 0.  1.
         11    1    3    3    0    0 -0.87876124112E+01  0.17288593763E+02 -0.83051977408E+01  0.21097249014E+02  0.51100000000E-03 0. -1.
        -11    1    3    3    0    0  0.51646995375E+01  0.18930916603E+02 -0.21806946459E+01  0.19743585139E+02  0.51100000000E-03 0.  1.
         12    1    3    3    0    0 -0.31197513546E+01  0.37938196511E+01 -0.49119334891E+01  0.69464384155E+01  0.00000000000E+00 0. -1.
</event>
<event>
 7    1  0.2714068E-010  0.4778727E+02  0.7816164E-02  0.1312668E+00
        -11   -1    0    0    0    0  0.00000000000E+00  0.00000000000E+00  0.45593999997E+02  0.45594000000E+02  0.51100000000E-03 0.  1.
         11   -1    0    0    0    0 -0.00000000000E+00 -0.00000000000E+00 -0.45593999997E+02  0.45594000000E+02  0.51100000000E-03 0. -1.
    9900012    2    1    2    0    0  0.22865631241E+01  0.55340019130E+00 -0.43336923206E+02  0.47787268029E+02  0.19999986251E+02 0.  0.
        -12    1    1    2    0    0 -0.22865631241E+01 -0.55340019130E+00  0.43336923206E+02  0.43400731971E+02  0.00000000000E+00 0.  1.
         11    1    3    3    0    0  0.22780292681E+00 -0.16366438574E+01 -0.21782518523E+02  0.21845104961E+02  0.51100000000E-03 0. -1.
        -11    1    3    3    0    0 -0.22407526134E+01 -0.25687676178E+01  0.46716212491E-01  0.34090646832E+01  0.51100000000E-03 0.  1.
        -12    1    3    3    0    0  0.42995128106E+01  0.47588116665E+01 -0.21601120895E+02  0.22533098384E+02  0.00000000000E+00 0.  1.
</event>
<event>
 7    1  0.2714068E-010  0.4778727E+02  0.7816164E-02  0.1312668E+00
        -11   -1    0    0    0    0  0.00000000000E+00  0.00000000000E+00  0.45593999997E+02  0.45594000000E+02  0.51100000000E-03 0.  1.
         11   -1    0    0    0    0 -0.00000000000E+00 -0.00000000000E+00 -0.45593999997E+02  0.45594000000E+02  0.51100000000E-03 0. -1.
    9900012    2    1    2    0    0  0.98441745096E+01 -0.31872822960E+02 -0.27763983099E+02  0.47787269906E+02  0.19999994809E+02 0.  0.
        -12    1    1    2    0    0 -0.98441745096E+01  0.31872822960E+02  0.27763983099E+02  0.43400730094E+02  0.00000000000E+00 0.  1.
         11    1    3    3    0    0  0.59865723558E+00 -0.19937386412E+02 -0.10310495423E+02  0.22453598455E+02  0.51100000000E-03 0. -1.
        -11    1    3    3    0    0  0.38702115931E+00  0.92526741651E+00 -0.57023446438E+01  0.57898739078E+01  0.51100000000E-03 0.  1.
        -12    1    3    3    0    0  0.88584961148E+01 -0.12860703964E+02 -0.11751143032E+02  0.19543797544E+02  0.00000000000E+00 0.  1.
</event>
<event>
 7    1  0.2714068E-010  0.4778727E+02  0.7816164E-02  0.1312668E+00
        -11   -1    0    0    0    0  0.00000000000E+00  0.00000000000E+00  0.45593999997E+02  0.45594000000E+02  0.51100000000E-03 0.  1.
         11   -1    0    0    0    0 -0.00000000000E+00 -0.00000000000E+00 -0.45593999997E+02  0.45594000000E+02  0.51100000000E-03 0. -1.
    9900012    2    1    2    0    0 -0.17523038775E+02 -0.25548167809E+02 -0.30395027198E+02  0.47787269077E+02  0.19999991029E+02 0.  0.
        -12    1    1    2    0    0  0.17523038775E+02  0.25548167809E+02  0.30395027198E+02  0.43400730923E+02  0.00000000000E+00 0.  1.
         11    1    3    3    0    0  0.12149571518E+01 -0.10150009639E+02 -0.16713923239E+02  0.19592193518E+02  0.51100000000E-03 0.  1.
        -11    1    3    3    0    0 -0.14110092197E+02 -0.12821491438E+02 -0.88235380596E+01  0.21008097693E+02  0.51100000000E-03 0. -1.
        -12    1    3    3    0    0 -0.46279037301E+01 -0.25766667307E+01 -0.48575658997E+01  0.71869778659E+01  0.00000000000E+00 0.  1.
</event>
<event>
 7    1  0.2714068E-010  0.4778727E+02  0.7816164E-02  0.1312668E+00
        -11   -1    0    0    0    0  0.00000000000E+00  0.00000000000E+00  0.45593999997E+02  0.45594000000E+02  0.51100000000E-03 0. -1.
         11   -1    0    0    0    0 -0.00000000000E+00 -0.00000000000E+00 -0.45593999997E+02  0.45594000000E+02  0.51100000000E-03 0.  1.
    9900012    2    1    2    0    0 -0.28925530353E+02  0.28862316038E+02  0.14625447351E+02  0.47787270703E+02  0.19999998443E+02 0.  0.
        -12    1    1    2    0    0  0.28925530353E+02 -0.28862316038E+02 -0.14625447351E+02  0.43400729297E+02  0.00000000000E+00 0.  1.
         11    1    3    3    0    0 -0.28434457911E+02  0.31395859676E+02  0.12652326113E+02  0.44207462694E+02  0.51100000000E-03 0. -1.
        -11    1    3    3    0    0 -0.48815015241E+00 -0.10989518730E+01  0.17569005663E+01  0.21290104865E+01  0.51100000000E-03 0.  1.
         12    1    3    3    0    0 -0.29222901994E-02 -0.14345917653E+01  0.21622067097E+00  0.14507975226E+01  0.00000000000E+00 0. -1.
</event>
<event>
 7    1  0.2714068E-010  0.4778733E+02  0.7816164E-02  0.1312667E+00
        -11   -1    0    0    0    0  0.00000000000E+00  0.00000000000E+00  0.45593999997E+02  0.45594000000E+02  0.51100000000E-03 0. -1.
         11   -1    0    0    0    0 -0.00000000000E+00 -0.00000000000E+00 -0.45593999997E+02  0.45594000000E+02  0.51100000000E-03 0.  1.
    9900012    2    1    2    0    0 -0.31473219062E+02 -0.29419873038E+02  0.52464805419E+01  0.47787331736E+02  0.20000276716E+02 0.  0.
        -12    1    1    2    0    0  0.31473219062E+02  0.29419873038E+02 -0.52464805419E+01  0.43400668264E+02  0.00000000000E+00 0.  1.
         11    1    3    3    0    0 -0.18105792078E+02 -0.26240634412E+02  0.35910109181E+00  0.31882903804E+02  0.51100000000E-03 0. -1.
        -11    1    3    3    0    0 -0.19603752195E+01  0.64782247467E-01  0.34362001903E+01  0.39566071008E+01  0.51100000000E-03 0.  1.
         12    1    3    3    0    0 -0.11407051764E+02 -0.32440208733E+01  0.14511792598E+01  0.11947820832E+02  0.00000000000E+00 0. -1.
</event>
<event>
 7    1  0.2714068E-010  0.4778727E+02  0.7816164E-02  0.1312668E+00
        -11   -1    0    0    0    0  0.00000000000E+00  0.00000000000E+00  0.45593999997E+02  0.45594000000E+02  0.51100000000E-03 0.  1.
         11   -1    0    0    0    0 -0.00000000000E+00 -0.00000000000E+00 -0.45593999997E+02  0.45594000000E+02  0.51100000000E-03 0. -1.
    9900012    2    1    2    0    0  0.37064095092E+02 -0.23834541113E+01 -0.22454294367E+02  0.47787270352E+02  0.19999996842E+02 0.  0.
        -12    1    1    2    0    0 -0.37064095092E+02  0.23834541113E+01  0.22454294367E+02  0.43400729648E+02  0.00000000000E+00 0.  1.
         11    1    3    3    0    0  0.34585585528E+02 -0.31952762772E+01 -0.13425210613E+02  0.37237196418E+02  0.51100000000E-03 0. -1.
        -11    1    3    3    0    0  0.33508439638E+01  0.37453263595E+00 -0.89581805906E+01  0.95716994165E+01  0.51100000000E-03 0.  1.
         12    1    3    3    0    0 -0.87233439978E+00  0.43728952998E+00 -0.70903163442E-01  0.97837451758E+00  0.00000000000E+00 0. -1.
</event>
<event>
 7    1  0.2714068E-010  0.4778728E+02  0.7816164E-02  0.1312668E+00
        -11   -1    0    0    0    0  0.00000000000E+00  0.00000000000E+00  0.45593999997E+02  0.45594000000E+02  0.51100000000E-03 0.  1.
         11   -1    0    0    0    0 -0.00000000000E+00 -0.00000000000E+00 -0.45593999997E+02  0.45594000000E+02  0.51100000000E-03 0. -1.
    9900012    2    1    2    0    0 -0.85515533421E+01 -0.12543998782E+02 -0.40658841622E+02  0.47787281434E+02  0.20000047370E+02 0.  0.
        -12    1    1    2    0    0  0.85515533421E+01  0.12543998782E+02  0.40658841622E+02  0.43400718566E+02  0.00000000000E+00 0.  1.
         11    1    3    3    0    0  0.12256681192E+01 -0.56479879966E+00 -0.84283992915E+01  0.85357586013E+01  0.51100000000E-03 0. -1.
        -11    1    3    3    0    0 -0.10533142528E+02 -0.56503357974E+01 -0.30330068729E+02  0.32600405757E+02  0.51100000000E-03 0.  1.
        -12    1    3    3    0    0  0.75592106691E+00 -0.63288641852E+01 -0.19003736017E+01  0.66511170761E+01  0.00000000000E+00 0.  1.
</event>
<event>
 7    1  0.2714068E-010  0.4778727E+02  0.7816164E-02  0.1312668E+00
        -11   -1    0    0    0    0  0.00000000000E+00  0.00000000000E+00  0.45593999997E+02  0.45594000000E+02  0.51100000000E-03 0.  1.
         11   -1    0    0    0    0 -0.00000000000E+00 -0.00000000000E+00 -0.45593999997E+02  0.45594000000E+02  0.51100000000E-03 0. -1.
    9900012    2    1    2    0    0  0.40978223008E+02  0.51567525393E+01 -0.13334784750E+02  0.47787270260E+02  0.19999996421E+02 0.  0.
        -12    1    1    2    0    0 -0.40978223008E+02 -0.51567525393E+01  0.13334784750E+02  0.43400729740E+02  0.00000000000E+00 0.  1.
         11    1    3    3    0    0  0.53721244385E+01  0.32039266216E+01  0.33315818332E+01  0.70869107904E+01  0.51100000000E-03 0. -1.
        -11    1    3    3    0    0  0.18518629506E+02 -0.78960756163E-01 -0.14157630229E+02  0.23310606331E+02  0.51100000000E-03 0.  1.
        -12    1    3    3    0    0  0.17087469064E+02  0.20317866738E+01 -0.25087363547E+01  0.17389753138E+02  0.00000000000E+00 0.  1.
</event>
<event>
 7    1  0.2714068E-010  0.4778727E+02  0.7816164E-02  0.1312668E+00
        -11   -1    0    0    0    0  0.00000000000E+00  0.00000000000E+00  0.45593999997E+02  0.45594000000E+02  0.51100000000E-03 0. -1.
         11   -1    0    0    0    0 -0.00000000000E+00 -0.00000000000E+00 -0.45593999997E+02  0.45594000000E+02  0.51100000000E-03 0.  1.
    9900012    2    1    2    0    0 -0.22815043344E+02 -0.10498781445E+02  0.35395944112E+02  0.47787268737E+02  0.19999989479E+02 0.  0.
        -12    1    1    2    0    0  0.22815043344E+02  0.10498781445E+02 -0.35395944112E+02  0.43400731263E+02  0.00000000000E+00 0.  1.
         11    1    3    3    0    0 -0.21064238371E+02 -0.11982155302E+02  0.28849968198E+02  0.37677511185E+02  0.51100000000E-03 0. -1.
        -11    1    3    3    0    0 -0.44854282091E+01 -0.73672872453E-01  0.45132799177E+01  0.63635045209E+01  0.51100000000E-03 0.  1.
         12    1    3    3    0    0  0.27346232356E+01  0.15570467296E+01  0.20326959959E+01  0.37462530308E+01  0.00000000000E+00 0. -1.
</event>
<event>
 7    1  0.2714068E-010  0.4778727E+02  0.7816164E-02  0.1312668E+00
        -11   -1    0    0    0    0  0.00000000000E+00  0.00000000000E+00  0.45593999997E+02  0.45594000000E+02  0.51100000000E-03 0.  1.
         11   -1    0    0    0    0 -0.00000000000E+00 -0.00000000000E+00 -0.45593999997E+02  0.45594000000E+02  0.51100000000E-03 0. -1.
    9900012    2    1    2    0    0  0.53200345206E+01 -0.20859460593E+02 -0.37685583973E+02  0.47787273014E+02  0.20000008981E+02 0.  0.
        -12    1    1    2    0    0 -0.53200345206E+01  0.20859460593E+02  0.37685583973E+02  0.43400726986E+02  0.00000000000E+00 0.  1.
         11    1    3    3    0    0 -0.18274811085E+01  0.86069741323E+00  0.38976556328E-02  0.20200254187E+01  0.51100000000E-03 0. -1.
        -11    1    3    3    0    0  0.86902810528E+01 -0.21322180980E+02 -0.29488543819E+02  0.37412973730E+02  0.51100000000E-03 0.  1.
        -12    1    3    3    0    0 -0.15427654237E+01 -0.39797702655E+00 -0.82009378095E+01  0.83542738656E+01  0.00000000000E+00 0.  1.
</event>
<event>
 7    1  0.2714068E-010  0.4778727E+02  0.7816164E-02  0.1312668E+00
        -11   -1    0    0    0    0  0.00000000000E+00  0.00000000000E+00  0.45593999997E+02  0.45594000000E+02  0.51100000000E-03 0.  1.
         11   -1    0    0    0    0 -0.00000000000E+00 -0.00000000000E+00 -0.45593999997E+02  0.45594000000E+02  0.51100000000E-03 0. -1.
    9900012    2    1    2    0    0 -0.22099466687E+02  0.34824578618E+02 -0.13508718716E+02  0.47787272067E+02  0.20000004663E+02 0.  0.
        -12    1    1    2    0    0  0.22099466687E+02 -0.34824578618E+02  0.13508718716E+02  0.43400727933E+02  0.00000000000E+00 0.  1.
         11    1    3    3    0    0 -0.23468800876E+02  0.28026576324E+02 -0.84193629263E+01  0.37512121606E+02  0.51100000000E-03 0. -1.
        -11    1    3    3    0    0  0.26718789418E+01  0.68902370041E+01 -0.33861451801E+01  0.81289779490E+01  0.51100000000E-03 0.  1.
        -12    1    3    3    0    0 -0.13025447524E+01 -0.92234710468E-01 -0.17032106091E+01  0.21461725123E+01  0.00000000000E+00 0.  1.
</event>
<event>
 7    1  0.2714068E-010  0.4778726E+02  0.7816164E-02  0.1312668E+00
        -11   -1    0    0    0    0  0.00000000000E+00  0.00000000000E+00  0.45593999997E+02  0.45594000000E+02  0.51100000000E-03 0.  1.
         11   -1    0    0    0    0 -0.00000000000E+00 -0.00000000000E+00 -0.45593999997E+02  0.45594000000E+02  0.51100000000E-03 0. -1.
    9900012    2    1    2    0    0 -0.21805210679E+02 -0.37514303949E+02 -0.91335200471E+00  0.47787257778E+02  0.19999939514E+02 0.  0.
        -12    1    1    2    0    0  0.21805210679E+02  0.37514303949E+02  0.91335200471E+00  0.43400742222E+02  0.00000000000E+00 0.  1.
         11    1    3    3    0    0 -0.96144773032E+01 -0.24949164155E+02 -0.35105430446E+01  0.26967070263E+02  0.51100000000E-03 0. -1.
        -11    1    3    3    0    0 -0.23011459474E+01 -0.77777647079E+01 -0.27974326020E+01  0.85798907887E+01  0.51100000000E-03 0.  1.
         12    1    3    3    0    0 -0.98895874284E+01 -0.47873750861E+01  0.53946236419E+01  0.12240296727E+02  0.00000000000E+00 0. -1.
</event>
<event>
 7    1  0.2714068E-010  0.4778727E+02  0.7816164E-02  0.1312668E+00
        -11   -1    0    0    0    0  0.00000000000E+00  0.00000000000E+00  0.45593999997E+02  0.45594000000E+02  0.51100000000E-03 0.  1.
         11   -1    0    0    0    0 -0.00000000000E+00 -0.00000000000E+00 -0.45593999997E+02  0.45594000000E+02  0.51100000000E-03 0. -1.
    9900012    2    1    2    0    0 -0.48376915114E+00  0.60387513850E+01 -0.42975836420E+02  0.47787273429E+02  0.20000010873E+02 0.  0.
        -12    1    1    2    0    0  0.48376915114E+00 -0.60387513850E+01  0.42975836420E+02  0.43400726571E+02  0.00000000000E+00 0.  1.
         11    1    3    3    0    0  0.26416974119E+01  0.71934251657E+01 -0.12449085868E+02  0.14618606980E+02  0.51100000000E-03 0. -1.
        -11    1    3    3    0    0 -0.41042781821E+01 -0.44002548128E+01 -0.63225659666E+01  0.87282405143E+01  0.51100000000E-03 0.  1.
        -12    1    3    3    0    0  0.97881161910E+00  0.32455810321E+01 -0.24204184586E+02  0.24440425935E+02  0.00000000000E+00 0.  1.
</event>
<event>
 7    1  0.2714068E-010  0.4778726E+02  0.7816164E-02  0.1312668E+00
        -11   -1    0    0    0    0  0.00000000000E+00  0.00000000000E+00  0.45593999997E+02  0.45594000000E+02  0.51100000000E-03 0.  1.
         11   -1    0    0    0    0 -0.00000000000E+00 -0.00000000000E+00 -0.45593999997E+02  0.45594000000E+02  0.51100000000E-03 0. -1.
    9900012    2    1    2    0    0 -0.73886206235E-01 -0.31831876194E+02 -0.29501697494E+02  0.47787263184E+02  0.19999964160E+02 0.  0.
        -12    1    1    2    0    0  0.73886206235E-01  0.31831876194E+02  0.29501697494E+02  0.43400736816E+02  0.00000000000E+00 0.  1.
         11    1    3    3    0    0  0.11183867616E+01 -0.11017144644E+02 -0.15891466754E+02  0.19369227680E+02  0.51100000000E-03 0. -1.
        -11    1    3    3    0    0 -0.79296720082E+00 -0.15944471444E+02 -0.23409584946E+01  0.16134901721E+02  0.51100000000E-03 0.  1.
        -12    1    3    3    0    0 -0.39930576705E+00 -0.48702601055E+01 -0.11269272245E+02  0.12283133783E+02  0.00000000000E+00 0.  1.
</event>
<event>
 7    1  0.2714068E-010  0.4778728E+02  0.7816164E-02  0.1312668E+00
        -11   -1    0    0    0    0  0.00000000000E+00  0.00000000000E+00  0.45593999997E+02  0.45594000000E+02  0.51100000000E-03 0. -1.
         11   -1    0    0    0    0 -0.00000000000E+00 -0.00000000000E+00 -0.45593999997E+02  0.45594000000E+02  0.51100000000E-03 0.  1.
    9900012    2    1    2    0    0 -0.37779554331E+02  0.63670501711E+01  0.20390885529E+02  0.47787282656E+02  0.20000052943E+02 0.  0.
        -12    1    1    2    0    0  0.37779554331E+02 -0.63670501711E+01 -0.20390885529E+02  0.43400717344E+02  0.00000000000E+00 0.  1.
         11    1    3    3    0    0 -0.36586000450E+01  0.65322275166E+01  0.67689971641E+01  0.10093298444E+02  0.51100000000E-03 0. -1.
        -11    1    3    3    0    0 -0.16650680820E+02 -0.70721521191E+00  0.21904853149E+01  0.16809031837E+02  0.51100000000E-03 0.  1.
         12    1    3    3    0    0 -0.17470273466E+02  0.54203786646E+00  0.11431403050E+02  0.20884952375E+02  0.00000000000E+00 0. -1.
</event>
<event>
 7    1  0.2714068E-010  0.4778727E+02  0.7816164E-02  0.1312668E+00
        -11   -1    0    0    0    0  0.00000000000E+00  0.00000000000E+00  0.45593999997E+02  0.45594000000E+02  0.51100000000E-03 0.  1.
         11   -1    0    0    0    0 -0.00000000000E+00 -0.00000000000E+00 -0.45593999997E+02  0.45594000000E+02  0.51100000000E-03 0. -1.
    9900012    2    1    2    0    0 -0.41949209630E+02  0.35274227363E+01  0.10556736158E+02  0.47787267540E+02  0.19999984023E+02 0.  0.
        -12    1    1    2    0    0  0.41949209630E+02 -0.35274227363E+01 -0.10556736158E+02  0.43400732460E+02  0.00000000000E+00 0.  1.
         11    1    3    3    0    0 -0.27884301769E+02  0.79056121517E+01  0.94678801234E+01  0.30490551700E+02  0.51100000000E-03 0. -1.
        -11    1    3    3    0    0 -0.22286036745E+01 -0.48690025706E+01  0.10142446844E+01  0.54500048543E+01  0.51100000000E-03 0.  1.
         12    1    3    3    0    0 -0.11836304186E+02  0.49081315516E+00  0.74611350078E-01  0.11846710986E+02  0.00000000000E+00 0. -1.
</event>
<event>
 7    1  0.2714068E-010  0.4778726E+02  0.7816164E-02  0.1312668E+00
        -11   -1    0    0    0    0  0.00000000000E+00  0.00000000000E+00  0.45593999997E+02  0.45594000000E+02  0.51100000000E-03 0. -1.
         11   -1    0    0    0    0 -0.00000000000E+00 -0.00000000000E+00 -0.45593999997E+02  0.45594000000E+02  0.51100000000E-03 0.  1.
    9900012    2    1    2    0    0  0.16834775130E+02  0.20953998444E+02 -0.34075569952E+02  0.47787260697E+02  0.19999952821E+02 0.  0.
        -12    1    1    2    0    0 -0.16834775130E+02 -0.20953998444E+02  0.34075569952E+02  0.43400739303E+02  0.00000000000E+00 0.  1.
         11    1    3    3    0    0  0.12472803490E+02  0.20370645446E+02 -0.15019775904E+02  0.28215734817E+02  0.51100000000E-03 0. -1.
        -11    1    3    3    0    0  0.34656900227E+01  0.26205614446E+00 -0.15889430339E+02  0.16265106132E+02  0.51100000000E-03 0.  1.
         12    1    3    3    0    0  0.89628161804E+00  0.32129685394E+00 -0.31663637094E+01  0.33064197476E+01  0.00000000000E+00 0. -1.
</event>
<event>
 7    1  0.2714068E-010  0.4778727E+02  0.7816164E-02  0.1312668E+00
        -11   -1    0    0    0    0  0.00000000000E+00  0.00000000000E+00  0.45593999997E+02  0.45594000000E+02  0.51100000000E-03 0. -1.
         11   -1    0    0    0    0 -0.00000000000E+00 -0.00000000000E+00 -0.45593999997E+02  0.45594000000E+02  0.51100000000E-03 0.  1.
    9900012    2    1    2    0    0 -0.13362151172E+02  0.27944856830E+02 -0.30400021854E+02  0.47787269177E+02  0.19999991488E+02 0.  0.
        -12    1    1    2    0    0  0.13362151172E+02 -0.27944856830E+02  0.30400021854E+02  0.43400730823E+02  0.00000000000E+00 0.  1.
         11    1    3    3    0    0  0.24467630208E+01  0.95210397569E+01 -0.42730353249E+01  0.10718940175E+02  0.51100000000E-03 0. -1.
        -11    1    3    3    0    0 -0.88442664902E+01  0.34141959569E+01 -0.12131675994E+02  0.15396601783E+02  0.51100000000E-03 0.  1.
        -12    1    3    3    0    0 -0.69646477025E+01  0.15009621117E+02 -0.13995310535E+02  0.21671727219E+02  0.00000000000E+00 0.  1.
</event>
<event>
 7    1  0.2714068E-010  0.4778727E+02  0.7816164E-02  0.1312668E+00
        -11   -1    0    0    0    0  0.00000000000E+00  0.00000000000E+00  0.45593999997E+02  0.45594000000E+02  0.51100000000E-03 0. -1.
         11   -1    0    0    0    0 -0.00000000000E+00 -0.00000000000E+00 -0.45593999997E+02  0.45594000000E+02  0.51100000000E-03 0.  1.
    9900012    2    1    2    0    0  0.10365759950E+02 -0.37009380884E+02  0.20161350552E+02  0.47787270642E+02  0.19999998164E+02 0.  0.
        -12    1    1    2    0    0 -0.10365759950E+02  0.37009380884E+02 -0.20161350552E+02  0.43400729358E+02  0.00000000000E+00 0.  1.
         11    1    3    3    0    0  0.97397560269E+01 -0.35533496690E+02  0.20800238366E+02  0.42310071506E+02  0.51100000000E-03 0. -1.
        -11    1    3    3    0    0 -0.71616651242E+00  0.12624527440E+01  0.12282864609E+01  0.19014124475E+01  0.51100000000E-03 0.  1.
         12    1    3    3    0    0  0.13421704352E+01 -0.27383369379E+01 -0.18671742755E+01  0.35757866879E+01  0.00000000000E+00 0. -1.
</event>
<event>
 7    1  0.2714068E-010  0.4778727E+02  0.7816164E-02  0.1312668E+00
        -11   -1    0    0    0    0  0.00000000000E+00  0.00000000000E+00  0.45593999997E+02  0.45594000000E+02  0.51100000000E-03 0. -1.
         11   -1    0    0    0    0 -0.00000000000E+00 -0.00000000000E+00 -0.45593999997E+02  0.45594000000E+02  0.51100000000E-03 0.  1.
    9900012    2    1    2    0    0 -0.17545970152E+02 -0.24806306645E+02  0.30990477188E+02  0.47787267353E+02  0.19999983171E+02 0.  0.
        -12    1    1    2    0    0  0.17545970152E+02  0.24806306645E+02 -0.30990477188E+02  0.43400732647E+02  0.00000000000E+00 0.  1.
         11    1    3    3    0    0 -0.18711334799E+02 -0.17982750937E+02  0.27183059247E+02  0.37582071411E+02  0.51100000000E-03 0. -1.
        -11    1    3    3    0    0  0.31059904068E+01 -0.48029310358E+01  0.45478426566E+01  0.73074069294E+01  0.51100000000E-03 0.  1.
        -12    1    3    3    0    0 -0.19406257600E+01 -0.20206246720E+01 -0.74042471582E+00  0.28977890133E+01  0.00000000000E+00 0.  1.
</event>
<event>
 7    1  0.2714068E-010  0.4778727E+02  0.7816164E-02  0.1312668E+00
        -11   -1    0    0    0    0  0.00000000000E+00  0.00000000000E+00  0.45593999997E+02  0.45594000000E+02  0.51100000000E-03 0. -1.
         11   -1    0    0    0    0 -0.00000000000E+00 -0.00000000000E+00 -0.45593999997E+02  0.45594000000E+02  0.51100000000E-03 0.  1.
    9900012    2    1    2    0    0 -0.33260386902E+01 -0.38621197752E+02  0.19518297724E+02  0.47787269647E+02  0.19999993627E+02 0.  0.
        -12    1    1    2    0    0  0.33260386902E+01  0.38621197752E+02 -0.19518297724E+02  0.43400730353E+02  0.00000000000E+00 0.  1.
         11    1    3    3    0    0 -0.37110989351E+01 -0.96839373085E+01  0.68479987312E+01  0.12427629862E+02  0.51100000000E-03 0. -1.
        -11    1    3    3    0    0  0.70291265465E+00 -0.24834919659E+02  0.16429903167E+02  0.29786054439E+02  0.51100000000E-03 0.  1.
        -12    1    3    3    0    0 -0.31785240966E+00 -0.41023407841E+01 -0.37596041742E+01  0.55735853461E+01  0.00000000000E+00 0.  1.
</event>
<event>
 7    1  0.2714068E-010  0.4778729E+02  0.7816164E-02  0.1312668E+00
        -11   -1    0    0    0    0  0.00000000000E+00  0.00000000000E+00  0.45593999997E+02  0.45594000000E+02  0.51100000000E-03 0.  1.
         11   -1    0    0    0    0 -0.00000000000E+00 -0.00000000000E+00 -0.45593999997E+02  0.45594000000E+02  0.51100000000E-03 0. -1.
    9900012    2    1    2    0    0 -0.13562800635E+01  0.84600689582E+01 -0.42546553882E+02  0.47787291370E+02  0.20000092672E+02 0.  0.
        -12    1    1    2    0    0  0.13562800635E+01 -0.84600689582E+01  0.42546553882E+02  0.43400708630E+02  0.00000000000E+00 0.  1.
         11    1    3    3    0    0 -0.10573795834E+01  0.25221912599E+01 -0.32319593353E+02  0.32435098506E+02  0.51100000000E-03 0. -1.
        -11    1    3    3    0    0 -0.34205971980E+01  0.72658737782E+01 -0.76586467060E+01  0.11097219317E+02  0.51100000000E-03 0.  1.
        -12    1    3    3    0    0  0.31216967179E+01 -0.13279960799E+01 -0.25683138224E+01  0.42549735460E+01  0.00000000000E+00 0.  1.
</event>
<event>
 7    1  0.2714068E-010  0.4778725E+02  0.7816164E-02  0.1312668E+00
        -11   -1    0    0    0    0  0.00000000000E+00  0.00000000000E+00  0.45593999997E+02  0.45594000000E+02  0.51100000000E-03 0.  1.
         11   -1    0    0    0    0 -0.00000000000E+00 -0.00000000000E+00 -0.45593999997E+02  0.45594000000E+02  0.51100000000E-03 0. -1.
    9900012    2    1    2    0    0 -0.38818508319E+02 -0.30899784306E+01 -0.19162474496E+02  0.47787251347E+02  0.19999910193E+02 0.  0.
        -12    1    1    2    0    0  0.38818508319E+02  0.30899784306E+01  0.19162474496E+02  0.43400748653E+02  0.00000000000E+00 0.  1.
         11    1    3    3    0    0 -0.18417595574E+02 -0.32999021753E+01  0.62345875908E+00  0.18721268178E+02  0.51100000000E-03 0. -1.
        -11    1    3    3    0    0 -0.10296398128E+02  0.24555261924E+01 -0.12645439323E+02  0.16490984180E+02  0.51100000000E-03 0.  1.
         12    1    3    3    0    0 -0.10104514616E+02 -0.22456024478E+01 -0.71404939316E+01  0.12574998989E+02  0.00000000000E+00 0. -1.
</event>
<event>
 7    1  0.2714068E-010  0.4778727E+02  0.7816164E-02  0.1312668E+00
        -11   -1    0    0    0    0  0.00000000000E+00  0.00000000000E+00  0.45593999997E+02  0.45594000000E+02  0.51100000000E-03 0.  1.
         11   -1    0    0    0    0 -0.00000000000E+00 -0.00000000000E+00 -0.45593999997E+02  0.45594000000E+02  0.51100000000E-03 0. -1.
    9900012    2    1    2    0    0 -0.42096685460E+02  0.32820488483E+01  0.10035961146E+02  0.47787270887E+02  0.19999999284E+02 0.  0.
        -12    1    1    2    0    0  0.42096685460E+02 -0.32820488483E+01 -0.10035961146E+02  0.43400729113E+02  0.00000000000E+00 0.  1.
         11    1    3    3    0    0 -0.11290538341E+02  0.24612608564E+01  0.21253200262E+01  0.11749512607E+02  0.51100000000E-03 0. -1.
        -11    1    3    3    0    0 -0.24021475829E+02  0.12639408073E+01  0.13186333483E+02  0.27431883610E+02  0.51100000000E-03 0.  1.
        -12    1    3    3    0    0 -0.67846712903E+01 -0.44315281546E+00 -0.52756923634E+01  0.86058746707E+01  0.00000000000E+00 0.  1.
</event>
